 Gaussian 16, Revision C.01,
 Gaussian 16:  ES64L-G16RevC.01  3-Jul-2019

 ----------------------------------------------------------------------
 # B3LYP/6-31G* empiricaldispersion=gd3bj guess=read geom=check nosymm
 integral(ultrafinegrid)
 ----------------------------------------------------------------------

 ------------------------------------------------------
 Candidate Structure: Conf:746 Charge calc in gas phase
 ------------------------------------------------------
 Structure from the checkpoint file:  "conf-746.chk"
 Charge =  1 Multiplicity = 1

                          Input orientation:
 ---------------------------------------------------------------------
 Center     Atomic      Atomic             Coordinates (Angstroms)
 Number     Number       Type             X           Y           Z
 ---------------------------------------------------------------------
      1          7           0       -5.899354    3.846291    2.923802
      2          1           0       -6.380797    4.447838    2.249359
      3          1           0       -6.157682    2.833475    2.725474
      4          1           0       -6.178949    4.123072    3.869045
      5          6           0       -4.393267    3.820688    2.738630
      6          1           0       -4.110011    4.680496    2.130074
      7          6           0       -4.181694    2.485143    1.983229
      8          6           0       -3.711512    3.857921    4.116852
      9          1           0       -4.063807    4.760350    4.637166
     10          1           0       -4.055539    2.989297    4.694106
     11          8           0       -5.116740    1.667908    1.987079
     12          6           0       -2.168535    3.883902    4.102040
     13          1           0       -1.805162    2.954377    3.649301
     14          6           0       -1.611399    5.066695    3.299120
     15          1           0       -1.967683    6.021376    3.705594
     16          1           0       -1.879233    5.034988    2.235431
     17          1           0       -0.519056    5.069853    3.343662
     18          6           0       -1.662313    3.922769    5.550046
     19          1           0       -1.976549    4.844707    6.054077
     20          1           0       -2.036990    3.072526    6.130470
     21          1           0       -0.569234    3.887233    5.570856
     22          7           0       -3.003451    2.310268    1.404535
     23          1           0       -2.233026    2.974007    1.515518
     24          6           0       -2.548045    1.050353    0.827635
     25          1           0       -2.958501    0.228700    1.422108
     26          6           0       -1.012731    1.119486    0.961017
     27          6           0       -3.002313    0.921691   -0.644162
     28          1           0       -4.059938    1.212529   -0.678995
     29          1           0       -2.447796    1.658986   -1.235899
     30          8           0       -0.474975    2.183877    1.281896
     31          6           0       -2.830970   -0.438734   -1.256749
     32          6           0       -2.883126   -1.676030   -0.653930
     33          1           0       -3.032152   -1.945474    0.382962
     34          6           0       -2.675640   -0.682194   -2.670105
     35          6           0       -2.633652   -2.093118   -2.856198
     36          6           0       -2.605234    0.157256   -3.794651
     37          1           0       -2.636876    1.236824   -3.682698
     38          7           0       -2.741921   -2.668866   -1.608707
     39          1           0       -2.795243   -3.659098   -1.423780
     40          6           0       -2.464262   -1.820857   -5.219701
     41          1           0       -2.396846   -2.239604   -6.218766
     42          6           0       -2.519384   -2.675888   -4.123914
     43          1           0       -2.497535   -3.753887   -4.252478
     44          6           0       -2.504682   -0.416544   -5.058628
     45          1           0       -2.469648    0.219330   -5.937926
     46          7           0       -0.341245   -0.014452    0.709894
     47          1           0       -0.849496   -0.772264    0.268638
     48          6           0        1.095719    0.018849    0.506228
     49          1           0        1.547554    0.559780    1.341689
     50          6           0        1.407570    0.703401   -0.832267
     51          6           0        1.646929   -1.409989    0.463958
     52          1           0        2.729068   -1.364833    0.295845
     53          1           0        1.215908   -1.933266   -0.405029
     54          8           0        0.586233    0.657647   -1.758929
     55          8           0        1.299208   -2.035533    1.685848
     56          1           0        1.792744   -2.867647    1.746503
     57          7           0        2.620248    1.272184   -0.940784
     58          1           0        3.251612    1.179755   -0.154679
     59          6           0        3.245308    1.444782   -2.251322
     60          1           0        2.686039    2.199048   -2.812562
     61          6           0        3.178726    0.105624   -3.007482
     62          6           0        4.709506    1.871035   -2.100569
     63          1           0        5.194632    1.881035   -3.083677
     64          1           0        5.246964    1.147729   -1.475651
     65          1           0        4.778733    2.862720   -1.642763
     66          8           0        3.082048   -0.960830   -2.394342
     67          7           0        3.189762    0.218773   -4.370034
     68          1           0        3.666683    1.097867   -4.681337
     69          6           0        3.933001   -0.803291   -5.152855
     70          1           0        4.045576   -1.700527   -4.543738
     71          6           0        5.360581   -0.153624   -5.417214
     72          6           0        3.310905   -1.118947   -6.519017
     73          1           0        3.502801   -0.265146   -7.181715
     74          1           0        3.899301   -1.947973   -6.925657
     75          8           0        5.382718    1.099842   -5.202018
     76          6           0        1.810045   -1.430546   -6.630940
     77          1           0        1.230344   -0.512912   -6.451038
     78          1           0        1.609625   -1.674362   -7.681310
     79          6           0        1.226384   -2.582806   -5.791662
     80          1           0        1.837689   -3.483899   -5.919391
     81          1           0        0.230552   -2.823611   -6.185720
     82          6           0        1.097694   -2.328284   -4.286904
     83          1           0        0.391264   -3.023080   -3.826465
     84          1           0        2.048734   -2.377580   -3.759488
     85          7           0        0.579838   -0.942906   -4.026987
     86          1           0       -0.319593   -0.771126   -4.491776
     87          1           0        0.470844   -0.707333   -3.026632
     88          1           0        1.292786   -0.264326   -4.371657
     89          8           0        6.222433   -0.929013   -5.835548
 ---------------------------------------------------------------------

 SCF Done:  E(RB3LYP) =  -2042.64205865     A.U. after    3 cycles

 Alpha  occ. eigenvalues --  -19.28261 -19.23833 -19.23753 -19.21867 -19.19303
 Alpha  occ. eigenvalues --  -19.08892 -19.07601 -14.61368 -14.50691 -14.50642
 Alpha  occ. eigenvalues --  -14.48896 -14.46910 -14.45312 -14.40235 -10.44902
 Alpha  occ. eigenvalues --  -10.41894 -10.40509 -10.38622 -10.36435 -10.35267
 Alpha  occ. eigenvalues --  -10.34570 -10.33294 -10.33224 -10.33207 -10.32954
 Alpha  occ. eigenvalues --  -10.31890 -10.31468 -10.31380 -10.30721 -10.29951
 Alpha  occ. eigenvalues --  -10.29669 -10.29467 -10.29356 -10.29200 -10.29185
 Alpha  occ. eigenvalues --  -10.28753 -10.28312 -10.26781 -10.26493 -10.25091
 Alpha  occ. eigenvalues --  -10.24244 -10.23954 -10.22399  -1.20718  -1.15974
 Alpha  occ. eigenvalues --   -1.15132  -1.13599  -1.11352  -1.10471  -1.08829
 Alpha  occ. eigenvalues --   -1.07655  -1.06322  -1.03787  -1.01945  -1.01774
 Alpha  occ. eigenvalues --   -0.96940  -0.96145  -0.94767  -0.92989  -0.92671
 Alpha  occ. eigenvalues --   -0.89918  -0.88327  -0.87075  -0.86414  -0.84367
 Alpha  occ. eigenvalues --   -0.83588  -0.82932  -0.81409  -0.80787  -0.79737
 Alpha  occ. eigenvalues --   -0.78881  -0.75937  -0.75331  -0.74421  -0.74280
 Alpha  occ. eigenvalues --   -0.73326  -0.73068  -0.71786  -0.70842  -0.69884
 Alpha  occ. eigenvalues --   -0.68839  -0.68626  -0.67979  -0.67092  -0.66759
 Alpha  occ. eigenvalues --   -0.65711  -0.64774  -0.64695  -0.64486  -0.63809
 Alpha  occ. eigenvalues --   -0.63240  -0.61698  -0.61227  -0.60846  -0.59849
 Alpha  occ. eigenvalues --   -0.59100  -0.58648  -0.58378  -0.58170  -0.57736
 Alpha  occ. eigenvalues --   -0.57297  -0.56524  -0.56072  -0.55697  -0.55558
 Alpha  occ. eigenvalues --   -0.55256  -0.54648  -0.53777  -0.53702  -0.53367
 Alpha  occ. eigenvalues --   -0.53217  -0.52834  -0.52544  -0.52101  -0.51723
 Alpha  occ. eigenvalues --   -0.51266  -0.50968  -0.50318  -0.50083  -0.49922
 Alpha  occ. eigenvalues --   -0.49792  -0.49269  -0.49073  -0.48927  -0.48749
 Alpha  occ. eigenvalues --   -0.47914  -0.47456  -0.46597  -0.46463  -0.46019
 Alpha  occ. eigenvalues --   -0.45720  -0.45306  -0.45191  -0.45054  -0.44395
 Alpha  occ. eigenvalues --   -0.44286  -0.44079  -0.43917  -0.43424  -0.42938
 Alpha  occ. eigenvalues --   -0.42713  -0.42159  -0.41573  -0.40631  -0.40324
 Alpha  occ. eigenvalues --   -0.39075  -0.38429  -0.38370  -0.38034  -0.37287
 Alpha  occ. eigenvalues --   -0.37198  -0.36791  -0.35894  -0.35436  -0.35217
 Alpha  occ. eigenvalues --   -0.33802  -0.33372  -0.32117  -0.31376  -0.23937
 Alpha  occ. eigenvalues --   -0.23760  -0.21421
 Alpha virt. eigenvalues --   -0.13707  -0.12342  -0.12283  -0.09441  -0.08725
 Alpha virt. eigenvalues --   -0.08382  -0.07608  -0.05993  -0.05844  -0.05109
 Alpha virt. eigenvalues --   -0.03174  -0.02362  -0.02055  -0.01694  -0.01009

 Mulliken charges:
               1
     1  N   -0.756581
     2  H    0.417916
     3  H    0.433404
     4  H    0.415318
     5  C   -0.117828
     6  H    0.218080
     7  C    0.647301
     8  C   -0.288129
     9  H    0.165714
    10  H    0.173841
    11  O   -0.545009
    12  C   -0.106638
    13  H    0.161613
    14  C   -0.462021
    15  H    0.156952
    16  H    0.136481
    17  H    0.193261
    18  C   -0.452128
    19  H    0.157048
    20  H    0.157922
    21  H    0.178346
    22  N   -0.616778
    23  H    0.397256
    24  C   -0.087696
    25  H    0.195951
    26  C    0.648623
    27  C   -0.333976
    28  H    0.184038
    29  H    0.181242
    30  O   -0.549548
    31  C    0.071301
    32  C   -0.033989
    33  H    0.175717
    34  C    0.078313
    35  C    0.315441
    36  C   -0.207376
    37  H    0.147879
    38  N   -0.689663
    39  H    0.347598
    40  C   -0.162762
    41  H    0.163453
    42  C   -0.169136
    43  H    0.156015
    44  C   -0.196492
    45  H    0.159523
    46  N   -0.580521
    47  H    0.355518
    48  C   -0.091913
    49  H    0.191315
    50  C    0.668629
    51  C   -0.048098
    52  H    0.174561
    53  H    0.132973
    54  O   -0.594244
    55  O   -0.616987
    56  H    0.411468
    57  N   -0.574182
    58  H    0.344480
    59  C   -0.041480
    60  H    0.178413
    61  C    0.596332
    62  C   -0.512375
    63  H    0.256217
    64  H    0.156903
    65  H    0.161836
    66  O   -0.550203
    67  N   -0.648075
    68  H    0.355133
    69  C   -0.107163
    70  H    0.157092
    71  C    0.594811
    72  C   -0.267214
    73  H    0.158350
    74  H    0.176321
    75  O   -0.611335
    76  C   -0.289395
    77  H    0.111574
    78  H    0.159362
    79  C   -0.283810
    80  H    0.176160
    81  H    0.139244
    82  C   -0.190388
    83  H    0.164463
    84  H    0.239213
    85  N   -0.798308
    86  H    0.398369
    87  H    0.427466
    88  H    0.412564
    89  O   -0.552877
 Sum of Mulliken charges =   1.00000

 Dipole moment (field-independent basis, Debye):
    X=            -31.4309    Y=              9.3380    Z=             14.1655  Tot=             35.7178
 Quadrupole moment (field-independent basis, Debye-Ang):
   XX=           -223.9748   YY=           -157.9302   ZZ=           -228.6823
   XY=            -72.5119   XZ=             28.2175   YZ=             64.9721

 Normal termination of Gaussian 16 at Mon Jul  4 15:09:15 2022.
