 Gaussian 16, Revision C.01,
 Gaussian 16:  ES64L-G16RevC.01  3-Jul-2019

 ----------------------------------------------------------------------
 # B3LYP/6-31G* empiricaldispersion=gd3bj guess=read geom=check nosymm
 integral(ultrafinegrid)
 ----------------------------------------------------------------------

 ------------------------------------------------------
 Candidate Structure: Conf:315 Charge calc in gas phase
 ------------------------------------------------------
 Structure from the checkpoint file:  "conf-315.chk"
 Charge =  1 Multiplicity = 1

                          Input orientation:
 ---------------------------------------------------------------------
 Center     Atomic      Atomic             Coordinates (Angstroms)
 Number     Number       Type             X           Y           Z
 ---------------------------------------------------------------------
      1          7           0       -5.814060    1.290400    2.838700
      2          1           0       -6.036411    2.298646    2.721930
      3          1           0       -6.117095    0.786778    1.974365
      4          1           0       -6.298563    0.932758    3.665533
      5          6           0       -4.325439    1.051584    2.888524
      6          1           0       -3.869634    1.954319    3.293595
      7          6           0       -3.971540    0.856309    1.399660
      8          6           0       -3.993890   -0.188193    3.723342
      9          1           0       -4.439288   -1.066123    3.237906
     10          1           0       -2.906478   -0.323435    3.667655
     11          8           0       -4.837593    0.372733    0.663984
     12          6           0       -4.413913   -0.125030    5.205165
     13          1           0       -5.514889   -0.061663    5.263362
     14          6           0       -4.010304   -1.431179    5.901659
     15          1           0       -2.919794   -1.544890    5.905077
     16          1           0       -4.440158   -2.304310    5.399096
     17          1           0       -4.350569   -1.437332    6.941435
     18          6           0       -3.825928    1.093186    5.928250
     19          1           0       -2.731044    1.091422    5.863694
     20          1           0       -4.184847    2.045469    5.519275
     21          1           0       -4.094792    1.076525    6.988595
     22          7           0       -2.752219    1.249121    1.028699
     23          1           0       -2.051888    1.554482    1.701105
     24          6           0       -2.302896    1.335510   -0.351120
     25          1           0       -2.749378    0.515624   -0.919399
     26          6           0       -0.771444    1.238690   -0.302527
     27          6           0       -2.708159    2.702222   -0.993144
     28          1           0       -2.115064    3.488752   -0.511325
     29          1           0       -2.407747    2.681817   -2.046102
     30          8           0       -0.168038    1.462535    0.748804
     31          6           0       -4.170168    2.992457   -0.862475
     32          6           0       -5.160178    2.635729   -1.745194
     33          1           0       -5.079463    2.185469   -2.724796
     34          6           0       -4.835259    3.547037    0.289596
     35          6           0       -6.240195    3.465870    0.045008
     36          6           0       -4.391831    4.084456    1.509702
     37          1           0       -3.329377    4.187407    1.711412
     38          7           0       -6.398920    2.912262   -1.204670
     39          1           0       -7.278766    2.789331   -1.683274
     40          6           0       -6.717249    4.381011    2.200787
     41          1           0       -7.427213    4.728494    2.945221
     42          6           0       -7.187437    3.874183    0.988500
     43          1           0       -8.252443    3.810280    0.785560
     44          6           0       -5.329306    4.493650    2.455694
     45          1           0       -4.995519    4.930030    3.392559
     46          7           0       -0.180413    0.976477   -1.480251
     47          1           0       -0.712432    0.821647   -2.334798
     48          6           0        1.245875    1.094574   -1.719072
     49          1           0        1.666548    1.888637   -1.095393
     50          6           0        1.385696    1.364716   -3.225316
     51          6           0        1.946905   -0.245849   -1.372009
     52          1           0        1.592535   -1.010253   -2.078826
     53          1           0        1.631486   -0.524267   -0.362567
     54          8           0        0.507765    0.957059   -3.984357
     55          8           0        3.367133   -0.162879   -1.352131
     56          1           0        3.756386    0.076870   -2.262261
     57          7           0        2.523894    1.980151   -3.620341
     58          1           0        3.223560    2.132878   -2.901312
     59          6           0        3.117405    1.658285   -4.925021
     60          1           0        2.297164    1.403536   -5.597018
     61          6           0        4.020820    0.434779   -4.690588
     62          6           0        3.926334    2.833049   -5.474750
     63          1           0        4.352335    2.567946   -6.446644
     64          1           0        4.751349    3.083261   -4.798693
     65          1           0        3.287654    3.712444   -5.596350
     66          8           0        4.592573    0.330330   -3.563964
     67          7           0        4.145547   -0.417471   -5.679283
     68          1           0        3.839644   -0.246550   -6.676808
     69          6           0        5.098651   -1.521160   -5.786679
     70          1           0        6.067248   -1.200995   -5.385726
     71          6           0        5.223237   -1.785662   -7.348134
     72          6           0        4.658439   -2.806720   -5.081216
     73          1           0        3.756053   -3.202790   -5.563935
     74          1           0        5.456980   -3.532514   -5.267683
     75          8           0        5.981777   -2.711909   -7.656436
     76          6           0        4.406306   -2.617817   -3.583264
     77          1           0        5.169899   -1.932189   -3.200739
     78          1           0        3.447724   -2.099689   -3.443604
     79          6           0        4.406829   -3.906610   -2.758424
     80          1           0        5.408271   -4.357091   -2.762981
     81          1           0        3.732336   -4.653957   -3.192960
     82          6           0        3.954179   -3.674547   -1.317744
     83          1           0        2.884073   -3.459112   -1.260179
     84          1           0        4.177306   -4.523858   -0.667707
     85          7           0        4.640570   -2.454968   -0.720295
     86          1           0        4.635220   -2.484351    0.302560
     87          1           0        5.617958   -2.401094   -1.023785
     88          1           0        4.152309   -1.539484   -1.013535
     89          8           0        4.493648   -1.019514   -8.043623
 ---------------------------------------------------------------------

 SCF Done:  E(RB3LYP) =  -2042.64428987     A.U. after    1 cycles

 Alpha  occ. eigenvalues --  -19.25956 -19.25705 -19.23131 -19.21228 -19.18341
 Alpha  occ. eigenvalues --  -19.07813 -19.06410 -14.58528 -14.55950 -14.49506
 Alpha  occ. eigenvalues --  -14.49237 -14.46925 -14.44484 -14.39752 -10.43097
 Alpha  occ. eigenvalues --  -10.40206 -10.39589 -10.38094 -10.36179 -10.35544
 Alpha  occ. eigenvalues --  -10.34540 -10.34514 -10.33737 -10.33668 -10.33215
 Alpha  occ. eigenvalues --  -10.33016 -10.32502 -10.31085 -10.31075 -10.30715
 Alpha  occ. eigenvalues --  -10.30677 -10.30428 -10.30228 -10.30037 -10.29487
 Alpha  occ. eigenvalues --  -10.29288 -10.28784 -10.28625 -10.25602 -10.25545
 Alpha  occ. eigenvalues --  -10.24401 -10.23652 -10.22486  -1.18566  -1.15206
 Alpha  occ. eigenvalues --   -1.13450  -1.12969  -1.12526  -1.10373  -1.09227
 Alpha  occ. eigenvalues --   -1.09044  -1.06305  -1.03580  -1.01210  -1.00921
 Alpha  occ. eigenvalues --   -0.96378  -0.96007  -0.95109  -0.92360  -0.92170
 Alpha  occ. eigenvalues --   -0.89845  -0.89620  -0.88038  -0.86120  -0.85342
 Alpha  occ. eigenvalues --   -0.84067  -0.83317  -0.82294  -0.80637  -0.79743
 Alpha  occ. eigenvalues --   -0.77971  -0.76957  -0.75934  -0.73961  -0.73097
 Alpha  occ. eigenvalues --   -0.72543  -0.71861  -0.71673  -0.70906  -0.70642
 Alpha  occ. eigenvalues --   -0.69566  -0.69443  -0.69148  -0.68660  -0.67982
 Alpha  occ. eigenvalues --   -0.67140  -0.66112  -0.65494  -0.65070  -0.62881
 Alpha  occ. eigenvalues --   -0.62660  -0.62201  -0.60776  -0.60503  -0.60116
 Alpha  occ. eigenvalues --   -0.59421  -0.59375  -0.58791  -0.58559  -0.57794
 Alpha  occ. eigenvalues --   -0.57551  -0.56692  -0.56243  -0.55833  -0.55692
 Alpha  occ. eigenvalues --   -0.55045  -0.54833  -0.54634  -0.53910  -0.53473
 Alpha  occ. eigenvalues --   -0.53197  -0.52874  -0.52429  -0.52060  -0.51752
 Alpha  occ. eigenvalues --   -0.51648  -0.51352  -0.51031  -0.50444  -0.50279
 Alpha  occ. eigenvalues --   -0.50038  -0.50003  -0.49778  -0.48916  -0.48864
 Alpha  occ. eigenvalues --   -0.48662  -0.47851  -0.47631  -0.46927  -0.46656
 Alpha  occ. eigenvalues --   -0.45650  -0.45635  -0.45513  -0.45438  -0.45350
 Alpha  occ. eigenvalues --   -0.45016  -0.44638  -0.44024  -0.43876  -0.43484
 Alpha  occ. eigenvalues --   -0.42853  -0.41572  -0.40627  -0.40505  -0.39778
 Alpha  occ. eigenvalues --   -0.39454  -0.39246  -0.38844  -0.38015  -0.37375
 Alpha  occ. eigenvalues --   -0.37002  -0.36604  -0.35252  -0.34971  -0.34555
 Alpha  occ. eigenvalues --   -0.34388  -0.32394  -0.31596  -0.30970  -0.22932
 Alpha  occ. eigenvalues --   -0.22683  -0.20731
 Alpha virt. eigenvalues --   -0.13254  -0.12435  -0.09824  -0.09464  -0.08699
 Alpha virt. eigenvalues --   -0.08321  -0.07493  -0.05273  -0.04404  -0.04292
 Alpha virt. eigenvalues --   -0.03293  -0.02740  -0.02160  -0.02107  -0.01927

 Mulliken charges:
               1
     1  N   -0.769806
     2  H    0.420733
     3  H    0.419876
     4  H    0.400906
     5  C   -0.112154
     6  H    0.200412
     7  C    0.669940
     8  C   -0.283744
     9  H    0.176290
    10  H    0.180685
    11  O   -0.542142
    12  C   -0.103498
    13  H    0.117689
    14  C   -0.446933
    15  H    0.160561
    16  H    0.160296
    17  H    0.173707
    18  C   -0.454619
    19  H    0.163708
    20  H    0.134141
    21  H    0.182105
    22  N   -0.608058
    23  H    0.361774
    24  C   -0.061080
    25  H    0.194576
    26  C    0.631815
    27  C   -0.366905
    28  H    0.173574
    29  H    0.180298
    30  O   -0.544409
    31  C    0.080651
    32  C    0.036867
    33  H    0.182824
    34  C    0.061587
    35  C    0.326083
    36  C   -0.223791
    37  H    0.145584
    38  N   -0.681839
    39  H    0.350144
    40  C   -0.208274
    41  H    0.160620
    42  C   -0.173337
    43  H    0.160072
    44  C   -0.186727
    45  H    0.154575
    46  N   -0.620112
    47  H    0.365965
    48  C   -0.066638
    49  H    0.190096
    50  C    0.594991
    51  C   -0.041835
    52  H    0.154432
    53  H    0.164939
    54  O   -0.521862
    55  O   -0.702102
    56  H    0.469883
    57  N   -0.572878
    58  H    0.337033
    59  C   -0.080895
    60  H    0.203994
    61  C    0.624459
    62  C   -0.458098
    63  H    0.196582
    64  H    0.160613
    65  H    0.169972
    66  O   -0.638516
    67  N   -0.578855
    68  H    0.375264
    69  C   -0.089318
    70  H    0.150104
    71  C    0.600165
    72  C   -0.259503
    73  H    0.148827
    74  H    0.176558
    75  O   -0.573112
    76  C   -0.287919
    77  H    0.143186
    78  H    0.126507
    79  C   -0.289388
    80  H    0.168450
    81  H    0.185384
    82  C   -0.187791
    83  H    0.195503
    84  H    0.197961
    85  N   -0.776398
    86  H    0.395621
    87  H    0.406340
    88  H    0.460843
    89  O   -0.613229
 Sum of Mulliken charges =   1.00000

 Dipole moment (field-independent basis, Debye):
    X=            -21.8993    Y=              4.2899    Z=             25.5559  Tot=             33.9277
 Quadrupole moment (field-independent basis, Debye-Ang):
   XX=           -118.0895   YY=           -217.1619   ZZ=           -353.7656
   XY=            -44.5887   XZ=             42.1690   YZ=            -36.9172

 Normal termination of Gaussian 16 at Mon Jul  4 15:06:21 2022.
