 Gaussian 16, Revision C.01,
 Gaussian 16:  ES64L-G16RevC.01  3-Jul-2019

 ----------------------------------------------------------------------
 # B3LYP/6-31G* empiricaldispersion=gd3bj guess=read geom=check nosymm
 integral(ultrafinegrid)
 ----------------------------------------------------------------------

 ------------------------------------------------------
 Candidate Structure: Conf:962 Charge calc in gas phase
 ------------------------------------------------------
 Structure from the checkpoint file:  "conf-962.chk"
 Charge =  1 Multiplicity = 1

                          Input orientation:
 ---------------------------------------------------------------------
 Center     Atomic      Atomic             Coordinates (Angstroms)
 Number     Number       Type             X           Y           Z
 ---------------------------------------------------------------------
      1          7           0       -5.758683    0.752979    3.524364
      2          1           0       -6.595643    1.236011    3.189891
      3          1           0       -5.656208   -0.187741    3.018232
      4          1           0       -5.839548    0.626883    4.536716
      5          6           0       -4.466621    1.433555    3.122921
      6          1           0       -4.719772    2.384642    2.651447
      7          6           0       -3.880535    0.441953    2.083575
      8          6           0       -3.547438    1.635612    4.331225
      9          1           0       -3.291918    0.649668    4.742967
     10          1           0       -2.608413    2.057094    3.953913
     11          8           0       -4.466340   -0.646146    1.936180
     12          6           0       -4.098411    2.552408    5.440545
     13          1           0       -5.025162    2.108666    5.844774
     14          6           0       -3.087645    2.611506    6.593496
     15          1           0       -2.147259    3.065159    6.259457
     16          1           0       -2.861612    1.612840    6.982728
     17          1           0       -3.476885    3.216066    7.418016
     18          6           0       -4.428510    3.957890    4.923169
     19          1           0       -3.541023    4.427714    4.482628
     20          1           0       -5.220950    3.959140    4.164625
     21          1           0       -4.769371    4.597155    5.742857
     22          7           0       -2.783948    0.829578    1.460641
     23          1           0       -2.345876    1.743091    1.608419
     24          6           0       -2.045209    0.045399    0.474131
     25          1           0       -1.972002   -0.989673    0.817734
     26          6           0       -0.664912    0.722095    0.431653
     27          6           0       -2.754215    0.093283   -0.909012
     28          1           0       -3.697769   -0.452524   -0.805977
     29          1           0       -3.004687    1.141901   -1.108013
     30          8           0       -0.579314    1.918627    0.723223
     31          6           0       -1.935417   -0.448685   -2.038417
     32          6           0       -1.899291   -1.743208   -2.503602
     33          1           0       -2.444723   -2.614291   -2.166953
     34          6           0       -1.024600    0.309882   -2.862788
     35          6           0       -0.483919   -0.588545   -3.822055
     36          6           0       -0.609338    1.652432   -2.874326
     37          1           0       -0.983363    2.353645   -2.133518
     38          7           0       -1.041425   -1.826871   -3.579377
     39          1           0       -0.784461   -2.681076   -4.049106
     40          6           0        0.810035    1.159492   -4.793187
     41          1           0        1.507646    1.515352   -5.545550
     42          6           0        0.430395   -0.177449   -4.795898
     43          1           0        0.822245   -0.873488   -5.532016
     44          6           0        0.302128    2.063880   -3.838195
     45          1           0        0.626905    3.099832   -3.862637
     46          7           0        0.347002   -0.070264    0.056771
     47          1           0        0.148699   -0.986933   -0.338756
     48          6           0        1.666753    0.425570   -0.287437
     49          1           0        1.595399    1.499763   -0.477769
     50          6           0        2.116476   -0.357114   -1.524253
     51          6           0        2.684217    0.168437    0.833070
     52          1           0        3.681794    0.467779    0.481202
     53          1           0        2.716753   -0.914343    1.026098
     54          8           0        1.706440   -1.499986   -1.719788
     55          8           0        2.268314    0.901498    1.971990
     56          1           0        2.920126    0.747543    2.672338
     57          7           0        3.006752    0.268859   -2.324720
     58          1           0        3.407886    1.137066   -1.996519
     59          6           0        3.790339   -0.500869   -3.272187
     60          1           0        3.089968   -1.107920   -3.852071
     61          6           0        4.751082   -1.425027   -2.495317
     62          6           0        4.568123    0.437163   -4.196672
     63          1           0        5.135901   -0.135923   -4.934513
     64          1           0        5.279236    1.041564   -3.621580
     65          1           0        3.879616    1.104334   -4.722959
     66          8           0        5.145706   -1.139869   -1.363682
     67          7           0        5.148029   -2.521074   -3.169947
     68          1           0        4.795974   -2.755694   -4.091981
     69          6           0        6.101505   -3.466101   -2.619613
     70          1           0        6.893882   -2.894232   -2.136118
     71          6           0        6.676479   -4.256192   -3.801034
     72          6           0        5.400438   -4.395670   -1.594726
     73          1           0        4.935236   -3.741757   -0.848778
     74          1           0        4.587227   -4.891703   -2.137458
     75          8           0        7.858336   -4.825784   -3.604827
     76          6           0        6.263099   -5.460774   -0.899359
     77          1           0        5.584922   -6.222951   -0.497310
     78          1           0        6.882865   -5.982380   -1.635964
     79          6           0        7.129195   -4.968996    0.272165
     80          1           0        7.662639   -5.833205    0.692797
     81          1           0        6.479055   -4.594414    1.073400
     82          6           0        8.144761   -3.868620   -0.041663
     83          1           0        7.628419   -2.936410   -0.291417
     84          1           0        8.743459   -3.667131    0.858183
     85          7           0        9.001098   -4.236334   -1.192663
     86          1           0        9.702644   -3.513249   -1.350185
     87          1           0        9.521242   -5.086442   -0.971185
     88          1           0        8.249024   -4.575365   -2.701798
     89          8           0        6.053681   -4.366115   -4.839795
 ---------------------------------------------------------------------

 SCF Done:  E(RB3LYP) =  -2042.68832381     A.U. after    1 cycles

 Alpha  occ. eigenvalues --  -19.26602 -19.21641 -19.21298 -19.20548 -19.19082
 Alpha  occ. eigenvalues --  -19.17373 -19.17352 -14.59502 -14.48919 -14.44654
 Alpha  occ. eigenvalues --  -14.44032 -14.43081 -14.41569 -14.41328 -10.43131
 Alpha  occ. eigenvalues --  -10.40333 -10.37525 -10.35944 -10.35774 -10.34365
 Alpha  occ. eigenvalues --  -10.33530 -10.33295 -10.32186 -10.30517 -10.30342
 Alpha  occ. eigenvalues --  -10.29876 -10.29164 -10.29069 -10.28792 -10.28412
 Alpha  occ. eigenvalues --  -10.28364 -10.28163 -10.28084 -10.25524 -10.25326
 Alpha  occ. eigenvalues --  -10.25274 -10.25000 -10.24948 -10.24836 -10.24749
 Alpha  occ. eigenvalues --  -10.24415 -10.24338 -10.24072  -1.19010  -1.13510
 Alpha  occ. eigenvalues --   -1.13237  -1.12609  -1.11189  -1.09065  -1.08701
 Alpha  occ. eigenvalues --   -1.05683  -1.05219  -1.04603  -1.00925  -0.99862
 Alpha  occ. eigenvalues --   -0.98271  -0.96925  -0.95117  -0.90648  -0.90087
 Alpha  occ. eigenvalues --   -0.88153  -0.86362  -0.85459  -0.84086  -0.82290
 Alpha  occ. eigenvalues --   -0.80470  -0.80404  -0.79961  -0.79407  -0.78659
 Alpha  occ. eigenvalues --   -0.75984  -0.75703  -0.73743  -0.72832  -0.72436
 Alpha  occ. eigenvalues --   -0.71674  -0.70052  -0.69361  -0.69076  -0.68801
 Alpha  occ. eigenvalues --   -0.67519  -0.65948  -0.65798  -0.65062  -0.64891
 Alpha  occ. eigenvalues --   -0.64378  -0.63499  -0.62979  -0.62683  -0.61585
 Alpha  occ. eigenvalues --   -0.60621  -0.59653  -0.59387  -0.58401  -0.57746
 Alpha  occ. eigenvalues --   -0.57687  -0.56837  -0.56195  -0.55636  -0.55294
 Alpha  occ. eigenvalues --   -0.54947  -0.54840  -0.54416  -0.53731  -0.53524
 Alpha  occ. eigenvalues --   -0.53261  -0.52881  -0.52597  -0.52486  -0.51534
 Alpha  occ. eigenvalues --   -0.51374  -0.51131  -0.50333  -0.50180  -0.49642
 Alpha  occ. eigenvalues --   -0.49511  -0.49373  -0.49015  -0.48904  -0.48600
 Alpha  occ. eigenvalues --   -0.48132  -0.47832  -0.47535  -0.47310  -0.46578
 Alpha  occ. eigenvalues --   -0.46530  -0.46139  -0.45761  -0.45677  -0.45628
 Alpha  occ. eigenvalues --   -0.45128  -0.45000  -0.44940  -0.44726  -0.44456
 Alpha  occ. eigenvalues --   -0.44149  -0.43385  -0.43086  -0.42245  -0.41820
 Alpha  occ. eigenvalues --   -0.41233  -0.41081  -0.40658  -0.40038  -0.39703
 Alpha  occ. eigenvalues --   -0.39481  -0.38998  -0.38874  -0.38196  -0.35173
 Alpha  occ. eigenvalues --   -0.34600  -0.34454  -0.34198  -0.33840  -0.33732
 Alpha  occ. eigenvalues --   -0.33084  -0.32414  -0.31723  -0.30810  -0.30584
 Alpha  occ. eigenvalues --   -0.28578  -0.27129
 Alpha virt. eigenvalues --   -0.11751  -0.11200  -0.07842  -0.06735  -0.06332
 Alpha virt. eigenvalues --   -0.05171  -0.04133  -0.03738  -0.03494  -0.02479
 Alpha virt. eigenvalues --   -0.02015  -0.01277  -0.00900  -0.00637   0.00036

 Mulliken charges:
               1
     1  N   -0.761097
     2  H    0.414165
     3  H    0.434704
     4  H    0.410769
     5  C   -0.115862
     6  H    0.217784
     7  C    0.659738
     8  C   -0.296282
     9  H    0.172624
    10  H    0.197498
    11  O   -0.552726
    12  C   -0.098044
    13  H    0.112743
    14  C   -0.447731
    15  H    0.167761
    16  H    0.158624
    17  H    0.174097
    18  C   -0.454380
    19  H    0.170751
    20  H    0.129356
    21  H    0.183523
    22  N   -0.608048
    23  H    0.373456
    24  C   -0.053253
    25  H    0.184710
    26  C    0.642548
    27  C   -0.351734
    28  H    0.174905
    29  H    0.161777
    30  O   -0.553643
    31  C    0.032272
    32  C    0.004747
    33  H    0.160255
    34  C    0.081822
    35  C    0.338348
    36  C   -0.220531
    37  H    0.136261
    38  N   -0.682061
    39  H    0.340012
    40  C   -0.147743
    41  H    0.135100
    42  C   -0.164324
    43  H    0.136202
    44  C   -0.146394
    45  H    0.130805
    46  N   -0.592367
    47  H    0.362832
    48  C   -0.084359
    49  H    0.189730
    50  C    0.654867
    51  C   -0.021480
    52  H    0.154312
    53  H    0.141104
    54  O   -0.554283
    55  O   -0.614733
    56  H    0.400713
    57  N   -0.574984
    58  H    0.336986
    59  C   -0.054916
    60  H    0.175285
    61  C    0.643338
    62  C   -0.477927
    63  H    0.176044
    64  H    0.163024
    65  H    0.172422
    66  O   -0.560302
    67  N   -0.613528
    68  H    0.351666
    69  C   -0.062086
    70  H    0.166776
    71  C    0.601775
    72  C   -0.266368
    73  H    0.168321
    74  H    0.153106
    75  O   -0.610876
    76  C   -0.284250
    77  H    0.148460
    78  H    0.154604
    79  C   -0.269077
    80  H    0.141271
    81  H    0.147663
    82  C   -0.155291
    83  H    0.179669
    84  H    0.144718
    85  N   -0.776692
    86  H    0.334602
    87  H    0.332324
    88  H    0.477361
    89  O   -0.482956
 Sum of Mulliken charges =   1.00000

 Dipole moment (field-independent basis, Debye):
    X=            -10.6133    Y=              2.4331    Z=             14.0076  Tot=             17.7419
 Quadrupole moment (field-independent basis, Debye-Ang):
   XX=            -67.1971   YY=           -231.1102   ZZ=           -190.1308
   XY=            -40.4759   XZ=            -58.1867   YZ=              5.6912

 Normal termination of Gaussian 16 at Mon Jul  4 15:09:30 2022.
