 Gaussian 16, Revision C.01,
 Gaussian 16:  ES64L-G16RevC.01  3-Jul-2019

 ----------------------------------------------------------------------
 # B3LYP/6-31G* empiricaldispersion=gd3bj guess=read geom=check nosymm
 integral(ultrafinegrid)
 ----------------------------------------------------------------------

 ------------------------------------------------------
 Candidate Structure: Conf:472 Charge calc in gas phase
 ------------------------------------------------------
 Structure from the checkpoint file:  "conf-472.chk"
 Charge =  1 Multiplicity = 1

                          Input orientation:
 ---------------------------------------------------------------------
 Center     Atomic      Atomic             Coordinates (Angstroms)
 Number     Number       Type             X           Y           Z
 ---------------------------------------------------------------------
      1          7           0       -2.682962    3.913838    2.744931
      2          1           0       -2.416470    4.783766    2.277778
      3          1           0       -3.630738    3.583745    2.368134
      4          1           0       -2.712051    4.081613    3.753935
      5          6           0       -1.803173    2.738929    2.372247
      6          1           0       -0.954265    3.119401    1.802083
      7          6           0       -2.740504    1.896225    1.469354
      8          6           0       -1.342511    1.975532    3.617372
      9          1           0       -2.229215    1.584080    4.134548
     10          1           0       -0.785072    1.098953    3.266966
     11          8           0       -3.935309    2.242393    1.403388
     12          6           0       -0.458164    2.771770    4.596465
     13          1           0       -1.032391    3.634837    4.977413
     14          6           0       -0.121964    1.887345    5.804412
     15          1           0        0.470914    1.019325    5.493397
     16          1           0       -1.027381    1.518869    6.298900
     17          1           0        0.463191    2.445703    6.541135
     18          6           0        0.816457    3.302786    3.928965
     19          1           0        1.405225    2.480465    3.505441
     20          1           0        0.611063    4.017623    3.122890
     21          1           0        1.445658    3.817978    4.660726
     22          7           0       -2.184804    0.867813    0.860684
     23          1           0       -1.199478    0.607721    0.977569
     24          6           0       -2.872290   -0.063681   -0.025441
     25          1           0       -3.798626   -0.404035    0.446214
     26          6           0       -1.863715   -1.209748   -0.199874
     27          6           0       -3.194436    0.589574   -1.402540
     28          1           0       -3.572189    1.597586   -1.196643
     29          1           0       -2.263191    0.684663   -1.969298
     30          8           0       -0.711520   -1.080791    0.231651
     31          6           0       -4.210229   -0.180728   -2.182077
     32          6           0       -3.999055   -0.908252   -3.331695
     33          1           0       -3.071066   -1.078245   -3.860296
     34          6           0       -5.610889   -0.302635   -1.857992
     35          6           0       -6.198934   -1.123027   -2.859545
     36          6           0       -6.417413    0.204851   -0.825194
     37          1           0       -5.991279    0.844913   -0.056449
     38          7           0       -5.189540   -1.479515   -3.736657
     39          1           0       -5.316410   -2.010342   -4.584275
     40          6           0       -8.331844   -0.933043   -1.816563
     41          1           0       -9.392150   -1.164190   -1.781337
     42          6           0       -7.558429   -1.445413   -2.852124
     43          1           0       -7.996790   -2.070357   -3.624961
     44          6           0       -7.768679   -0.116869   -0.814490
     45          1           0       -8.407233    0.267762   -0.024724
     46          7           0       -2.285026   -2.279209   -0.891717
     47          1           0       -3.201199   -2.232928   -1.323052
     48          6           0       -1.303013   -3.170826   -1.502394
     49          1           0       -0.754514   -3.684430   -0.707559
     50          6           0       -0.353578   -2.313989   -2.373742
     51          6           0       -2.019837   -4.191788   -2.376808
     52          1           0       -1.265651   -4.872019   -2.799005
     53          1           0       -2.502496   -3.660905   -3.211124
     54          8           0       -0.825687   -1.486154   -3.169452
     55          8           0       -2.966251   -4.871463   -1.567881
     56          1           0       -3.434084   -5.512337   -2.124177
     57          7           0        0.954420   -2.539958   -2.192747
     58          1           0        1.296567   -3.159061   -1.460372
     59          6           0        2.004266   -1.690684   -2.733257
     60          1           0        1.952349   -1.691650   -3.827498
     61          6           0        3.334581   -2.309805   -2.265691
     62          6           0        1.892400   -0.244467   -2.212597
     63          1           0        2.742596    0.357660   -2.546846
     64          1           0        1.881752   -0.255282   -1.117731
     65          1           0        0.962686    0.202878   -2.569993
     66          8           0        3.341911   -3.209812   -1.413145
     67          7           0        4.422974   -1.752825   -2.815003
     68          1           0        4.335714   -0.844650   -3.304155
     69          6           0        5.718906   -1.709004   -2.151928
     70          1           0        5.572219   -1.807486   -1.068648
     71          6           0        6.326704   -0.272293   -2.458578
     72          6           0        6.701749   -2.776075   -2.611344
     73          1           0        6.813531   -2.686423   -3.701799
     74          1           0        7.659366   -2.475266   -2.165846
     75          8           0        7.504836   -0.120171   -2.089540
     76          6           0        6.341557   -4.216092   -2.227011
     77          1           0        5.864256   -4.236817   -1.243041
     78          1           0        5.603547   -4.635247   -2.921244
     79          6           0        7.591927   -5.115802   -2.175988
     80          1           0        7.326632   -6.156199   -1.942050
     81          1           0        8.246116   -4.747573   -1.372021
     82          6           0        8.352446   -5.058211   -3.490595
     83          1           0        7.832404   -5.562069   -4.308619
     84          1           0        8.583846   -4.033928   -3.784283
     85          7           0        9.707855   -5.761122   -3.349091
     86          1           0       10.251357   -5.746560   -4.219918
     87          1           0       10.266082   -5.299143   -2.621061
     88          1           0        9.585884   -6.739702   -3.063855
     89          8           0        5.533308    0.508899   -3.051858
 ---------------------------------------------------------------------

 SCF Done:  E(RB3LYP) =  -2042.59521919     A.U. after    1 cycles

 Alpha  occ. eigenvalues --  -19.25429 -19.21287 -19.19987 -19.16550 -19.14874
 Alpha  occ. eigenvalues --  -19.06994 -19.06064 -14.61750 -14.58366 -14.47469
 Alpha  occ. eigenvalues --  -14.43779 -14.43035 -14.40374 -14.36301 -10.41825
 Alpha  occ. eigenvalues --  -10.39050 -10.37777 -10.36582 -10.33825 -10.32242
 Alpha  occ. eigenvalues --  -10.32115 -10.31255 -10.31042 -10.30423 -10.30094
 Alpha  occ. eigenvalues --  -10.29628 -10.27790 -10.27436 -10.27428 -10.27098
 Alpha  occ. eigenvalues --  -10.26957 -10.26695 -10.24958 -10.24916 -10.24258
 Alpha  occ. eigenvalues --  -10.24179 -10.23970 -10.23897 -10.23681 -10.23359
 Alpha  occ. eigenvalues --  -10.22351 -10.21945 -10.21063  -1.17748  -1.15640
 Alpha  occ. eigenvalues --   -1.12456  -1.11883  -1.08832  -1.07942  -1.06117
 Alpha  occ. eigenvalues --   -1.04407  -1.03524  -1.00062  -0.99813  -0.96874
 Alpha  occ. eigenvalues --   -0.93936  -0.93919  -0.91494  -0.91101  -0.89530
 Alpha  occ. eigenvalues --   -0.88896  -0.86923  -0.84137  -0.82842  -0.82186
 Alpha  occ. eigenvalues --   -0.79908  -0.79237  -0.78884  -0.78257  -0.77539
 Alpha  occ. eigenvalues --   -0.77215  -0.74751  -0.74286  -0.73995  -0.72475
 Alpha  occ. eigenvalues --   -0.71486  -0.71267  -0.70154  -0.69508  -0.68251
 Alpha  occ. eigenvalues --   -0.67895  -0.67526  -0.66139  -0.64808  -0.64141
 Alpha  occ. eigenvalues --   -0.63726  -0.63232  -0.62193  -0.61980  -0.61630
 Alpha  occ. eigenvalues --   -0.60400  -0.59258  -0.58996  -0.58349  -0.57890
 Alpha  occ. eigenvalues --   -0.57729  -0.56713  -0.55733  -0.55681  -0.55258
 Alpha  occ. eigenvalues --   -0.54112  -0.53877  -0.53130  -0.52784  -0.52463
 Alpha  occ. eigenvalues --   -0.52194  -0.51779  -0.51491  -0.50961  -0.50920
 Alpha  occ. eigenvalues --   -0.50205  -0.49643  -0.49043  -0.48675  -0.48549
 Alpha  occ. eigenvalues --   -0.48396  -0.48249  -0.48182  -0.47911  -0.47482
 Alpha  occ. eigenvalues --   -0.47305  -0.46772  -0.46298  -0.45925  -0.45636
 Alpha  occ. eigenvalues --   -0.45374  -0.44409  -0.44038  -0.43932  -0.43871
 Alpha  occ. eigenvalues --   -0.43842  -0.43595  -0.43219  -0.42841  -0.42430
 Alpha  occ. eigenvalues --   -0.41135  -0.40670  -0.40537  -0.40024  -0.39933
 Alpha  occ. eigenvalues --   -0.39578  -0.38795  -0.38678  -0.38639  -0.38112
 Alpha  occ. eigenvalues --   -0.37524  -0.37295  -0.36310  -0.34475  -0.34426
 Alpha  occ. eigenvalues --   -0.33929  -0.33524  -0.32745  -0.30729  -0.29821
 Alpha  occ. eigenvalues --   -0.28844  -0.27911  -0.27731  -0.25989  -0.22210
 Alpha  occ. eigenvalues --   -0.21806  -0.20378
 Alpha virt. eigenvalues --   -0.12379  -0.10440  -0.10094  -0.06658  -0.05833
 Alpha virt. eigenvalues --   -0.05763  -0.05605  -0.05381  -0.03356  -0.02816
 Alpha virt. eigenvalues --   -0.02536  -0.02373  -0.00854  -0.00553  -0.00051

 Mulliken charges:
               1
     1  N   -0.760636
     2  H    0.414546
     3  H    0.433449
     4  H    0.409600
     5  C   -0.118140
     6  H    0.221348
     7  C    0.662802
     8  C   -0.296454
     9  H    0.171584
    10  H    0.197825
    11  O   -0.553283
    12  C   -0.098247
    13  H    0.111084
    14  C   -0.447452
    15  H    0.167906
    16  H    0.157292
    17  H    0.172393
    18  C   -0.454557
    19  H    0.174433
    20  H    0.131675
    21  H    0.181737
    22  N   -0.613962
    23  H    0.378496
    24  C   -0.066722
    25  H    0.202050
    26  C    0.635312
    27  C   -0.361802
    28  H    0.170966
    29  H    0.191329
    30  O   -0.554527
    31  C    0.000870
    32  C   -0.012941
    33  H    0.209842
    34  C    0.090188
    35  C    0.311587
    36  C   -0.224427
    37  H    0.137900
    38  N   -0.690142
    39  H    0.334626
    40  C   -0.148714
    41  H    0.135841
    42  C   -0.160519
    43  H    0.132977
    44  C   -0.140330
    45  H    0.127653
    46  N   -0.586067
    47  H    0.364396
    48  C   -0.039085
    49  H    0.178108
    50  C    0.631555
    51  C   -0.067352
    52  H    0.150678
    53  H    0.143340
    54  O   -0.566242
    55  O   -0.614970
    56  H    0.404229
    57  N   -0.606030
    58  H    0.356131
    59  C   -0.032051
    60  H    0.172943
    61  C    0.592287
    62  C   -0.475837
    63  H    0.194764
    64  H    0.151194
    65  H    0.167264
    66  O   -0.571218
    67  N   -0.603644
    68  H    0.360012
    69  C   -0.082500
    70  H    0.142332
    71  C    0.582108
    72  C   -0.275547
    73  H    0.123930
    74  H    0.154298
    75  O   -0.593447
    76  C   -0.258496
    77  H    0.187242
    78  H    0.152915
    79  C   -0.299468
    80  H    0.152024
    81  H    0.159510
    82  C   -0.205125
    83  H    0.217868
    84  H    0.246777
    85  N   -0.730569
    86  H    0.424953
    87  H    0.425741
    88  H    0.418840
    89  O   -0.612249
 Sum of Mulliken charges =   1.00000

 Dipole moment (field-independent basis, Debye):
    X=              9.2171    Y=            -13.4696    Z=              1.2970  Tot=             16.3728
 Quadrupole moment (field-independent basis, Debye-Ang):
   XX=             14.6116   YY=            -56.0691   ZZ=           -164.0857
   XY=           -232.8067   XZ=            -82.8578   YZ=            143.4267

 Normal termination of Gaussian 16 at Mon Jul  4 15:07:22 2022.
