 Gaussian 16, Revision C.01,
 Gaussian 16:  ES64L-G16RevC.01  3-Jul-2019

 ----------------------------------------------------------------------
 # B3LYP/6-31G* empiricaldispersion=gd3bj guess=read geom=check nosymm
 integral(ultrafinegrid)
 ----------------------------------------------------------------------

 ------------------------------------------------------
 Candidate Structure: Conf:771 Charge calc in gas phase
 ------------------------------------------------------
 Structure from the checkpoint file:  "conf-771.chk"
 Charge =  1 Multiplicity = 1

                          Input orientation:
 ---------------------------------------------------------------------
 Center     Atomic      Atomic             Coordinates (Angstroms)
 Number     Number       Type             X           Y           Z
 ---------------------------------------------------------------------
      1          7           0       -5.485028   -0.701766    1.812709
      2          1           0       -5.801311   -0.101882    1.020988
      3          1           0       -5.364608   -1.659646    1.427373
      4          1           0       -6.179548   -0.689719    2.564279
      5          6           0       -4.102144   -0.306290    2.279158
      6          1           0       -4.067931    0.783968    2.287793
      7          6           0       -3.206275   -0.908685    1.184569
      8          6           0       -3.817831   -0.918264    3.654205
      9          1           0       -4.539211   -0.513204    4.378472
     10          1           0       -3.987595   -2.000320    3.582842
     11          8           0       -3.554538   -1.981297    0.677895
     12          6           0       -2.383643   -0.669410    4.163386
     13          1           0       -1.684331   -1.103292    3.439574
     14          6           0       -2.078438    0.824862    4.330916
     15          1           0       -2.772928    1.293355    5.039495
     16          1           0       -2.139592    1.387270    3.389988
     17          1           0       -1.064718    0.965197    4.717598
     18          6           0       -2.180606   -1.414888    5.487558
     19          1           0       -2.835284   -1.020559    6.274349
     20          1           0       -2.392831   -2.484382    5.377544
     21          1           0       -1.145927   -1.312412    5.827642
     22          7           0       -2.123866   -0.207676    0.845535
     23          1           0       -1.979426    0.698597    1.272638
     24          6           0       -1.383752   -0.459489   -0.395837
     25          1           0       -1.937172   -1.247356   -0.910849
     26          6           0        0.005269   -0.992493    0.007907
     27          6           0       -1.309210    0.830837   -1.256521
     28          1           0       -0.316959    1.267836   -1.112280
     29          1           0       -1.376222    0.536981   -2.309906
     30          8           0        1.010578   -0.291035   -0.035149
     31          6           0       -2.369190    1.832360   -0.896454
     32          6           0       -2.149165    3.086729   -0.380051
     33          1           0       -1.215472    3.614102   -0.240288
     34          6           0       -3.800230    1.629735   -0.862849
     35          6           0       -4.381919    2.803208   -0.294590
     36          6           0       -4.641472    0.565086   -1.222638
     37          1           0       -4.235027   -0.334400   -1.674479
     38          7           0       -3.349920    3.672205   -0.016766
     39          1           0       -3.456759    4.623746    0.301873
     40          6           0       -6.564576    1.843362   -0.414044
     41          1           0       -7.638713    1.914214   -0.271487
     42          6           0       -5.755382    2.919022   -0.058253
     43          1           0       -6.180671    3.819755    0.374181
     44          6           0       -6.014772    0.677441   -0.997345
     45          1           0       -6.678309   -0.120015   -1.322210
     46          7           0       -0.020003   -2.258769    0.480425
     47          1           0       -0.920315   -2.707348    0.602030
     48          6           0        1.095733   -2.805734    1.256013
     49          1           0        1.562384   -1.966905    1.784856
     50          6           0        2.145177   -3.476141    0.340066
     51          6           0        0.562992   -3.824049    2.253063
     52          1           0        1.383295   -4.134576    2.909777
     53          1           0        0.214703   -4.713621    1.714633
     54          8           0        2.315568   -4.694206    0.359092
     55          8           0       -0.502411   -3.206832    2.986698
     56          1           0       -0.820577   -3.858019    3.629286
     57          7           0        2.825916   -2.623617   -0.449099
     58          1           0        2.651314   -1.618896   -0.429859
     59          6           0        3.821917   -3.088339   -1.396999
     60          1           0        4.465389   -3.818920   -0.892907
     61          6           0        4.644747   -1.860500   -1.809540
     62          6           0        3.178957   -3.757234   -2.624103
     63          1           0        3.942880   -4.123367   -3.317209
     64          1           0        2.544874   -3.039251   -3.154356
     65          1           0        2.570787   -4.603317   -2.295731
     66          8           0        4.239812   -0.717199   -1.601848
     67          7           0        5.803079   -2.137932   -2.444394
     68          1           0        6.125577   -3.089900   -2.576580
     69          6           0        6.673942   -1.108941   -2.982112
     70          1           0        6.063134   -0.318336   -3.422789
     71          6           0        7.545317   -1.737632   -4.053838
     72          6           0        7.582894   -0.492023   -1.871375
     73          1           0        6.954488    0.208685   -1.314072
     74          1           0        7.844036   -1.301638   -1.179288
     75          8           0        7.898647   -2.906939   -4.002911
     76          6           0        8.873460    0.195411   -2.364051
     77          1           0        8.673217    0.713205   -3.306299
     78          1           0        9.153154    0.969570   -1.640851
     79          6           0       10.069018   -0.782928   -2.527979
     80          1           0        9.707854   -1.816114   -2.589326
     81          1           0       10.677178   -0.742388   -1.617189
     82          6           0       10.994683   -0.529537   -3.732098
     83          1           0       11.014519    0.537111   -3.980911
     84          1           0       12.022721   -0.819062   -3.474687
     85          7           0       10.540022   -1.260053   -4.943332
     86          1           0       11.140058   -1.039001   -5.736602
     87          1           0       10.617086   -2.265164   -4.785592
     88          1           0        8.934498   -1.073730   -5.194783
     89          8           0        7.958672   -0.846400   -4.942968
 ---------------------------------------------------------------------

 SCF Done:  E(RB3LYP) =  -2042.68394313     A.U. after    1 cycles

 Alpha  occ. eigenvalues --  -19.26161 -19.23894 -19.21095 -19.20533 -19.17623
 Alpha  occ. eigenvalues --  -19.17042 -19.16532 -14.59331 -14.49691 -14.49087
 Alpha  occ. eigenvalues --  -14.44982 -14.40812 -14.40663 -14.40094 -10.43081
 Alpha  occ. eigenvalues --  -10.39909 -10.37961 -10.35423 -10.34391 -10.34381
 Alpha  occ. eigenvalues --  -10.33686 -10.33643 -10.32967 -10.32763 -10.31341
 Alpha  occ. eigenvalues --  -10.30806 -10.30637 -10.30483 -10.30439 -10.30247
 Alpha  occ. eigenvalues --  -10.30128 -10.29999 -10.29362 -10.29283 -10.28505
 Alpha  occ. eigenvalues --  -10.28475 -10.27777 -10.27337 -10.27200 -10.23474
 Alpha  occ. eigenvalues --  -10.23420 -10.23198 -10.22933  -1.18709  -1.13601
 Alpha  occ. eigenvalues --   -1.13008  -1.12913  -1.10800  -1.09131  -1.09075
 Alpha  occ. eigenvalues --   -1.08290  -1.06549  -1.04412  -1.01298  -0.97615
 Alpha  occ. eigenvalues --   -0.97369  -0.95664  -0.95601  -0.94595  -0.91499
 Alpha  occ. eigenvalues --   -0.88873  -0.86788  -0.85332  -0.85056  -0.84532
 Alpha  occ. eigenvalues --   -0.83079  -0.81951  -0.80040  -0.79251  -0.78678
 Alpha  occ. eigenvalues --   -0.76697  -0.74557  -0.73772  -0.73671  -0.73156
 Alpha  occ. eigenvalues --   -0.72432  -0.71825  -0.70661  -0.69750  -0.68429
 Alpha  occ. eigenvalues --   -0.67741  -0.67568  -0.66822  -0.65296  -0.65148
 Alpha  occ. eigenvalues --   -0.64182  -0.63953  -0.62910  -0.62652  -0.62137
 Alpha  occ. eigenvalues --   -0.61475  -0.60823  -0.59991  -0.59325  -0.58834
 Alpha  occ. eigenvalues --   -0.58169  -0.57876  -0.57076  -0.56150  -0.55605
 Alpha  occ. eigenvalues --   -0.55114  -0.54815  -0.54657  -0.54590  -0.54375
 Alpha  occ. eigenvalues --   -0.53773  -0.53457  -0.53031  -0.52338  -0.52198
 Alpha  occ. eigenvalues --   -0.51970  -0.51353  -0.51071  -0.50495  -0.50282
 Alpha  occ. eigenvalues --   -0.50153  -0.50004  -0.49885  -0.49137  -0.48860
 Alpha  occ. eigenvalues --   -0.48514  -0.48044  -0.47979  -0.47867  -0.47442
 Alpha  occ. eigenvalues --   -0.47342  -0.46665  -0.46149  -0.45849  -0.45812
 Alpha  occ. eigenvalues --   -0.45349  -0.45297  -0.44860  -0.44432  -0.44163
 Alpha  occ. eigenvalues --   -0.43945  -0.43818  -0.43092  -0.42598  -0.41946
 Alpha  occ. eigenvalues --   -0.41896  -0.41286  -0.40689  -0.40503  -0.40198
 Alpha  occ. eigenvalues --   -0.39927  -0.38732  -0.38463  -0.38092  -0.37690
 Alpha  occ. eigenvalues --   -0.36092  -0.35658  -0.34550  -0.34200  -0.34048
 Alpha  occ. eigenvalues --   -0.32339  -0.31805  -0.31616  -0.31073  -0.30574
 Alpha  occ. eigenvalues --   -0.30001  -0.29478
 Alpha virt. eigenvalues --   -0.13347  -0.12257  -0.10332  -0.08765  -0.07775
 Alpha virt. eigenvalues --   -0.05871  -0.04754  -0.03997  -0.03660  -0.03400
 Alpha virt. eigenvalues --   -0.03247  -0.01983  -0.01929  -0.01491  -0.00777

 Mulliken charges:
               1
     1  N   -0.755977
     2  H    0.415615
     3  H    0.417801
     4  H    0.404365
     5  C   -0.126406
     6  H    0.206505
     7  C    0.663331
     8  C   -0.275192
     9  H    0.156629
    10  H    0.169547
    11  O   -0.557540
    12  C   -0.113379
    13  H    0.192746
    14  C   -0.460394
    15  H    0.156866
    16  H    0.118833
    17  H    0.183597
    18  C   -0.446352
    19  H    0.153124
    20  H    0.143363
    21  H    0.173681
    22  N   -0.574234
    23  H    0.358894
    24  C   -0.088347
    25  H    0.202041
    26  C    0.630847
    27  C   -0.387145
    28  H    0.211492
    29  H    0.186683
    30  O   -0.507887
    31  C    0.037637
    32  C    0.001793
    33  H    0.189505
    34  C    0.082172
    35  C    0.314562
    36  C   -0.218624
    37  H    0.162346
    38  N   -0.681841
    39  H    0.350016
    40  C   -0.167523
    41  H    0.158714
    42  C   -0.163259
    43  H    0.158185
    44  C   -0.236777
    45  H    0.158886
    46  N   -0.588507
    47  H    0.353974
    48  C   -0.076201
    49  H    0.186281
    50  C    0.639387
    51  C   -0.071391
    52  H    0.168301
    53  H    0.167829
    54  O   -0.537411
    55  O   -0.640882
    56  H    0.407042
    57  N   -0.635816
    58  H    0.391114
    59  C   -0.036608
    60  H    0.174557
    61  C    0.615942
    62  C   -0.449291
    63  H    0.156310
    64  H    0.153090
    65  H    0.184693
    66  O   -0.538426
    67  N   -0.622530
    68  H    0.348502
    69  C   -0.000225
    70  H    0.185259
    71  C    0.572234
    72  C   -0.281222
    73  H    0.171108
    74  H    0.146069
    75  O   -0.507908
    76  C   -0.284824
    77  H    0.169004
    78  H    0.142865
    79  C   -0.292326
    80  H    0.163865
    81  H    0.149306
    82  C   -0.141385
    83  H    0.162379
    84  H    0.146735
    85  N   -0.778104
    86  H    0.332105
    87  H    0.341722
    88  H    0.456851
    89  O   -0.602370
 Sum of Mulliken charges =   1.00000

 Dipole moment (field-independent basis, Debye):
    X=            -13.1359    Y=              2.4268    Z=              7.5095  Tot=             15.3243
 Quadrupole moment (field-independent basis, Debye-Ang):
   XX=            -32.1772   YY=           -230.8351   ZZ=           -206.7768
   XY=             -9.2869   XZ=            -75.3403   YZ=             -5.6863

 Normal termination of Gaussian 16 at Mon Jul  4 15:08:27 2022.
