 Gaussian 16, Revision C.01,
 Gaussian 16:  ES64L-G16RevC.01  3-Jul-2019

 ----------------------------------------------------------------------
 # B3LYP/6-31G* empiricaldispersion=gd3bj guess=read geom=check nosymm
 integral(ultrafinegrid)
 ----------------------------------------------------------------------

 ------------------------------------------------------
 Candidate Structure: Conf:772 Charge calc in gas phase
 ------------------------------------------------------
 Structure from the checkpoint file:  "conf-772.chk"
 Charge =  1 Multiplicity = 1

                          Input orientation:
 ---------------------------------------------------------------------
 Center     Atomic      Atomic             Coordinates (Angstroms)
 Number     Number       Type             X           Y           Z
 ---------------------------------------------------------------------
      1          7           0       -0.235184    3.673472    1.269950
      2          1           0        0.316771    3.548919    0.330396
      3          1           0       -1.226554    3.870695    1.097880
      4          1           0        0.202479    4.431966    1.795753
      5          6           0       -0.114898    2.362726    1.998293
      6          1           0        0.955501    2.159541    2.030964
      7          6           0       -0.859407    1.387951    1.077871
      8          6           0       -0.725384    2.426147    3.395908
      9          1           0       -1.810154    2.552811    3.296568
     10          1           0       -0.568328    1.442001    3.856869
     11          8           0       -2.041815    1.603335    0.807103
     12          6           0       -0.138861    3.511078    4.319086
     13          1           0       -0.381528    4.499328    3.894361
     14          6           0       -0.819666    3.436001    5.691309
     15          1           0       -0.597935    2.479867    6.180604
     16          1           0       -1.908148    3.525202    5.604970
     17          1           0       -0.464823    4.237394    6.347206
     18          6           0        1.387139    3.404801    4.451090
     19          1           0        1.669780    2.417081    4.837063
     20          1           0        1.910286    3.555088    3.499731
     21          1           0        1.761779    4.153490    5.156811
     22          7           0       -0.116017    0.388111    0.578163
     23          1           0        0.882536    0.344504    0.758663
     24          6           0       -0.548598   -0.469002   -0.507851
     25          1           0       -1.429482   -1.044777   -0.208933
     26          6           0        0.639165   -1.377896   -0.819109
     27          6           0       -0.894286    0.346790   -1.803596
     28          1           0       -1.436020    1.236815   -1.475696
     29          1           0        0.040814    0.684824   -2.261609
     30          8           0        1.758558   -1.141021   -0.341727
     31          6           0       -1.730036   -0.428372   -2.770866
     32          6           0       -1.371215   -0.941750   -4.000742
     33          1           0       -0.431305   -0.888961   -4.532682
     34          6           0       -3.102325   -0.815890   -2.544852
     35          6           0       -3.517486   -1.567152   -3.676678
     36          6           0       -4.007882   -0.589512   -1.493292
     37          1           0       -3.713616    0.002497   -0.630463
     38          7           0       -2.439666   -1.628520   -4.542297
     39          1           0       -2.442569   -2.067234   -5.450374
     40          6           0       -5.677993   -1.869893   -2.725842
     41          1           0       -6.686045   -2.270163   -2.774273
     42          6           0       -4.804928   -2.101971   -3.781743
     43          1           0       -5.112655   -2.673920   -4.652128
     44          6           0       -5.286095   -1.121470   -1.596002
     45          1           0       -6.002294   -0.956377   -0.796868
     46          7           0        0.403862   -2.354406   -1.723590
     47          1           0       -0.479059   -2.275565   -2.226977
     48          6           0        1.494940   -3.003144   -2.466462
     49          1           0        2.281268   -3.234160   -1.742771
     50          6           0        2.044331   -2.042947   -3.545800
     51          6           0        0.977915   -4.307011   -3.074191
     52          1           0        1.759210   -4.750557   -3.693569
     53          1           0        0.125005   -4.088619   -3.735819
     54          8           0        1.911105   -2.251133   -4.746116
     55          8           0        0.656740   -5.251121   -2.073778
     56          1           0       -0.028594   -4.862577   -1.507098
     57          7           0        2.648798   -0.935213   -3.029657
     58          1           0        2.731915   -0.884628   -2.017344
     59          6           0        3.268829    0.104012   -3.854840
     60          1           0        4.073131   -0.338304   -4.450665
     61          6           0        3.939027    1.078656   -2.887048
     62          6           0        2.273699    0.800741   -4.793617
     63          1           0        2.765429    1.617648   -5.331340
     64          1           0        1.418850    1.209724   -4.244384
     65          1           0        1.901706    0.075432   -5.517842
     66          8           0        5.185662    1.106443   -2.778637
     67          7           0        3.133830    1.845012   -2.150755
     68          1           0        2.123113    1.833572   -2.257012
     69          6           0        3.611701    2.757186   -1.123263
     70          1           0        4.337163    2.225249   -0.501496
     71          6           0        2.426888    3.135169   -0.209923
     72          6           0        4.232488    4.027773   -1.751121
     73          1           0        4.864327    3.734854   -2.599254
     74          1           0        3.406492    4.606887   -2.177781
     75          8           0        2.682144    3.512410    0.947665
     76          6           0        5.023472    4.893649   -0.757347
     77          1           0        4.962992    5.940169   -1.074584
     78          1           0        4.541392    4.838648    0.224609
     79          6           0        6.517975    4.564096   -0.617764
     80          1           0        6.955404    5.272994    0.093938
     81          1           0        7.038710    4.747001   -1.569848
     82          6           0        6.886477    3.165213   -0.111009
     83          1           0        7.858576    3.177461    0.387647
     84          1           0        6.146703    2.773088    0.590377
     85          7           0        7.015778    2.155089   -1.230649
     86          1           0        7.394736    1.269344   -0.880911
     87          1           0        6.113609    1.885723   -1.763067
     88          1           0        7.671935    2.495727   -1.940595
     89          8           0        1.274643    3.050327   -0.759684
 ---------------------------------------------------------------------

 SCF Done:  E(RB3LYP) =  -2042.71727947     A.U. after    1 cycles

 Alpha  occ. eigenvalues --  -19.25024 -19.22854 -19.21667 -19.21472 -19.21124
 Alpha  occ. eigenvalues --  -19.20674 -19.19696 -14.57320 -14.52116 -14.47665
 Alpha  occ. eigenvalues --  -14.46087 -14.45813 -14.45311 -14.44911 -10.41004
 Alpha  occ. eigenvalues --  -10.39363 -10.38783 -10.38168 -10.37864 -10.37707
 Alpha  occ. eigenvalues --  -10.34355 -10.33566 -10.33508 -10.33109 -10.31880
 Alpha  occ. eigenvalues --  -10.31812 -10.30812 -10.29663 -10.29603 -10.29044
 Alpha  occ. eigenvalues --  -10.28747 -10.28400 -10.28305 -10.28214 -10.27362
 Alpha  occ. eigenvalues --  -10.26181 -10.25475 -10.25310 -10.25234 -10.25140
 Alpha  occ. eigenvalues --  -10.24799 -10.24738 -10.24284  -1.16228  -1.14829
 Alpha  occ. eigenvalues --   -1.14069  -1.13545  -1.12434  -1.12058  -1.09151
 Alpha  occ. eigenvalues --   -1.07310  -1.05279  -1.05124  -1.03991  -1.02856
 Alpha  occ. eigenvalues --   -1.02557  -1.01342  -0.92557  -0.90774  -0.90413
 Alpha  occ. eigenvalues --   -0.89408  -0.88818  -0.86638  -0.85481  -0.84230
 Alpha  occ. eigenvalues --   -0.82230  -0.81906  -0.80063  -0.79060  -0.77398
 Alpha  occ. eigenvalues --   -0.76598  -0.76183  -0.75458  -0.74274  -0.72288
 Alpha  occ. eigenvalues --   -0.71717  -0.70620  -0.70072  -0.69330  -0.68868
 Alpha  occ. eigenvalues --   -0.68458  -0.68115  -0.67566  -0.66905  -0.66193
 Alpha  occ. eigenvalues --   -0.66153  -0.65256  -0.64697  -0.63502  -0.63310
 Alpha  occ. eigenvalues --   -0.62655  -0.61491  -0.60447  -0.59373  -0.59230
 Alpha  occ. eigenvalues --   -0.58528  -0.58024  -0.57659  -0.57120  -0.56997
 Alpha  occ. eigenvalues --   -0.56254  -0.55982  -0.55424  -0.55319  -0.54922
 Alpha  occ. eigenvalues --   -0.54328  -0.54023  -0.53869  -0.53273  -0.52643
 Alpha  occ. eigenvalues --   -0.52427  -0.51933  -0.51848  -0.51604  -0.51276
 Alpha  occ. eigenvalues --   -0.51088  -0.50566  -0.50308  -0.50018  -0.49540
 Alpha  occ. eigenvalues --   -0.49473  -0.49214  -0.48962  -0.48663  -0.48362
 Alpha  occ. eigenvalues --   -0.48016  -0.47676  -0.47339  -0.47267  -0.46977
 Alpha  occ. eigenvalues --   -0.46621  -0.46359  -0.46196  -0.45767  -0.45463
 Alpha  occ. eigenvalues --   -0.45115  -0.45048  -0.44746  -0.44257  -0.43938
 Alpha  occ. eigenvalues --   -0.41742  -0.41432  -0.41406  -0.41312  -0.40570
 Alpha  occ. eigenvalues --   -0.40040  -0.39861  -0.39072  -0.38364  -0.38025
 Alpha  occ. eigenvalues --   -0.36719  -0.36336  -0.36092  -0.35448  -0.35319
 Alpha  occ. eigenvalues --   -0.34808  -0.34596  -0.33979  -0.33611  -0.32634
 Alpha  occ. eigenvalues --   -0.29049  -0.27446
 Alpha virt. eigenvalues --   -0.10450  -0.09639  -0.09445  -0.08643  -0.07945
 Alpha virt. eigenvalues --   -0.06319  -0.05459  -0.04241  -0.03999  -0.03908
 Alpha virt. eigenvalues --   -0.02827  -0.02273  -0.01804  -0.01463  -0.00192

 Mulliken charges:
               1
     1  N   -0.761178
     2  H    0.446145
     3  H    0.388956
     4  H    0.395087
     5  C   -0.117250
     6  H    0.207099
     7  C    0.643730
     8  C   -0.267426
     9  H    0.172796
    10  H    0.166840
    11  O   -0.534278
    12  C   -0.096504
    13  H    0.111171
    14  C   -0.444699
    15  H    0.154656
    16  H    0.155070
    17  H    0.160169
    18  C   -0.477408
    19  H    0.150038
    20  H    0.171391
    21  H    0.161021
    22  N   -0.615811
    23  H    0.362985
    24  C   -0.037966
    25  H    0.202554
    26  C    0.612535
    27  C   -0.375273
    28  H    0.203993
    29  H    0.146985
    30  O   -0.566150
    31  C    0.001781
    32  C   -0.030937
    33  H    0.181727
    34  C    0.088951
    35  C    0.308846
    36  C   -0.222396
    37  H    0.161510
    38  N   -0.684424
    39  H    0.342148
    40  C   -0.146554
    41  H    0.142428
    42  C   -0.160319
    43  H    0.139626
    44  C   -0.142961
    45  H    0.137647
    46  N   -0.613936
    47  H    0.364306
    48  C   -0.110243
    49  H    0.199566
    50  C    0.635846
    51  C   -0.034484
    52  H    0.182777
    53  H    0.139009
    54  O   -0.523790
    55  O   -0.605255
    56  H    0.398395
    57  N   -0.666848
    58  H    0.380820
    59  C    0.010898
    60  H    0.193211
    61  C    0.593021
    62  C   -0.481052
    63  H    0.166580
    64  H    0.152487
    65  H    0.213029
    66  O   -0.598790
    67  N   -0.590336
    68  H    0.388857
    69  C   -0.038580
    70  H    0.137277
    71  C    0.607224
    72  C   -0.291275
    73  H    0.142346
    74  H    0.177549
    75  O   -0.574163
    76  C   -0.284648
    77  H    0.166239
    78  H    0.195159
    79  C   -0.294014
    80  H    0.189944
    81  H    0.152611
    82  C   -0.192048
    83  H    0.202039
    84  H    0.222736
    85  N   -0.776121
    86  H    0.403091
    87  H    0.465786
    88  H    0.398184
    89  O   -0.639756
 Sum of Mulliken charges =   1.00000

 Dipole moment (field-independent basis, Debye):
    X=             17.5675    Y=             11.9473    Z=             -2.6201  Tot=             21.4061
 Quadrupole moment (field-independent basis, Debye-Ang):
   XX=            -94.1975   YY=           -211.5432   ZZ=           -214.4791
   XY=             63.4239   XZ=            -13.4076   YZ=              9.5349

 Normal termination of Gaussian 16 at Mon Jul  4 15:08:36 2022.
