 Gaussian 16, Revision C.01,
 Gaussian 16:  ES64L-G16RevC.01  3-Jul-2019

 ----------------------------------------------------------------------
 # B3LYP/6-31G* empiricaldispersion=gd3bj guess=read geom=check nosymm
 integral(ultrafinegrid)
 ----------------------------------------------------------------------

 ------------------------------------------------------
 Candidate Structure: Conf:474 Charge calc in gas phase
 ------------------------------------------------------
 Structure from the checkpoint file:  "conf-474.chk"
 Charge =  1 Multiplicity = 1

                          Input orientation:
 ---------------------------------------------------------------------
 Center     Atomic      Atomic             Coordinates (Angstroms)
 Number     Number       Type             X           Y           Z
 ---------------------------------------------------------------------
      1          7           0       -5.952774    1.929801    1.848745
      2          1           0       -6.511954    2.377842    1.117815
      3          1           0       -5.749574    0.920383    1.560225
      4          1           0       -6.467624    1.972649    2.732114
      5          6           0       -4.546020    2.486662    1.955348
      6          1           0       -4.519014    3.450510    1.445651
      7          6           0       -3.720312    1.412184    1.202805
      8          6           0       -4.163193    2.621665    3.438026
      9          1           0       -4.911753    3.268059    3.919076
     10          1           0       -4.237502    1.629305    3.902796
     11          8           0       -4.266019    0.311447    1.004642
     12          6           0       -2.765551    3.213133    3.717354
     13          1           0       -2.008406    2.542922    3.295201
     14          6           0       -2.583531    4.602718    3.092951
     15          1           0       -3.336659    5.305903    3.470234
     16          1           0       -2.646934    4.597372    1.997887
     17          1           0       -1.596308    5.000163    3.343275
     18          6           0       -2.545938    3.265707    5.234914
     19          1           0       -3.264239    3.941195    5.715447
     20          1           0       -2.652079    2.275443    5.691616
     21          1           0       -1.540413    3.632910    5.460300
     22          7           0       -2.493985    1.749837    0.850067
     23          1           0       -2.063928    2.636701    1.129163
     24          6           0       -1.499669    0.838856    0.292989
     25          1           0       -1.596954   -0.130842    0.790921
     26          6           0       -0.154864    1.504835    0.656757
     27          6           0       -1.690003    0.668197   -1.234288
     28          1           0       -2.756754    0.472186   -1.400337
     29          1           0       -1.449210    1.621667   -1.712069
     30          8           0       -0.151704    2.620289    1.186509
     31          6           0       -0.852833   -0.419707   -1.844423
     32          6           0       -0.660401   -1.701145   -1.374186
     33          1           0       -1.037478   -2.181442   -0.481573
     34          6           0       -0.139192   -0.332666   -3.096602
     35          6           0        0.462819   -1.599177   -3.326070
     36          6           0        0.040342    0.688082   -4.045095
     37          1           0       -0.394628    1.668531   -3.887169
     38          7           0        0.121950   -2.410978   -2.264028
     39          1           0        0.473195   -3.342813   -2.107116
     40          6           0        1.394394   -0.837112   -5.383807
     41          1           0        1.996626   -0.993641   -6.272221
     42          6           0        1.229129   -1.866764   -4.466056
     43          1           0        1.673163   -2.844321   -4.630274
     44          6           0        0.805349    0.427995   -5.173854
     45          1           0        0.946395    1.205483   -5.919669
     46          7           0        0.946988    0.783638    0.383168
     47          1           0        0.821700   -0.027801   -0.219139
     48          6           0        2.232196    1.438828    0.204548
     49          1           0        2.332575    2.216492    0.967957
     50          6           0        2.206945    2.089734   -1.207475
     51          6           0        3.328198    0.371690    0.359904
     52          1           0        3.199473   -0.103335    1.338170
     53          1           0        4.326042    0.829342    0.355316
     54          8           0        1.147207    2.326262   -1.772745
     55          8           0        3.197859   -0.627005   -0.634612
     56          1           0        3.811781   -0.400782   -1.362651
     57          7           0        3.421923    2.337916   -1.771758
     58          1           0        4.233502    1.962956   -1.294234
     59          6           0        3.583933    2.260548   -3.218615
     60          1           0        2.588035    2.130352   -3.651383
     61          6           0        4.433678    1.001328   -3.487852
     62          6           0        4.249682    3.515732   -3.795887
     63          1           0        4.352611    3.442796   -4.883003
     64          1           0        5.247053    3.658197   -3.366762
     65          1           0        3.641309    4.392397   -3.558450
     66          8           0        5.040541    0.438409   -2.559975
     67          7           0        4.517745    0.599851   -4.760988
     68          1           0        3.894128    0.979515   -5.465573
     69          6           0        5.356382   -0.505438   -5.208945
     70          1           0        6.398460   -0.296434   -4.952292
     71          6           0        5.228282   -0.585357   -6.720693
     72          6           0        4.944346   -1.871642   -4.569150
     73          1           0        5.402333   -1.900679   -3.578534
     74          1           0        3.862149   -1.843130   -4.414295
     75          8           0        6.280546   -1.158342   -7.275555
     76          6           0        5.323145   -3.133078   -5.372172
     77          1           0        6.314117   -3.001392   -5.814741
     78          1           0        5.412114   -3.968810   -4.669105
     79          6           0        4.291227   -3.520227   -6.466143
     80          1           0        3.657327   -2.662352   -6.716723
     81          1           0        3.610183   -4.273230   -6.052276
     82          6           0        4.875412   -4.078326   -7.777076
     83          1           0        5.809970   -4.613673   -7.578579
     84          1           0        4.175987   -4.802445   -8.216027
     85          7           0        5.179920   -2.998920   -8.752184
     86          1           0        5.640560   -3.384225   -9.575385
     87          1           0        4.311330   -2.570874   -9.073667
     88          1           0        5.950410   -1.759441   -8.055253
     89          8           0        4.209901   -0.245426   -7.309684
 ---------------------------------------------------------------------

 SCF Done:  E(RB3LYP) =  -2042.69551711     A.U. after    3 cycles

 Alpha  occ. eigenvalues --  -19.26262 -19.22134 -19.20972 -19.20326 -19.19513
 Alpha  occ. eigenvalues --  -19.19477 -19.18870 -14.59539 -14.48431 -14.44952
 Alpha  occ. eigenvalues --  -14.43565 -14.43271 -14.42213 -14.41644 -10.42804
 Alpha  occ. eigenvalues --  -10.40087 -10.37744 -10.37276 -10.36204 -10.35725
 Alpha  occ. eigenvalues --  -10.33561 -10.32999 -10.30585 -10.30409 -10.30347
 Alpha  occ. eigenvalues --  -10.30085 -10.29755 -10.29318 -10.28672 -10.28558
 Alpha  occ. eigenvalues --  -10.27936 -10.27671 -10.27023 -10.25914 -10.25262
 Alpha  occ. eigenvalues --  -10.25073 -10.24980 -10.24832 -10.24790 -10.24659
 Alpha  occ. eigenvalues --  -10.24605 -10.24339 -10.24260  -1.18730  -1.14695
 Alpha  occ. eigenvalues --   -1.13493  -1.12866  -1.11477  -1.10425  -1.07936
 Alpha  occ. eigenvalues --   -1.06168  -1.05396  -1.04821  -1.00749  -0.99834
 Alpha  occ. eigenvalues --   -0.99266  -0.97126  -0.94413  -0.90411  -0.89593
 Alpha  occ. eigenvalues --   -0.87654  -0.86679  -0.85164  -0.84098  -0.82160
 Alpha  occ. eigenvalues --   -0.80692  -0.80097  -0.79866  -0.78688  -0.78108
 Alpha  occ. eigenvalues --   -0.76291  -0.75849  -0.73474  -0.72639  -0.72587
 Alpha  occ. eigenvalues --   -0.71532  -0.70117  -0.69328  -0.68890  -0.67978
 Alpha  occ. eigenvalues --   -0.66984  -0.66439  -0.65925  -0.65633  -0.65039
 Alpha  occ. eigenvalues --   -0.64569  -0.63567  -0.63255  -0.62573  -0.61525
 Alpha  occ. eigenvalues --   -0.60687  -0.59482  -0.58670  -0.58001  -0.57707
 Alpha  occ. eigenvalues --   -0.57436  -0.56598  -0.56099  -0.55640  -0.55012
 Alpha  occ. eigenvalues --   -0.54676  -0.54304  -0.54256  -0.53860  -0.53509
 Alpha  occ. eigenvalues --   -0.53356  -0.53030  -0.52678  -0.52372  -0.51827
 Alpha  occ. eigenvalues --   -0.51419  -0.50989  -0.50227  -0.50114  -0.49882
 Alpha  occ. eigenvalues --   -0.49536  -0.49362  -0.49165  -0.49075  -0.48655
 Alpha  occ. eigenvalues --   -0.48347  -0.47809  -0.47758  -0.47432  -0.47394
 Alpha  occ. eigenvalues --   -0.47198  -0.46976  -0.46408  -0.45959  -0.45540
 Alpha  occ. eigenvalues --   -0.44764  -0.44352  -0.44228  -0.43929  -0.43793
 Alpha  occ. eigenvalues --   -0.43573  -0.43350  -0.42945  -0.42380  -0.41868
 Alpha  occ. eigenvalues --   -0.41711  -0.40929  -0.40466  -0.40048  -0.40016
 Alpha  occ. eigenvalues --   -0.39576  -0.39178  -0.39059  -0.38255  -0.35697
 Alpha  occ. eigenvalues --   -0.35649  -0.35037  -0.33979  -0.33901  -0.33721
 Alpha  occ. eigenvalues --   -0.33486  -0.33050  -0.32921  -0.32187  -0.31463
 Alpha  occ. eigenvalues --   -0.28880  -0.27078
 Alpha virt. eigenvalues --   -0.11688  -0.10685  -0.08079  -0.06758  -0.06044
 Alpha virt. eigenvalues --   -0.06008  -0.05104  -0.04713  -0.04018  -0.03853
 Alpha virt. eigenvalues --   -0.01503  -0.01069  -0.00047   0.00415   0.00738

 Mulliken charges:
               1
     1  N   -0.758323
     2  H    0.414896
     3  H    0.432452
     4  H    0.411209
     5  C   -0.116592
     6  H    0.215471
     7  C    0.648357
     8  C   -0.286355
     9  H    0.161277
    10  H    0.171174
    11  O   -0.551822
    12  C   -0.105441
    13  H    0.165700
    14  C   -0.460787
    15  H    0.151810
    16  H    0.140822
    17  H    0.191227
    18  C   -0.451737
    19  H    0.153553
    20  H    0.155557
    21  H    0.176188
    22  N   -0.614739
    23  H    0.396741
    24  C   -0.088565
    25  H    0.190112
    26  C    0.648281
    27  C   -0.330993
    28  H    0.171263
    29  H    0.189509
    30  O   -0.552505
    31  C    0.021911
    32  C   -0.012191
    33  H    0.157634
    34  C    0.092470
    35  C    0.318341
    36  C   -0.178412
    37  H    0.142556
    38  N   -0.683114
    39  H    0.337707
    40  C   -0.166275
    41  H    0.165195
    42  C   -0.171553
    43  H    0.132517
    44  C   -0.176319
    45  H    0.133378
    46  N   -0.596031
    47  H    0.374443
    48  C   -0.090847
    49  H    0.197599
    50  C    0.614633
    51  C   -0.083027
    52  H    0.164031
    53  H    0.151327
    54  O   -0.512955
    55  O   -0.654970
    56  H    0.440094
    57  N   -0.583548
    58  H    0.343853
    59  C   -0.094089
    60  H    0.202856
    61  C    0.637848
    62  C   -0.438725
    63  H    0.157222
    64  H    0.163639
    65  H    0.177038
    66  O   -0.573932
    67  N   -0.615902
    68  H    0.359379
    69  C    0.015810
    70  H    0.187707
    71  C    0.566359
    72  C   -0.305403
    73  H    0.177741
    74  H    0.162693
    75  O   -0.597319
    76  C   -0.286515
    77  H    0.173098
    78  H    0.144894
    79  C   -0.300165
    80  H    0.166254
    81  H    0.146799
    82  C   -0.143064
    83  H    0.167602
    84  H    0.149617
    85  N   -0.780332
    86  H    0.337481
    87  H    0.342544
    88  H    0.460359
    89  O   -0.507679
 Sum of Mulliken charges =   1.00000

 Dipole moment (field-independent basis, Debye):
    X=            -12.5261    Y=              3.3175    Z=             -0.4803  Tot=             12.9669
 Quadrupole moment (field-independent basis, Debye-Ang):
   XX=           -113.0104   YY=           -200.1743   ZZ=           -154.1468
   XY=            -64.1768   XZ=            -85.1205   YZ=             57.7755

 Normal termination of Gaussian 16 at Mon Jul  4 15:08:07 2022.
