 Gaussian 16, Revision C.01,
 Gaussian 16:  ES64L-G16RevC.01  3-Jul-2019

 ----------------------------------------------------------------------
 # B3LYP/6-31G* empiricaldispersion=gd3bj guess=read geom=check nosymm
 integral(ultrafinegrid)
 ----------------------------------------------------------------------

 ------------------------------------------------------
 Candidate Structure: Conf:549 Charge calc in gas phase
 ------------------------------------------------------
 Structure from the checkpoint file:  "conf-549.chk"
 Charge =  1 Multiplicity = 1

                          Input orientation:
 ---------------------------------------------------------------------
 Center     Atomic      Atomic             Coordinates (Angstroms)
 Number     Number       Type             X           Y           Z
 ---------------------------------------------------------------------
      1          7           0       -3.999658    0.077985    4.025264
      2          1           0       -5.007257    0.203702    4.158976
      3          1           0       -3.845158   -0.726387    3.350759
      4          1           0       -3.564110   -0.105741    4.933052
      5          6           0       -3.344366    1.228515    3.285008
      6          1           0       -3.967319    2.115198    3.408960
      7          6           0       -3.308528    0.703227    1.834395
      8          6           0       -1.919410    1.436212    3.834222
      9          1           0       -1.993408    1.510422    4.930088
     10          1           0       -1.320500    0.550341    3.587329
     11          8           0       -3.400817   -0.521281    1.674955
     12          6           0       -1.185374    2.692556    3.320326
     13          1           0       -1.040469    2.602991    2.239302
     14          6           0       -1.955772    3.984116    3.621922
     15          1           0       -2.143994    4.094204    4.697576
     16          1           0       -2.925347    4.041800    3.108092
     17          1           0       -1.376896    4.853553    3.297047
     18          6           0        0.217704    2.724235    3.940140
     19          1           0        0.171030    2.782478    5.035237
     20          1           0        0.780855    1.831225    3.653432
     21          1           0        0.767780    3.599345    3.581475
     22          7           0       -3.126043    1.597265    0.857471
     23          1           0       -2.934490    2.557846    1.122179
     24          6           0       -2.531164    1.184884   -0.430893
     25          1           0       -2.919711    0.190683   -0.655155
     26          6           0       -1.019274    1.162895   -0.140720
     27          6           0       -2.883417    2.168292   -1.539363
     28          1           0       -3.975025    2.285215   -1.562209
     29          1           0       -2.460879    3.147010   -1.271394
     30          8           0       -0.420216    2.212726    0.072043
     31          6           0       -2.380069    1.741703   -2.887593
     32          6           0       -1.571817    0.677538   -3.219241
     33          1           0       -1.103077   -0.085847   -2.615403
     34          6           0       -2.677494    2.433892   -4.117301
     35          6           0       -2.018496    1.734386   -5.164072
     36          6           0       -3.436670    3.573060   -4.430238
     37          1           0       -3.948252    4.129574   -3.649211
     38          7           0       -1.352576    0.673776   -4.583307
     39          1           0       -0.808105   -0.018454   -5.073239
     40          6           0       -2.861731    3.269512   -6.778088
     41          1           0       -2.947433    3.612198   -7.804814
     42          6           0       -2.102400    2.139550   -6.499041
     43          1           0       -1.594002    1.593864   -7.288764
     44          6           0       -3.522180    3.979977   -5.755044
     45          1           0       -4.105207    4.859383   -6.011474
     46          7           0       -0.484302   -0.072670    0.007405
     47          1           0       -0.978045   -0.862455   -0.393343
     48          6           0        0.942618   -0.268638    0.152804
     49          1           0        1.392308    0.720996    0.264163
     50          6           0        1.447721   -0.967845   -1.126941
     51          6           0        1.266422   -1.114997    1.386736
     52          1           0        2.354860   -1.242702    1.450650
     53          1           0        0.813633   -2.111513    1.274067
     54          8           0        0.658047   -1.573631   -1.856959
     55          8           0        0.756881   -0.452253    2.543866
     56          1           0        1.181161   -0.852488    3.317817
     57          7           0        2.767124   -0.881094   -1.346948
     58          1           0        3.401301   -0.390561   -0.719380
     59          6           0        3.437395   -1.498713   -2.478658
     60          1           0        3.104556   -2.540282   -2.560331
     61          6           0        4.938180   -1.455878   -2.136355
     62          6           0        3.131101   -0.764406   -3.793643
     63          1           0        3.614623   -1.258481   -4.641897
     64          1           0        3.487409    0.269005   -3.743915
     65          1           0        2.051430   -0.761506   -3.960907
     66          8           0        5.343464   -0.819741   -1.160105
     67          7           0        5.741849   -2.123221   -2.981416
     68          1           0        5.375835   -2.648031   -3.768791
     69          6           0        7.191168   -2.126719   -2.872364
     70          1           0        7.538881   -1.130972   -2.588424
     71          6           0        7.755361   -2.531111   -4.221022
     72          6           0        7.667034   -3.166773   -1.814171
     73          1           0        7.256317   -2.827132   -0.858873
     74          1           0        7.168812   -4.115381   -2.051237
     75          8           0        9.009308   -2.135129   -4.381461
     76          6           0        9.198783   -3.370739   -1.703758
     77          1           0        9.721947   -2.576495   -2.240891
     78          1           0        9.489924   -3.269079   -0.652272
     79          6           0        9.712025   -4.751412   -2.165527
     80          1           0        9.254402   -5.518322   -1.526221
     81          1           0       10.791452   -4.804825   -1.962709
     82          6           0        9.467299   -5.206674   -3.611261
     83          1           0        9.737020   -6.270100   -3.673717
     84          1           0        8.408256   -5.130763   -3.872936
     85          7           0       10.217463   -4.422626   -4.626935
     86          1           0       11.211073   -4.409531   -4.395992
     87          1           0       10.134689   -4.878799   -5.534551
     88          1           0        9.552152   -2.942809   -4.737513
     89          8           0        7.132212   -3.255463   -4.982860
 ---------------------------------------------------------------------

 SCF Done:  E(RB3LYP) =  -2042.67260106     A.U. after    1 cycles

 Alpha  occ. eigenvalues --  -19.27058 -19.25206 -19.21355 -19.20899 -19.20115
 Alpha  occ. eigenvalues --  -19.18951 -19.18867 -14.60214 -14.49937 -14.45363
 Alpha  occ. eigenvalues --  -14.43963 -14.43406 -14.42816 -14.41226 -10.43649
 Alpha  occ. eigenvalues --  -10.40468 -10.38109 -10.37250 -10.36615 -10.35995
 Alpha  occ. eigenvalues --  -10.33723 -10.33463 -10.32479 -10.32104 -10.31082
 Alpha  occ. eigenvalues --  -10.29631 -10.29314 -10.27926 -10.27854 -10.27769
 Alpha  occ. eigenvalues --  -10.27651 -10.27135 -10.26169 -10.25330 -10.24946
 Alpha  occ. eigenvalues --  -10.24933 -10.24670 -10.23976 -10.23924 -10.23743
 Alpha  occ. eigenvalues --  -10.23669 -10.23386 -10.23010  -1.19590  -1.14152
 Alpha  occ. eigenvalues --   -1.13973  -1.13301  -1.12147  -1.11866  -1.10706
 Alpha  occ. eigenvalues --   -1.06410  -1.05613  -1.03319  -1.01958  -1.00663
 Alpha  occ. eigenvalues --   -0.99475  -0.96655  -0.94350  -0.89944  -0.88877
 Alpha  occ. eigenvalues --   -0.87587  -0.87072  -0.85985  -0.83926  -0.82917
 Alpha  occ. eigenvalues --   -0.80858  -0.79845  -0.78669  -0.77968  -0.77267
 Alpha  occ. eigenvalues --   -0.75772  -0.75502  -0.74235  -0.74160  -0.73110
 Alpha  occ. eigenvalues --   -0.72801  -0.71264  -0.69820  -0.68403  -0.67565
 Alpha  occ. eigenvalues --   -0.67366  -0.66974  -0.65797  -0.65464  -0.64807
 Alpha  occ. eigenvalues --   -0.64421  -0.63713  -0.63108  -0.62656  -0.62071
 Alpha  occ. eigenvalues --   -0.60507  -0.59572  -0.59432  -0.59011  -0.58348
 Alpha  occ. eigenvalues --   -0.57450  -0.57280  -0.56514  -0.55860  -0.55403
 Alpha  occ. eigenvalues --   -0.54992  -0.54844  -0.54287  -0.53582  -0.53173
 Alpha  occ. eigenvalues --   -0.52924  -0.52584  -0.52422  -0.52225  -0.52011
 Alpha  occ. eigenvalues --   -0.51561  -0.51447  -0.51097  -0.50705  -0.50199
 Alpha  occ. eigenvalues --   -0.49751  -0.49588  -0.48714  -0.48412  -0.48227
 Alpha  occ. eigenvalues --   -0.47993  -0.47809  -0.47762  -0.47513  -0.47205
 Alpha  occ. eigenvalues --   -0.47102  -0.46778  -0.45760  -0.45632  -0.45518
 Alpha  occ. eigenvalues --   -0.45214  -0.44559  -0.44435  -0.43880  -0.43806
 Alpha  occ. eigenvalues --   -0.43640  -0.43311  -0.42909  -0.42698  -0.42185
 Alpha  occ. eigenvalues --   -0.41434  -0.41416  -0.40642  -0.40114  -0.39788
 Alpha  occ. eigenvalues --   -0.39460  -0.38884  -0.38657  -0.38405  -0.37622
 Alpha  occ. eigenvalues --   -0.35498  -0.35098  -0.34598  -0.34065  -0.33610
 Alpha  occ. eigenvalues --   -0.33422  -0.33154  -0.32604  -0.32391  -0.31446
 Alpha  occ. eigenvalues --   -0.27415  -0.25811
 Alpha virt. eigenvalues --   -0.12906  -0.11050  -0.07516  -0.06662  -0.06523
 Alpha virt. eigenvalues --   -0.06290  -0.05230  -0.05095  -0.04218  -0.03145
 Alpha virt. eigenvalues --   -0.02433  -0.01539  -0.00999  -0.00186   0.00491

 Mulliken charges:
               1
     1  N   -0.751322
     2  H    0.416458
     3  H    0.431865
     4  H    0.411829
     5  C   -0.124724
     6  H    0.210881
     7  C    0.661032
     8  C   -0.303823
     9  H    0.149011
    10  H    0.202649
    11  O   -0.534865
    12  C   -0.119595
    13  H    0.189333
    14  C   -0.464365
    15  H    0.153654
    16  H    0.124123
    17  H    0.186575
    18  C   -0.460989
    19  H    0.140684
    20  H    0.171476
    21  H    0.171094
    22  N   -0.589698
    23  H    0.364788
    24  C   -0.077022
    25  H    0.189900
    26  C    0.627543
    27  C   -0.350681
    28  H    0.164196
    29  H    0.174314
    30  O   -0.526836
    31  C    0.060041
    32  C   -0.013499
    33  H    0.169159
    34  C    0.078411
    35  C    0.320745
    36  C   -0.208290
    37  H    0.116972
    38  N   -0.710738
    39  H    0.334964
    40  C   -0.149228
    41  H    0.135907
    42  C   -0.160627
    43  H    0.131569
    44  C   -0.138509
    45  H    0.130752
    46  N   -0.565458
    47  H    0.352942
    48  C   -0.103580
    49  H    0.208196
    50  C    0.632555
    51  C   -0.032306
    52  H    0.155500
    53  H    0.146381
    54  O   -0.546625
    55  O   -0.613407
    56  H    0.406857
    57  N   -0.612088
    58  H    0.362240
    59  C   -0.041869
    60  H    0.180777
    61  C    0.625023
    62  C   -0.450784
    63  H    0.162310
    64  H    0.170315
    65  H    0.175411
    66  O   -0.546948
    67  N   -0.620650
    68  H    0.353092
    69  C   -0.020298
    70  H    0.190288
    71  C    0.586518
    72  C   -0.283254
    73  H    0.173650
    74  H    0.143631
    75  O   -0.603431
    76  C   -0.280224
    77  H    0.176895
    78  H    0.146577
    79  C   -0.277542
    80  H    0.149512
    81  H    0.139538
    82  C   -0.157064
    83  H    0.148787
    84  H    0.179823
    85  N   -0.775996
    86  H    0.330193
    87  H    0.341622
    88  H    0.458721
    89  O   -0.500942
 Sum of Mulliken charges =   1.00000

 Dipole moment (field-independent basis, Debye):
    X=             -2.7905    Y=             -4.2923    Z=             11.3855  Tot=             12.4836
 Quadrupole moment (field-independent basis, Debye-Ang):
   XX=            -93.2794   YY=           -215.7065   ZZ=           -158.6509
   XY=            -77.1149   XZ=            -88.1615   YZ=             26.3375

 Normal termination of Gaussian 16 at Mon Jul  4 15:07:19 2022.
