 Gaussian 16, Revision C.01,
 Gaussian 16:  ES64L-G16RevC.01  3-Jul-2019

 ----------------------------------------------------------------------
 # B3LYP/6-31G* empiricaldispersion=gd3bj guess=read geom=check nosymm
 integral(ultrafinegrid)
 ----------------------------------------------------------------------

 ------------------------------------------------------
 Candidate Structure: Conf:428 Charge calc in gas phase
 ------------------------------------------------------
 Structure from the checkpoint file:  "conf-428.chk"
 Charge =  1 Multiplicity = 1

                          Input orientation:
 ---------------------------------------------------------------------
 Center     Atomic      Atomic             Coordinates (Angstroms)
 Number     Number       Type             X           Y           Z
 ---------------------------------------------------------------------
      1          7           0       -5.690559    0.825469    2.558655
      2          1           0       -5.870536    1.786409    2.174081
      3          1           0       -5.903578    0.164392    1.783579
      4          1           0       -6.283236    0.644969    3.372719
      5          6           0       -4.218676    0.614558    2.837622
      6          1           0       -3.841465    1.529667    3.295397
      7          6           0       -3.665615    0.407947    1.413403
      8          6           0       -4.020681   -0.607188    3.736797
      9          1           0       -4.542320   -0.436303    4.689409
     10          1           0       -4.492620   -1.469809    3.249458
     11          8           0       -4.386399   -0.193383    0.613228
     12          6           0       -2.541044   -0.931409    4.024770
     13          1           0       -2.041960   -1.106801    3.062013
     14          6           0       -1.821865    0.218523    4.743027
     15          1           0       -2.316518    0.458796    5.692286
     16          1           0       -1.777728    1.138698    4.147246
     17          1           0       -0.788411   -0.059963    4.968832
     18          6           0       -2.455329   -2.224141    4.845235
     19          1           0       -2.936909   -2.101552    5.822947
     20          1           0       -2.941817   -3.059320    4.329779
     21          1           0       -1.411044   -2.499494    5.021506
     22          7           0       -2.471059    0.937129    1.127703
     23          1           0       -1.876078    1.360405    1.833900
     24          6           0       -2.066559    1.209967   -0.238996
     25          1           0       -2.444358    0.410173   -0.878432
     26          6           0       -0.536596    1.289681   -0.234240
     27          6           0       -2.634504    2.598842   -0.704401
     28          1           0       -2.010678    3.377978   -0.252682
     29          1           0       -2.507634    2.673679   -1.789731
     30          8           0        0.058115    1.583129    0.803273
     31          6           0       -4.061921    2.817839   -0.311043
     32          6           0       -4.483108    3.476086    0.806369
     33          1           0       -3.910132    4.036882    1.532803
     34          6           0       -5.245376    2.273188   -0.953952
     35          6           0       -6.358351    2.635923   -0.164698
     36          6           0       -5.444930    1.507366   -2.109394
     37          1           0       -4.605628    1.202822   -2.727102
     38          7           0       -5.878263    3.311646    0.985271
     39          1           0       -6.419031    4.085955    1.360528
     40          6           0       -7.839535    1.534648   -1.662675
     41          1           0       -8.842213    1.249250   -1.964433
     42          6           0       -7.663026    2.278377   -0.497302
     43          1           0       -8.511091    2.577484    0.112423
     44          6           0       -6.743028    1.149510   -2.455040
     45          1           0       -6.917286    0.564526   -3.352300
     46          7           0        0.053384    1.102217   -1.427454
     47          1           0       -0.470522    0.860006   -2.265171
     48          6           0        1.465102    1.328273   -1.671425
     49          1           0        1.816715    2.168402   -1.065483
     50          6           0        1.595028    1.577618   -3.178257
     51          6           0        2.281003    0.062049   -1.304903
     52          1           0        1.910238   -0.766566   -1.927668
     53          1           0        2.087579   -0.173150   -0.255792
     54          8           0        0.780992    1.064331   -3.944593
     55          8           0        3.681756    0.242527   -1.438444
     56          1           0        3.906466    0.552855   -2.355327
     57          7           0        2.667791    2.302175   -3.569694
     58          1           0        3.318343    2.606012   -2.855471
     59          6           0        3.203938    2.199391   -4.922040
     60          1           0        2.372976    1.898280   -5.562450
     61          6           0        4.292347    1.103592   -4.959807
     62          6           0        3.783005    3.533990   -5.404291
     63          1           0        4.158459    3.428693   -6.426164
     64          1           0        4.616141    3.850813   -4.765894
     65          1           0        3.012084    4.309271   -5.387429
     66          8           0        4.806243    0.728970   -3.856723
     67          7           0        4.591598    0.700838   -6.174483
     68          1           0        4.174455    1.178625   -7.035979
     69          6           0        5.756305    0.026155   -6.776650
     70          1           0        6.670642    0.429031   -6.323166
     71          6           0        5.699998    0.473753   -8.298783
     72          6           0        5.768049   -1.504630   -6.624246
     73          1           0        4.939005   -1.953509   -7.182896
     74          1           0        6.700599   -1.864677   -7.066318
     75          8           0        6.567587   -0.023682   -9.019323
     76          6           0        5.645855   -1.763687   -5.130635
     77          1           0        6.373921   -1.082481   -4.675793
     78          1           0        4.656560   -1.380291   -4.861523
     79          6           0        5.790707   -3.104349   -4.411778
     80          1           0        6.836955   -3.424980   -4.347003
     81          1           0        5.235475   -3.911681   -4.902066
     82          6           0        5.180745   -2.915985   -3.008485
     83          1           0        4.090052   -2.898037   -3.074393
     84          1           0        5.475740   -3.681217   -2.287207
     85          7           0        5.554212   -1.566553   -2.413831
     86          1           0        4.922694   -1.260960   -1.649744
     87          1           0        6.522712   -1.548177   -2.083876
     88          1           0        5.439698   -0.795299   -3.121525
     89          8           0        4.747799    1.278155   -8.546866
 ---------------------------------------------------------------------

 SCF Done:  E(RB3LYP) =  -2042.63163033     A.U. after    2 cycles

 Alpha  occ. eigenvalues --  -19.25907 -19.24794 -19.22748 -19.21333 -19.20638
 Alpha  occ. eigenvalues --  -19.09236 -19.07585 -14.58839 -14.54138 -14.50355
 Alpha  occ. eigenvalues --  -14.49367 -14.46926 -14.45329 -14.40483 -10.43077
 Alpha  occ. eigenvalues --  -10.40016 -10.39959 -10.38364 -10.36066 -10.35640
 Alpha  occ. eigenvalues --  -10.35302 -10.33883 -10.33722 -10.33454 -10.33332
 Alpha  occ. eigenvalues --  -10.33050 -10.31496 -10.31285 -10.30884 -10.30748
 Alpha  occ. eigenvalues --  -10.29829 -10.29821 -10.29142 -10.29011 -10.28847
 Alpha  occ. eigenvalues --  -10.28481 -10.28472 -10.27823 -10.26731 -10.25517
 Alpha  occ. eigenvalues --  -10.25055 -10.24823 -10.23079  -1.18681  -1.14978
 Alpha  occ. eigenvalues --   -1.13519  -1.13135  -1.12000  -1.10297  -1.09214
 Alpha  occ. eigenvalues --   -1.08991  -1.06251  -1.03473  -1.02337  -1.01720
 Alpha  occ. eigenvalues --   -0.97504  -0.95031  -0.94836  -0.93432  -0.92419
 Alpha  occ. eigenvalues --   -0.89414  -0.89186  -0.87785  -0.86042  -0.84473
 Alpha  occ. eigenvalues --   -0.84291  -0.83158  -0.82365  -0.80398  -0.79191
 Alpha  occ. eigenvalues --   -0.77925  -0.77059  -0.75691  -0.73536  -0.73019
 Alpha  occ. eigenvalues --   -0.72860  -0.72272  -0.71726  -0.70976  -0.70264
 Alpha  occ. eigenvalues --   -0.69683  -0.69115  -0.68453  -0.67685  -0.67387
 Alpha  occ. eigenvalues --   -0.67273  -0.65944  -0.64488  -0.63947  -0.63001
 Alpha  occ. eigenvalues --   -0.62593  -0.62497  -0.60772  -0.60389  -0.60080
 Alpha  occ. eigenvalues --   -0.59360  -0.58881  -0.58840  -0.57959  -0.57656
 Alpha  occ. eigenvalues --   -0.57301  -0.56904  -0.56849  -0.55690  -0.55355
 Alpha  occ. eigenvalues --   -0.55040  -0.54636  -0.54056  -0.53941  -0.53197
 Alpha  occ. eigenvalues --   -0.53024  -0.52816  -0.52327  -0.51929  -0.51858
 Alpha  occ. eigenvalues --   -0.51495  -0.51034  -0.50730  -0.50513  -0.50337
 Alpha  occ. eigenvalues --   -0.49767  -0.49517  -0.49424  -0.49121  -0.48306
 Alpha  occ. eigenvalues --   -0.48212  -0.48052  -0.47801  -0.46996  -0.45992
 Alpha  occ. eigenvalues --   -0.45771  -0.45210  -0.45116  -0.44692  -0.44673
 Alpha  occ. eigenvalues --   -0.44662  -0.44426  -0.44392  -0.44118  -0.43761
 Alpha  occ. eigenvalues --   -0.43145  -0.42617  -0.40561  -0.40550  -0.39911
 Alpha  occ. eigenvalues --   -0.39445  -0.38856  -0.38676  -0.38139  -0.38015
 Alpha  occ. eigenvalues --   -0.36839  -0.36350  -0.36277  -0.35353  -0.34999
 Alpha  occ. eigenvalues --   -0.33941  -0.33878  -0.32485  -0.32196  -0.24424
 Alpha  occ. eigenvalues --   -0.23932  -0.21812
 Alpha virt. eigenvalues --   -0.12933  -0.12633  -0.09719  -0.09107  -0.08796
 Alpha virt. eigenvalues --   -0.07632  -0.06129  -0.05798  -0.05482  -0.05251
 Alpha virt. eigenvalues --   -0.03989  -0.02474  -0.02128  -0.01813  -0.01393

 Mulliken charges:
               1
     1  N   -0.771808
     2  H    0.439998
     3  H    0.423540
     4  H    0.400029
     5  C   -0.112656
     6  H    0.194230
     7  C    0.658200
     8  C   -0.276205
     9  H    0.156822
    10  H    0.174851
    11  O   -0.530435
    12  C   -0.098329
    13  H    0.154799
    14  C   -0.458991
    15  H    0.158731
    16  H    0.130785
    17  H    0.182256
    18  C   -0.449698
    19  H    0.156706
    20  H    0.159256
    21  H    0.169635
    22  N   -0.603601
    23  H    0.367017
    24  C   -0.069682
    25  H    0.200112
    26  C    0.637187
    27  C   -0.369356
    28  H    0.177311
    29  H    0.185493
    30  O   -0.541112
    31  C    0.107492
    32  C   -0.075299
    33  H    0.167391
    34  C    0.145844
    35  C    0.219082
    36  C   -0.188878
    37  H    0.143681
    38  N   -0.723059
    39  H    0.358062
    40  C   -0.141902
    41  H    0.158997
    42  C   -0.187511
    43  H    0.144785
    44  C   -0.132588
    45  H    0.158428
    46  N   -0.620961
    47  H    0.362751
    48  C   -0.066469
    49  H    0.187601
    50  C    0.589473
    51  C   -0.032425
    52  H    0.138777
    53  H    0.178808
    54  O   -0.526275
    55  O   -0.692494
    56  H    0.440847
    57  N   -0.580924
    58  H    0.339133
    59  C   -0.085818
    60  H    0.213781
    61  C    0.629305
    62  C   -0.466621
    63  H    0.214634
    64  H    0.153478
    65  H    0.170438
    66  O   -0.637867
    67  N   -0.593351
    68  H    0.391300
    69  C   -0.094565
    70  H    0.154480
    71  C    0.606442
    72  C   -0.258799
    73  H    0.153520
    74  H    0.180880
    75  O   -0.560315
    76  C   -0.296363
    77  H    0.134312
    78  H    0.145816
    79  C   -0.267883
    80  H    0.166693
    81  H    0.181464
    82  C   -0.191946
    83  H    0.200280
    84  H    0.193826
    85  N   -0.792958
    86  H    0.416063
    87  H    0.393686
    88  H    0.447578
    89  O   -0.618940
 Sum of Mulliken charges =   1.00000

 Dipole moment (field-independent basis, Debye):
    X=            -18.8042    Y=              0.6019    Z=             22.0566  Tot=             28.9906
 Quadrupole moment (field-independent basis, Debye-Ang):
   XX=           -107.9264   YY=           -210.9484   ZZ=           -382.4934
   XY=            -67.0515   XZ=             25.2644   YZ=             28.3358

 Normal termination of Gaussian 16 at Mon Jul  4 15:06:37 2022.
