 Gaussian 16, Revision C.01,
 Gaussian 16:  ES64L-G16RevC.01  3-Jul-2019

 ----------------------------------------------------------------------
 # B3LYP/6-31G* empiricaldispersion=gd3bj guess=read geom=check nosymm
 integral(ultrafinegrid)
 ----------------------------------------------------------------------

 -----------------------------------------------------
 Candidate Structure: Conf:18 Charge calc in gas phase
 -----------------------------------------------------
 Structure from the checkpoint file:  "conf-18.chk"
 Charge =  1 Multiplicity = 1

                          Input orientation:
 ---------------------------------------------------------------------
 Center     Atomic      Atomic             Coordinates (Angstroms)
 Number     Number       Type             X           Y           Z
 ---------------------------------------------------------------------
      1          7           0       -6.270862    2.207649    2.755906
      2          1           0       -6.647993    2.700910    1.921865
      3          1           0       -6.397170    1.179528    2.608227
      4          1           0       -6.767721    2.525204    3.591513
      5          6           0       -4.773275    2.365710    2.862567
      6          1           0       -4.519610    3.327319    2.417852
      7          6           0       -4.263899    1.184405    2.008515
      8          6           0       -4.329036    2.266603    4.324869
      9          1           0       -4.838753    3.052736    4.900858
     10          1           0       -4.661286    1.297972    4.720338
     11          8           0       -4.961532    0.163780    1.975320
     12          6           0       -2.806974    2.409136    4.530481
     13          1           0       -2.309610    1.616142    3.957122
     14          6           0       -2.276607    3.763763    4.041522
     15          1           0       -2.772162    4.590715    4.565320
     16          1           0       -2.414875    3.919193    2.964895
     17          1           0       -1.202557    3.842207    4.232209
     18          6           0       -2.475265    2.199122    6.012916
     19          1           0       -2.942895    2.972912    6.633991
     20          1           0       -2.823781    1.222918    6.367877
     21          1           0       -1.394347    2.250713    6.175289
     22          7           0       -3.122595    1.387370    1.357193
     23          1           0       -2.530879    2.198611    1.537476
     24          6           0       -2.532741    0.482587    0.386425
     25          1           0       -2.737639   -0.549086    0.683607
     26          6           0       -1.027196    0.804231    0.404863
     27          6           0       -3.104772    0.745427   -1.042783
     28          1           0       -2.729621    1.718481   -1.381662
     29          1           0       -2.685914   -0.005046   -1.721536
     30          8           0       -0.634353    1.849351    0.931967
     31          6           0       -4.601083    0.721159   -1.074688
     32          6           0       -5.401817   -0.371956   -1.296121
     33          1           0       -5.128848   -1.376230   -1.588831
     34          6           0       -5.483532    1.800496   -0.707910
     35          6           0       -6.811948    1.275957   -0.697932
     36          6           0       -5.287018    3.148446   -0.365019
     37          1           0       -4.291499    3.582059   -0.390015
     38          7           0       -6.723918   -0.046316   -1.067528
     39          1           0       -7.506087   -0.666331   -1.214110
     40          6           0       -7.689106    3.378105    0.025265
     41          1           0       -8.529993    4.011585    0.291351
     42          6           0       -7.917524    2.048619   -0.331264
     43          1           0       -8.921993    1.635483   -0.332324
     44          6           0       -6.384128    3.926354    0.000370
     45          1           0       -6.244069    4.975453    0.244179
     46          7           0       -0.246779   -0.078421   -0.232007
     47          1           0       -0.643937   -0.858200   -0.755814
     48          6           0        1.125736    0.192031   -0.620965
     49          1           0        1.266504    1.270484   -0.737761
     50          6           0        1.336919   -0.551177   -1.942856
     51          6           0        2.145532   -0.316817    0.436130
     52          1           0        1.974531   -1.393259    0.587644
     53          1           0        1.927731    0.201780    1.375882
     54          8           0        0.549718   -1.433448   -2.295055
     55          8           0        3.471544   -0.034084    0.068235
     56          1           0        3.792222   -0.768659   -0.514699
     57          7           0        2.442477   -0.179825   -2.623411
     58          1           0        3.081214    0.415279   -2.104674
     59          6           0        3.061439   -1.066079   -3.596623
     60          1           0        2.254974   -1.582600   -4.122411
     61          6           0        3.936509   -2.117582   -2.873972
     62          6           0        3.912925   -0.261089   -4.587371
     63          1           0        4.402909   -0.923260   -5.306589
     64          1           0        4.697421    0.290727   -4.055307
     65          1           0        3.288705    0.456998   -5.126862
     66          8           0        4.211474   -2.024853   -1.657834
     67          7           0        4.390624   -3.070181   -3.681130
     68          1           0        4.265070   -2.993983   -4.712439
     69          6           0        5.628752   -3.822971   -3.523304
     70          1           0        6.377408   -3.183889   -3.035953
     71          6           0        6.131182   -4.107712   -5.012586
     72          6           0        5.515052   -5.128352   -2.749134
     73          1           0        4.627430   -5.678623   -3.088802
     74          1           0        6.397333   -5.708520   -3.045192
     75          8           0        7.112374   -4.861501   -5.092292
     76          6           0        5.482743   -4.955342   -1.229008
     77          1           0        6.317301   -4.308311   -0.926798
     78          1           0        4.569121   -4.441443   -0.911871
     79          6           0        5.623098   -6.313214   -0.523974
     80          1           0        6.520115   -6.817952   -0.911110
     81          1           0        4.760756   -6.951643   -0.762631
     82          6           0        5.744265   -6.143464    0.976971
     83          1           0        6.591059   -5.512942    1.257393
     84          1           0        4.835686   -5.750777    1.438883
     85          7           0        6.003132   -7.506045    1.641024
     86          1           0        6.101282   -7.444308    2.661137
     87          1           0        5.237388   -8.157159    1.431699
     88          1           0        6.862368   -7.922946    1.262870
     89          8           0        5.450642   -3.520953   -5.900134
 ---------------------------------------------------------------------

 SCF Done:  E(RB3LYP) =  -2042.61672436     A.U. after    2 cycles

 Alpha  occ. eigenvalues --  -19.24368 -19.20638 -19.18092 -19.17988 -19.15880
 Alpha  occ. eigenvalues --  -19.06731 -19.05659 -14.62477 -14.57324 -14.47906
 Alpha  occ. eigenvalues --  -14.47576 -14.43970 -14.41031 -14.36528 -10.41412
 Alpha  occ. eigenvalues --  -10.38836 -10.38101 -10.37622 -10.34584 -10.33530
 Alpha  occ. eigenvalues --  -10.32402 -10.31786 -10.31714 -10.31635 -10.30271
 Alpha  occ. eigenvalues --  -10.29828 -10.29783 -10.29407 -10.29350 -10.29327
 Alpha  occ. eigenvalues --  -10.29291 -10.29107 -10.29012 -10.28826 -10.27857
 Alpha  occ. eigenvalues --  -10.27306 -10.27222 -10.26635 -10.25016 -10.24606
 Alpha  occ. eigenvalues --  -10.22220 -10.21812 -10.21166  -1.16955  -1.16340
 Alpha  occ. eigenvalues --   -1.12657  -1.11537  -1.09819  -1.07870  -1.06744
 Alpha  occ. eigenvalues --   -1.05647  -1.04513  -1.00640  -0.99822  -0.97981
 Alpha  occ. eigenvalues --   -0.94657  -0.94095  -0.93405  -0.91878  -0.91009
 Alpha  occ. eigenvalues --   -0.90588  -0.87773  -0.85741  -0.84138  -0.83580
 Alpha  occ. eigenvalues --   -0.83025  -0.81938  -0.79953  -0.78909  -0.77797
 Alpha  occ. eigenvalues --   -0.77219  -0.75949  -0.74969  -0.74492  -0.72639
 Alpha  occ. eigenvalues --   -0.71764  -0.71574  -0.70568  -0.70256  -0.69755
 Alpha  occ. eigenvalues --   -0.69511  -0.68329  -0.66811  -0.66187  -0.66039
 Alpha  occ. eigenvalues --   -0.65080  -0.64349  -0.63778  -0.63121  -0.62450
 Alpha  occ. eigenvalues --   -0.61162  -0.60098  -0.59497  -0.59227  -0.59050
 Alpha  occ. eigenvalues --   -0.58065  -0.57596  -0.57368  -0.56715  -0.56485
 Alpha  occ. eigenvalues --   -0.55649  -0.54068  -0.53807  -0.53694  -0.53555
 Alpha  occ. eigenvalues --   -0.53162  -0.52912  -0.52652  -0.52438  -0.52030
 Alpha  occ. eigenvalues --   -0.51947  -0.51462  -0.50762  -0.50509  -0.49426
 Alpha  occ. eigenvalues --   -0.49225  -0.49040  -0.48903  -0.48656  -0.48183
 Alpha  occ. eigenvalues --   -0.48100  -0.47464  -0.47182  -0.46881  -0.46735
 Alpha  occ. eigenvalues --   -0.46175  -0.45839  -0.45079  -0.44891  -0.44408
 Alpha  occ. eigenvalues --   -0.44320  -0.43616  -0.43561  -0.43497  -0.43268
 Alpha  occ. eigenvalues --   -0.43016  -0.42775  -0.42469  -0.41784  -0.41047
 Alpha  occ. eigenvalues --   -0.40095  -0.39104  -0.38487  -0.38165  -0.37988
 Alpha  occ. eigenvalues --   -0.37522  -0.37249  -0.36869  -0.36032  -0.35210
 Alpha  occ. eigenvalues --   -0.34861  -0.34111  -0.33049  -0.32305  -0.31751
 Alpha  occ. eigenvalues --   -0.30821  -0.30193  -0.29280  -0.28123  -0.21803
 Alpha  occ. eigenvalues --   -0.21601  -0.19990
 Alpha virt. eigenvalues --   -0.13143  -0.11902  -0.10899  -0.08411  -0.07448
 Alpha virt. eigenvalues --   -0.06591  -0.06527  -0.06298  -0.03979  -0.03576
 Alpha virt. eigenvalues --   -0.03412  -0.02759  -0.02073  -0.01498  -0.00923

 Mulliken charges:
               1
     1  N   -0.768709
     2  H    0.420475
     3  H    0.418310
     4  H    0.398064
     5  C   -0.106866
     6  H    0.200595
     7  C    0.664100
     8  C   -0.281637
     9  H    0.154847
    10  H    0.169501
    11  O   -0.549489
    12  C   -0.098928
    13  H    0.156591
    14  C   -0.458886
    15  H    0.153434
    16  H    0.139003
    17  H    0.185020
    18  C   -0.449356
    19  H    0.153593
    20  H    0.153606
    21  H    0.170069
    22  N   -0.611966
    23  H    0.380262
    24  C   -0.063510
    25  H    0.189833
    26  C    0.628296
    27  C   -0.369577
    28  H    0.173526
    29  H    0.183660
    30  O   -0.546442
    31  C    0.083130
    32  C    0.034474
    33  H    0.178418
    34  C    0.063063
    35  C    0.327837
    36  C   -0.221518
    37  H    0.148339
    38  N   -0.683386
    39  H    0.346398
    40  C   -0.206273
    41  H    0.156671
    42  C   -0.171618
    43  H    0.155272
    44  C   -0.192540
    45  H    0.152643
    46  N   -0.613587
    47  H    0.358885
    48  C   -0.080917
    49  H    0.187686
    50  C    0.601656
    51  C   -0.024042
    52  H    0.125305
    53  H    0.155242
    54  O   -0.548876
    55  O   -0.656858
    56  H    0.444154
    57  N   -0.578661
    58  H    0.341542
    59  C   -0.084261
    60  H    0.195957
    61  C    0.621124
    62  C   -0.472400
    63  H    0.211718
    64  H    0.151006
    65  H    0.161467
    66  O   -0.600594
    67  N   -0.590256
    68  H    0.369601
    69  C   -0.078063
    70  H    0.139242
    71  C    0.588874
    72  C   -0.260935
    73  H    0.131497
    74  H    0.172644
    75  O   -0.580148
    76  C   -0.267350
    77  H    0.147007
    78  H    0.170598
    79  C   -0.291724
    80  H    0.164781
    81  H    0.160099
    82  C   -0.205992
    83  H    0.226636
    84  H    0.221422
    85  N   -0.730411
    86  H    0.421950
    87  H    0.422190
    88  H    0.425701
    89  O   -0.611236
 Sum of Mulliken charges =   1.00000

 Dipole moment (field-independent basis, Debye):
    X=            -17.1267    Y=            -10.2256    Z=             28.2549  Tot=             34.5865
 Quadrupole moment (field-independent basis, Debye-Ang):
   XX=            -71.7571   YY=            -54.4880   ZZ=           -287.4046
   XY=           -143.6161   XZ=             85.9777   YZ=            -89.0217

 Normal termination of Gaussian 16 at Mon Jul  4 15:02:37 2022.
