 Gaussian 16, Revision C.01,
 Gaussian 16:  ES64L-G16RevC.01  3-Jul-2019

 ----------------------------------------------------------------------
 # B3LYP/6-31G* empiricaldispersion=gd3bj guess=read geom=check nosymm
 integral(ultrafinegrid)
 ----------------------------------------------------------------------

 ------------------------------------------------------
 Candidate Structure: Conf:112 Charge calc in gas phase
 ------------------------------------------------------
 Structure from the checkpoint file:  "conf-112.chk"
 Charge =  1 Multiplicity = 1

                          Input orientation:
 ---------------------------------------------------------------------
 Center     Atomic      Atomic             Coordinates (Angstroms)
 Number     Number       Type             X           Y           Z
 ---------------------------------------------------------------------
      1          7           0       -3.628958   -3.355534    2.507480
      2          1           0       -4.601745   -3.500264    2.220345
      3          1           0       -3.006296   -3.865515    1.836543
      4          1           0       -3.514179   -3.706107    3.464239
      5          6           0       -3.174177   -1.913665    2.379787
      6          1           0       -4.059384   -1.277478    2.433206
      7          6           0       -2.504694   -1.857432    0.997560
      8          6           0       -2.168244   -1.589986    3.494643
      9          1           0       -1.308006   -2.261713    3.386024
     10          1           0       -1.766342   -0.593850    3.287076
     11          8           0       -2.127851   -2.935502    0.498073
     12          6           0       -2.735832   -1.645033    4.925390
     13          1           0       -3.101382   -2.667207    5.137970
     14          6           0       -1.599919   -1.367380    5.919728
     15          1           0       -1.203899   -0.355498    5.777490
     16          1           0       -0.772765   -2.073671    5.793102
     17          1           0       -1.960549   -1.446346    6.949403
     18          6           0       -3.902098   -0.670600    5.131242
     19          1           0       -3.588828    0.357504    4.914009
     20          1           0       -4.770799   -0.899108    4.500875
     21          1           0       -4.246292   -0.698391    6.169091
     22          7           0       -2.382133   -0.653258    0.439680
     23          1           0       -2.628233    0.141723    1.019916
     24          6           0       -1.321459   -0.405503   -0.538403
     25          1           0       -1.274361   -1.298130   -1.158183
     26          6           0        0.005888   -0.304189    0.266024
     27          6           0       -1.632968    0.785788   -1.482099
     28          1           0       -2.725520    0.889623   -1.531594
     29          1           0       -1.239500    1.717437   -1.061438
     30          8           0        0.018394   -0.547932    1.477408
     31          6           0       -1.068276    0.525016   -2.846566
     32          6           0       -0.031995    1.170745   -3.502427
     33          1           0        0.572885    2.002878   -3.174676
     34          6           0       -1.487306   -0.542138   -3.714826
     35          6           0       -0.645020   -0.484822   -4.866786
     36          6           0       -2.488737   -1.535143   -3.650863
     37          1           0       -3.205689   -1.551330   -2.829959
     38          7           0        0.214311    0.577856   -4.708162
     39          1           0        1.076569    0.735259   -5.287973
     40          6           0       -1.742093   -2.374039   -5.824317
     41          1           0       -1.853422   -3.097607   -6.625849
     42          6           0       -0.749471   -1.402063   -5.918182
     43          1           0       -0.034175   -1.370916   -6.735774
     44          6           0       -2.611966   -2.435569   -4.713984
     45          1           0       -3.405737   -3.178624   -4.699947
     46          7           0        1.074150    0.026762   -0.461229
     47          1           0        0.979006    0.290627   -1.442560
     48          6           0        2.417790    0.189046    0.077334
     49          1           0        2.384491    0.847169    0.956262
     50          6           0        3.207240    0.868538   -1.058273
     51          6           0        3.024942   -1.164903    0.517239
     52          1           0        2.360836   -1.582639    1.278648
     53          1           0        3.993402   -0.979917    1.007908
     54          8           0        2.615105    1.281382   -2.052797
     55          8           0        3.124601   -2.106116   -0.521647
     56          1           0        3.924207   -1.922477   -1.070921
     57          7           0        4.557751    0.933477   -0.943002
     58          1           0        4.984521    0.391285   -0.202140
     59          6           0        5.337766    0.947760   -2.200350
     60          1           0        5.017007    1.816932   -2.776779
     61          6           0        4.958734   -0.367054   -2.912998
     62          6           0        6.826453    1.011712   -1.888706
     63          1           0        7.399395    1.069724   -2.818511
     64          1           0        7.138546    0.105942   -1.358470
     65          1           0        7.059285    1.891193   -1.280887
     66          8           0        5.170916   -1.442724   -2.314817
     67          7           0        4.341816   -0.254296   -4.085559
     68          1           0        4.025041    0.651885   -4.440754
     69          6           0        3.648569   -1.337075   -4.778209
     70          1           0        4.370263   -2.067764   -5.153739
     71          6           0        2.808805   -0.708454   -5.932916
     72          6           0        2.613076   -2.015840   -3.855003
     73          1           0        2.964284   -1.998393   -2.827804
     74          1           0        1.699578   -1.409773   -3.883920
     75          8           0        2.261607   -1.508419   -6.710192
     76          6           0        2.301049   -3.456552   -4.262623
     77          1           0        2.323311   -3.528565   -5.353369
     78          1           0        3.070038   -4.128556   -3.861564
     79          6           0        0.903586   -3.891295   -3.801195
     80          1           0        0.762419   -4.969523   -3.962369
     81          1           0        0.172704   -3.370274   -4.428782
     82          6           0        0.604403   -3.551445   -2.346093
     83          1           0        1.144478   -4.169639   -1.625757
     84          1           0        0.810092   -2.507455   -2.110710
     85          7           0       -0.882695   -3.752531   -2.103118
     86          1           0       -1.185372   -3.508532   -1.145291
     87          1           0       -1.424124   -3.151220   -2.769219
     88          1           0       -1.147976   -4.723222   -2.294767
     89          8           0        2.651155    0.554832   -5.846181
 ---------------------------------------------------------------------

 SCF Done:  E(RB3LYP) =  -2042.66523342     A.U. after    3 cycles

 Alpha  occ. eigenvalues --  -19.30935 -19.22902 -19.21428 -19.20906 -19.17009
 Alpha  occ. eigenvalues --  -19.11899 -19.11075 -14.63363 -14.56191 -14.52700
 Alpha  occ. eigenvalues --  -14.46026 -14.44157 -14.42516 -14.40305 -10.47172
 Alpha  occ. eigenvalues --  -10.43323 -10.39954 -10.37709 -10.36242 -10.34696
 Alpha  occ. eigenvalues --  -10.34405 -10.33956 -10.33947 -10.32682 -10.32064
 Alpha  occ. eigenvalues --  -10.30761 -10.30580 -10.29915 -10.29646 -10.29529
 Alpha  occ. eigenvalues --  -10.28949 -10.28624 -10.27667 -10.27352 -10.27083
 Alpha  occ. eigenvalues --  -10.26573 -10.26262 -10.25782 -10.25431 -10.25431
 Alpha  occ. eigenvalues --  -10.24495 -10.23861 -10.22678  -1.22688  -1.17399
 Alpha  occ. eigenvalues --   -1.14847  -1.13135  -1.10881  -1.09378  -1.09207
 Alpha  occ. eigenvalues --   -1.08287  -1.05055  -1.03882  -1.02750  -1.00589
 Alpha  occ. eigenvalues --   -0.97327  -0.97320  -0.95664  -0.92829  -0.91614
 Alpha  occ. eigenvalues --   -0.90263  -0.88671  -0.86402  -0.84860  -0.83037
 Alpha  occ. eigenvalues --   -0.82363  -0.81636  -0.81230  -0.80873  -0.79893
 Alpha  occ. eigenvalues --   -0.77262  -0.76885  -0.76241  -0.75926  -0.75608
 Alpha  occ. eigenvalues --   -0.74344  -0.72809  -0.71212  -0.70708  -0.70006
 Alpha  occ. eigenvalues --   -0.69383  -0.69125  -0.68027  -0.67739  -0.66543
 Alpha  occ. eigenvalues --   -0.66273  -0.65959  -0.64497  -0.63755  -0.63546
 Alpha  occ. eigenvalues --   -0.62149  -0.61633  -0.61267  -0.60511  -0.60155
 Alpha  occ. eigenvalues --   -0.59559  -0.59342  -0.58808  -0.57523  -0.57262
 Alpha  occ. eigenvalues --   -0.56872  -0.55980  -0.55520  -0.55410  -0.55235
 Alpha  occ. eigenvalues --   -0.55016  -0.54644  -0.54156  -0.53468  -0.53314
 Alpha  occ. eigenvalues --   -0.52996  -0.52297  -0.51641  -0.51222  -0.50905
 Alpha  occ. eigenvalues --   -0.50593  -0.50425  -0.50305  -0.50094  -0.49523
 Alpha  occ. eigenvalues --   -0.49107  -0.48565  -0.48205  -0.48097  -0.47752
 Alpha  occ. eigenvalues --   -0.47643  -0.47443  -0.46956  -0.46738  -0.46669
 Alpha  occ. eigenvalues --   -0.46438  -0.45898  -0.45405  -0.45027  -0.44699
 Alpha  occ. eigenvalues --   -0.44602  -0.43527  -0.43475  -0.43177  -0.42715
 Alpha  occ. eigenvalues --   -0.42325  -0.41819  -0.41306  -0.40790  -0.40534
 Alpha  occ. eigenvalues --   -0.40115  -0.39205  -0.38549  -0.38061  -0.37036
 Alpha  occ. eigenvalues --   -0.36870  -0.35456  -0.34848  -0.34308  -0.33998
 Alpha  occ. eigenvalues --   -0.31169  -0.30256  -0.30002  -0.28282  -0.27269
 Alpha  occ. eigenvalues --   -0.26546  -0.25046
 Alpha virt. eigenvalues --   -0.15976  -0.13976  -0.09921  -0.09284  -0.08985
 Alpha virt. eigenvalues --   -0.07875  -0.07422  -0.07186  -0.05728  -0.05315
 Alpha virt. eigenvalues --   -0.04176  -0.03952  -0.03439  -0.02092  -0.01773

 Mulliken charges:
               1
     1  N   -0.747126
     2  H    0.420999
     3  H    0.426331
     4  H    0.419694
     5  C   -0.148926
     6  H    0.216179
     7  C    0.687154
     8  C   -0.279581
     9  H    0.186802
    10  H    0.211297
    11  O   -0.580715
    12  C   -0.109930
    13  H    0.111575
    14  C   -0.446368
    15  H    0.171447
    16  H    0.163547
    17  H    0.176835
    18  C   -0.455531
    19  H    0.169330
    20  H    0.128722
    21  H    0.189665
    22  N   -0.560019
    23  H    0.358394
    24  C   -0.094287
    25  H    0.172210
    26  C    0.625532
    27  C   -0.379060
    28  H    0.171254
    29  H    0.176299
    30  O   -0.557994
    31  C    0.003555
    32  C    0.015224
    33  H    0.192018
    34  C    0.123113
    35  C    0.268013
    36  C   -0.337268
    37  H    0.112455
    38  N   -0.665625
    39  H    0.416244
    40  C   -0.171150
    41  H    0.150060
    42  C   -0.145656
    43  H    0.222396
    44  C   -0.148773
    45  H    0.127256
    46  N   -0.625879
    47  H    0.403010
    48  C   -0.053498
    49  H    0.184359
    50  C    0.607471
    51  C   -0.064773
    52  H    0.168349
    53  H    0.133640
    54  O   -0.524368
    55  O   -0.651106
    56  H    0.456109
    57  N   -0.588832
    58  H    0.336262
    59  C   -0.042631
    60  H    0.181544
    61  C    0.619711
    62  C   -0.477401
    63  H    0.182064
    64  H    0.171358
    65  H    0.166514
    66  O   -0.600218
    67  N   -0.585251
    68  H    0.365626
    69  C   -0.023385
    70  H    0.164641
    71  C    0.571131
    72  C   -0.319426
    73  H    0.156466
    74  H    0.142925
    75  O   -0.558886
    76  C   -0.262576
    77  H    0.199215
    78  H    0.143614
    79  C   -0.315875
    80  H    0.138221
    81  H    0.187498
    82  C   -0.197493
    83  H    0.205622
    84  H    0.222508
    85  N   -0.796481
    86  H    0.426397
    87  H    0.400399
    88  H    0.390309
    89  O   -0.622477
 Sum of Mulliken charges =   1.00000

 Dipole moment (field-independent basis, Debye):
    X=            -17.4207    Y=            -14.4918    Z=             17.8758  Tot=             28.8623
 Quadrupole moment (field-independent basis, Debye-Ang):
   XX=           -181.9508   YY=           -184.8720   ZZ=           -270.1283
   XY=             62.0417   XZ=            -15.3599   YZ=            -15.9169

 Normal termination of Gaussian 16 at Mon Jul  4 15:05:24 2022.
