 Gaussian 16, Revision C.01,
 Gaussian 16:  ES64L-G16RevC.01  3-Jul-2019

 ----------------------------------------------------------------------
 # B3LYP/6-31G* empiricaldispersion=gd3bj guess=read geom=check nosymm
 integral(ultrafinegrid)
 ----------------------------------------------------------------------

 -----------------------------------------------------
 Candidate Structure: Conf:34 Charge calc in gas phase
 -----------------------------------------------------
 Structure from the checkpoint file:  "conf-34.chk"
 Charge =  1 Multiplicity = 1

                          Input orientation:
 ---------------------------------------------------------------------
 Center     Atomic      Atomic             Coordinates (Angstroms)
 Number     Number       Type             X           Y           Z
 ---------------------------------------------------------------------
      1          7           0       -6.180671    1.554941    2.845254
      2          1           0       -6.484614    2.532186    2.834117
      3          1           0       -6.428642    1.103761    1.907111
      4          1           0       -6.635100    1.074783    3.626321
      5          6           0       -4.672854    1.392727    2.847187
      6          1           0       -4.225150    2.335732    3.163398
      7          6           0       -4.385742    1.079406    1.357033
      8          6           0       -4.290283    0.238469    3.789194
      9          1           0       -4.683203    0.478404    4.788151
     10          1           0       -4.803109   -0.668599    3.442212
     11          8           0       -5.350382    0.722048    0.658314
     12          6           0       -2.780247   -0.050811    3.919899
     13          1           0       -2.391251   -0.351725    2.941410
     14          6           0       -1.988659    1.173365    4.397226
     15          1           0       -2.347448    1.518673    5.375057
     16          1           0       -2.041999    2.021785    3.703194
     17          1           0       -0.930094    0.918651    4.496148
     18          6           0       -2.583257   -1.232737    4.878030
     19          1           0       -2.933593   -0.986871    5.888126
     20          1           0       -3.125012   -2.121332    4.535994
     21          1           0       -1.523048   -1.493538    4.944801
     22          7           0       -3.130465    1.193535    0.958309
     23          1           0       -2.376205    1.401179    1.614846
     24          6           0       -2.602680    0.689933   -0.308099
     25          1           0       -3.298405   -0.048646   -0.709406
     26          6           0       -1.260300    0.044795    0.074881
     27          6           0       -2.399322    1.842174   -1.332851
     28          1           0       -3.392830    2.232866   -1.586477
     29          1           0       -1.846419    2.645042   -0.832311
     30          8           0       -0.638534    0.505348    1.051339
     31          6           0       -1.643824    1.361734   -2.528594
     32          6           0       -0.325363    1.621896   -2.810095
     33          1           0        0.363472    2.287641   -2.310405
     34          6           0       -2.066986    0.334666   -3.451023
     35          6           0       -0.940521    0.021820   -4.262521
     36          6           0       -3.262854   -0.380603   -3.637165
     37          1           0       -4.146165   -0.150769   -3.045518
     38          7           0        0.093702    0.857863   -3.880113
     39          1           0        1.068618    0.638528   -4.038118
     40          6           0       -2.170850   -1.682281   -5.383487
     41          1           0       -2.230190   -2.477702   -6.119737
     42          6           0       -0.980328   -0.980862   -5.233721
     43          1           0       -0.109884   -1.211009   -5.840964
     44          6           0       -3.301348   -1.383671   -4.597748
     45          1           0       -4.216118   -1.948902   -4.748308
     46          7           0       -0.857475   -0.976558   -0.676889
     47          1           0       -1.353512   -1.217737   -1.534107
     48          6           0        0.465389   -1.599186   -0.568330
     49          1           0        0.744317   -1.701433    0.480146
     50          6           0        1.491636   -0.708580   -1.287626
     51          6           0        0.381881   -2.971745   -1.239454
     52          1           0       -0.277584   -3.620475   -0.656171
     53          1           0        1.382076   -3.409653   -1.256643
     54          8           0        1.896796   -0.954199   -2.428190
     55          8           0       -0.203277   -2.845486   -2.531493
     56          1           0        0.456152   -2.352501   -3.053329
     57          7           0        1.880552    0.398055   -0.605904
     58          1           0        1.494153    0.541278    0.320472
     59          6           0        2.986747    1.224391   -1.076510
     60          1           0        2.743182    1.637502   -2.060727
     61          6           0        4.263800    0.377233   -1.311008
     62          6           0        3.245028    2.360828   -0.088720
     63          1           0        4.073411    2.975657   -0.450385
     64          1           0        3.516550    1.963723    0.895877
     65          1           0        2.360096    2.998003    0.023002
     66          8           0        5.050501    0.691022   -2.205307
     67          7           0        4.409040   -0.649374   -0.447195
     68          1           0        3.591869   -0.885282    0.131327
     69          6           0        4.989904   -1.941062   -0.808238
     70          1           0        4.877876   -2.082371   -1.892326
     71          6           0        4.091642   -3.044171   -0.110850
     72          6           0        6.460433   -2.100144   -0.441835
     73          1           0        6.611271   -1.757617    0.591254
     74          1           0        6.675701   -3.173858   -0.471312
     75          8           0        4.531792   -4.200038   -0.155296
     76          6           0        7.381451   -1.332544   -1.391637
     77          1           0        7.240822   -1.716849   -2.411241
     78          1           0        7.089139   -0.277561   -1.428450
     79          6           0        8.859686   -1.472333   -1.002507
     80          1           0        9.133961   -2.536757   -0.970536
     81          1           0        9.018894   -1.061408    0.004738
     82          6           0        9.734170   -0.742339   -2.002527
     83          1           0        9.636424   -1.142789   -3.014027
     84          1           0        9.541495    0.332561   -2.023197
     85          7           0       11.218320   -0.899218   -1.633399
     86          1           0       11.845903   -0.420649   -2.290074
     87          1           0       11.393710   -0.524346   -0.693853
     88          1           0       11.475412   -1.893188   -1.613601
     89          8           0        3.009976   -2.598611    0.389947
 ---------------------------------------------------------------------

 SCF Done:  E(RB3LYP) =  -2042.61662308     A.U. after    3 cycles

 Alpha  occ. eigenvalues --  -19.25418 -19.19675 -19.16957 -19.16686 -19.13741
 Alpha  occ. eigenvalues --  -19.07986 -19.06787 -14.62154 -14.58777 -14.47861
 Alpha  occ. eigenvalues --  -14.42676 -14.42036 -14.40374 -14.35480 -10.42042
 Alpha  occ. eigenvalues --  -10.39364 -10.38408 -10.36345 -10.33342 -10.32184
 Alpha  occ. eigenvalues --  -10.32160 -10.30544 -10.30007 -10.29441 -10.27411
 Alpha  occ. eigenvalues --  -10.27048 -10.27036 -10.26975 -10.26934 -10.26395
 Alpha  occ. eigenvalues --  -10.26027 -10.25675 -10.25511 -10.24479 -10.23771
 Alpha  occ. eigenvalues --  -10.23575 -10.23436 -10.23296 -10.23211 -10.22762
 Alpha  occ. eigenvalues --  -10.22611 -10.22355 -10.21140  -1.17947  -1.16013
 Alpha  occ. eigenvalues --   -1.12603  -1.11294  -1.08500  -1.05084  -1.04649
 Alpha  occ. eigenvalues --   -1.04321  -1.02378  -1.00756  -0.99134  -0.97153
 Alpha  occ. eigenvalues --   -0.93573  -0.93408  -0.91736  -0.91340  -0.88900
 Alpha  occ. eigenvalues --   -0.88124  -0.86588  -0.83259  -0.82806  -0.81863
 Alpha  occ. eigenvalues --   -0.79491  -0.78978  -0.78002  -0.77451  -0.77131
 Alpha  occ. eigenvalues --   -0.76817  -0.74666  -0.74247  -0.73912  -0.72688
 Alpha  occ. eigenvalues --   -0.71856  -0.70610  -0.70000  -0.68794  -0.67533
 Alpha  occ. eigenvalues --   -0.66756  -0.66446  -0.65856  -0.64537  -0.64069
 Alpha  occ. eigenvalues --   -0.63710  -0.62790  -0.61944  -0.61926  -0.61355
 Alpha  occ. eigenvalues --   -0.59255  -0.59114  -0.58390  -0.58144  -0.57957
 Alpha  occ. eigenvalues --   -0.56227  -0.55974  -0.55167  -0.54845  -0.54379
 Alpha  occ. eigenvalues --   -0.53394  -0.53236  -0.53051  -0.52611  -0.52321
 Alpha  occ. eigenvalues --   -0.52288  -0.51746  -0.51393  -0.50394  -0.50193
 Alpha  occ. eigenvalues --   -0.49516  -0.49265  -0.48309  -0.48094  -0.47860
 Alpha  occ. eigenvalues --   -0.47717  -0.47344  -0.47183  -0.46588  -0.46522
 Alpha  occ. eigenvalues --   -0.46091  -0.45919  -0.45760  -0.45414  -0.45247
 Alpha  occ. eigenvalues --   -0.44467  -0.44247  -0.43633  -0.43406  -0.43325
 Alpha  occ. eigenvalues --   -0.43003  -0.42961  -0.42756  -0.42531  -0.42167
 Alpha  occ. eigenvalues --   -0.41916  -0.41234  -0.40090  -0.39988  -0.39750
 Alpha  occ. eigenvalues --   -0.38431  -0.38278  -0.38227  -0.37717  -0.37439
 Alpha  occ. eigenvalues --   -0.37394  -0.36594  -0.36465  -0.34623  -0.34295
 Alpha  occ. eigenvalues --   -0.33821  -0.32234  -0.31288  -0.30397  -0.28942
 Alpha  occ. eigenvalues --   -0.27597  -0.26868  -0.26837  -0.25129  -0.23108
 Alpha  occ. eigenvalues --   -0.22812  -0.20940
 Alpha virt. eigenvalues --   -0.12844  -0.10888  -0.09954  -0.06224  -0.06183
 Alpha virt. eigenvalues --   -0.06018  -0.05479  -0.05274  -0.03480  -0.02914
 Alpha virt. eigenvalues --   -0.02584  -0.02185  -0.00649  -0.00500   0.00098

 Mulliken charges:
               1
     1  N   -0.757746
     2  H    0.413444
     3  H    0.433360
     4  H    0.410796
     5  C   -0.118397
     6  H    0.211904
     7  C    0.644469
     8  C   -0.285820
     9  H    0.159520
    10  H    0.173885
    11  O   -0.545011
    12  C   -0.107883
    13  H    0.171725
    14  C   -0.459457
    15  H    0.150787
    16  H    0.132042
    17  H    0.192189
    18  C   -0.452181
    19  H    0.149927
    20  H    0.158616
    21  H    0.181013
    22  N   -0.599698
    23  H    0.384637
    24  C   -0.073870
    25  H    0.198435
    26  C    0.642822
    27  C   -0.340504
    28  H    0.164862
    29  H    0.151989
    30  O   -0.592108
    31  C    0.046598
    32  C    0.003614
    33  H    0.156723
    34  C    0.053422
    35  C    0.304397
    36  C   -0.227902
    37  H    0.121314
    38  N   -0.664262
    39  H    0.357707
    40  C   -0.135187
    41  H    0.137818
    42  C   -0.167462
    43  H    0.141420
    44  C   -0.129578
    45  H    0.129613
    46  N   -0.593095
    47  H    0.379783
    48  C   -0.091292
    49  H    0.209736
    50  C    0.671689
    51  C   -0.067239
    52  H    0.143669
    53  H    0.209833
    54  O   -0.568996
    55  O   -0.645907
    56  H    0.417823
    57  N   -0.637511
    58  H    0.358274
    59  C   -0.005661
    60  H    0.155604
    61  C    0.594456
    62  C   -0.483681
    63  H    0.175283
    64  H    0.161678
    65  H    0.148881
    66  O   -0.559750
    67  N   -0.605533
    68  H    0.350136
    69  C   -0.071887
    70  H    0.149781
    71  C    0.589216
    72  C   -0.253575
    73  H    0.123348
    74  H    0.168188
    75  O   -0.572796
    76  C   -0.275735
    77  H    0.145529
    78  H    0.185016
    79  C   -0.290549
    80  H    0.160787
    81  H    0.156872
    82  C   -0.206453
    83  H    0.225897
    84  H    0.228364
    85  N   -0.731027
    86  H    0.423220
    87  H    0.422218
    88  H    0.423652
    89  O   -0.640222
 Sum of Mulliken charges =   1.00000

 Dipole moment (field-independent basis, Debye):
    X=             13.8390    Y=             11.1441    Z=              7.1902  Tot=             19.1679
 Quadrupole moment (field-independent basis, Debye-Ang):
   XX=            304.7775   YY=           -273.1507   ZZ=           -200.9665
   XY=            -35.2872   XZ=           -134.2085   YZ=             27.3791

 Normal termination of Gaussian 16 at Mon Jul  4 15:03:07 2022.
