 Gaussian 16, Revision C.01,
 Gaussian 16:  ES64L-G16RevC.01  3-Jul-2019

 ----------------------------------------------------------------------
 # B3LYP/6-31G* empiricaldispersion=gd3bj guess=read geom=check nosymm
 integral(ultrafinegrid)
 ----------------------------------------------------------------------

 ------------------------------------------------------
 Candidate Structure: Conf:231 Charge calc in gas phase
 ------------------------------------------------------
 Structure from the checkpoint file:  "conf-231.chk"
 Charge =  1 Multiplicity = 1

                          Input orientation:
 ---------------------------------------------------------------------
 Center     Atomic      Atomic             Coordinates (Angstroms)
 Number     Number       Type             X           Y           Z
 ---------------------------------------------------------------------
      1          7           0       -5.042951   -2.240611    3.009056
      2          1           0       -6.059890   -2.149365    3.084807
      3          1           0       -4.801382   -2.581972    2.032972
      4          1           0       -4.714275   -2.897526    3.722064
      5          6           0       -4.312282   -0.911290    3.063704
      6          1           0       -4.981533   -0.173751    3.508683
      7          6           0       -4.025848   -0.635789    1.570434
      8          6           0       -3.016398   -1.081181    3.880452
      9          1           0       -3.284353   -1.588802    4.819450
     10          1           0       -2.328702   -1.729330    3.322499
     11          8           0       -4.118572   -1.591781    0.790250
     12          6           0       -2.278156    0.223279    4.244041
     13          1           0       -1.907706    0.680078    3.320175
     14          6           0       -3.174138    1.224948    4.983614
     15          1           0       -3.606169    0.779946    5.889049
     16          1           0       -4.003679    1.602026    4.369755
     17          1           0       -2.590957    2.097454    5.292935
     18          6           0       -1.047548   -0.141513    5.086585
     19          1           0       -1.342981   -0.591235    6.042932
     20          1           0       -0.404061   -0.850343    4.555988
     21          1           0       -0.459962    0.754949    5.307286
     22          7           0       -3.657437    0.603349    1.217685
     23          1           0       -3.449648    1.261551    1.960758
     24          6           0       -2.876590    0.795343   -0.016662
     25          1           0       -3.281936    0.102729   -0.752207
     26          6           0       -1.434870    0.415975    0.337361
     27          6           0       -2.939875    2.236743   -0.546793
     28          1           0       -3.960432    2.441600   -0.892631
     29          1           0       -2.719800    2.929600    0.273641
     30          8           0       -0.886594    0.945972    1.318699
     31          6           0       -1.913392    2.400070   -1.629185
     32          6           0       -0.797377    3.199105   -1.568008
     33          1           0       -0.509858    3.919700   -0.815226
     34          6           0       -1.784951    1.599540   -2.824699
     35          6           0       -0.556099    1.967452   -3.439913
     36          6           0       -2.560168    0.586690   -3.417965
     37          1           0       -3.519371    0.298340   -2.995179
     38          7           0        0.016063    2.949611   -2.653140
     39          1           0        0.864118    3.449739   -2.870217
     40          6           0       -0.874278    0.350214   -5.160233
     41          1           0       -0.540420   -0.148480   -6.064788
     42          6           0       -0.091877    1.357451   -4.608120
     43          1           0        0.847648    1.654212   -5.065290
     44          6           0       -2.096079   -0.031252   -4.571500
     45          1           0       -2.684018   -0.818259   -5.032933
     46          7           0       -0.877230   -0.531403   -0.417120
     47          1           0       -1.318688   -0.883391   -1.265407
     48          6           0        0.484253   -0.989916   -0.221907
     49          1           0        1.113553   -0.126220    0.022970
     50          6           0        0.911022   -1.614106   -1.560448
     51          6           0        0.565385   -2.021504    0.925339
     52          1           0        1.624535   -2.246921    1.119053
     53          1           0        0.073933   -2.948547    0.610231
     54          8           0        0.057131   -1.982881   -2.367381
     55          8           0       -0.091680   -1.575340    2.102974
     56          1           0       -0.063776   -0.598316    2.106314
     57          7           0        2.234220   -1.736792   -1.747924
     58          1           0        2.923339   -1.443692   -1.059698
     59          6           0        2.807789   -2.335051   -2.941579
     60          1           0        2.289009   -3.278473   -3.146930
     61          6           0        4.280407   -2.610864   -2.600705
     62          6           0        2.675615   -1.411228   -4.163691
     63          1           0        3.078904   -1.891124   -5.060873
     64          1           0        3.224114   -0.479206   -3.991965
     65          1           0        1.621431   -1.179291   -4.331250
     66          8           0        4.802107   -2.117608   -1.594801
     67          7           0        4.939336   -3.383814   -3.478451
     68          1           0        4.501578   -3.763892   -4.312186
     69          6           0        6.355636   -3.684336   -3.353305
     70          1           0        6.865916   -2.781224   -3.007829
     71          6           0        6.837475   -4.076815   -4.758606
     72          6           0        6.581982   -4.829679   -2.338467
     73          1           0        6.022925   -4.561433   -1.435131
     74          1           0        6.120970   -5.734858   -2.751037
     75          8           0        8.136578   -3.980471   -4.994096
     76          6           0        8.044315   -5.104787   -1.968912
     77          1           0        8.066481   -6.021245   -1.369651
     78          1           0        8.616436   -5.331128   -2.875609
     79          6           0        8.726337   -3.959849   -1.178604
     80          1           0        9.044829   -4.322271   -0.194844
     81          1           0        8.006988   -3.153460   -0.976208
     82          6           0        9.954465   -3.372174   -1.873666
     83          1           0       10.499792   -2.712672   -1.184123
     84          1           0       10.637604   -4.179132   -2.160084
     85          7           0        9.574660   -2.657967   -3.114455
     86          1           0       10.410514   -2.383158   -3.630344
     87          1           0        8.637303   -3.514491   -4.240931
     88          1           0        9.098004   -1.788811   -2.872269
     89          8           0        6.046066   -4.491860   -5.584339
 ---------------------------------------------------------------------

 SCF Done:  E(RB3LYP) =  -2042.69302993     A.U. after    3 cycles

 Alpha  occ. eigenvalues --  -19.27248 -19.22277 -19.22028 -19.21582 -19.19664
 Alpha  occ. eigenvalues --  -19.18906 -19.17842 -14.59988 -14.49918 -14.45351
 Alpha  occ. eigenvalues --  -14.45336 -14.43648 -14.42616 -14.41834 -10.43804
 Alpha  occ. eigenvalues --  -10.40456 -10.38552 -10.36951 -10.36334 -10.35852
 Alpha  occ. eigenvalues --  -10.33989 -10.32352 -10.32088 -10.31924 -10.30722
 Alpha  occ. eigenvalues --  -10.29817 -10.29609 -10.29565 -10.29048 -10.29009
 Alpha  occ. eigenvalues --  -10.28516 -10.28114 -10.26333 -10.26028 -10.25786
 Alpha  occ. eigenvalues --  -10.25721 -10.25635 -10.25123 -10.24903 -10.24886
 Alpha  occ. eigenvalues --  -10.24859 -10.24853 -10.24393  -1.19757  -1.14121
 Alpha  occ. eigenvalues --   -1.13725  -1.13607  -1.11819  -1.10594  -1.09464
 Alpha  occ. eigenvalues --   -1.06393  -1.05701  -1.05203  -1.01982  -1.00350
 Alpha  occ. eigenvalues --   -0.99340  -0.97408  -0.94364  -0.91168  -0.90156
 Alpha  occ. eigenvalues --   -0.87929  -0.87047  -0.86027  -0.84385  -0.82920
 Alpha  occ. eigenvalues --   -0.80818  -0.80524  -0.80114  -0.79157  -0.77973
 Alpha  occ. eigenvalues --   -0.75948  -0.75789  -0.74201  -0.73920  -0.73157
 Alpha  occ. eigenvalues --   -0.72755  -0.71311  -0.69298  -0.69203  -0.68049
 Alpha  occ. eigenvalues --   -0.67326  -0.66762  -0.66445  -0.65798  -0.65508
 Alpha  occ. eigenvalues --   -0.65278  -0.64154  -0.63653  -0.63145  -0.62542
 Alpha  occ. eigenvalues --   -0.61337  -0.60210  -0.59915  -0.59203  -0.58438
 Alpha  occ. eigenvalues --   -0.57935  -0.57341  -0.57014  -0.55736  -0.55548
 Alpha  occ. eigenvalues --   -0.55470  -0.54715  -0.54613  -0.54169  -0.53998
 Alpha  occ. eigenvalues --   -0.53866  -0.53140  -0.52668  -0.52096  -0.51967
 Alpha  occ. eigenvalues --   -0.51667  -0.51187  -0.50718  -0.50334  -0.50189
 Alpha  occ. eigenvalues --   -0.50048  -0.49946  -0.49437  -0.48849  -0.48639
 Alpha  occ. eigenvalues --   -0.48449  -0.48284  -0.48097  -0.48049  -0.47317
 Alpha  occ. eigenvalues --   -0.47253  -0.46837  -0.46695  -0.45928  -0.45839
 Alpha  occ. eigenvalues --   -0.45298  -0.44924  -0.44445  -0.44001  -0.43740
 Alpha  occ. eigenvalues --   -0.43641  -0.43338  -0.43108  -0.42555  -0.42279
 Alpha  occ. eigenvalues --   -0.42075  -0.41750  -0.41529  -0.40553  -0.40268
 Alpha  occ. eigenvalues --   -0.40167  -0.39886  -0.39784  -0.39001  -0.36090
 Alpha  occ. eigenvalues --   -0.35540  -0.35017  -0.34795  -0.34435  -0.34141
 Alpha  occ. eigenvalues --   -0.33728  -0.33250  -0.32983  -0.32040  -0.31284
 Alpha  occ. eigenvalues --   -0.29216  -0.27656
 Alpha virt. eigenvalues --   -0.12895  -0.10922  -0.08335  -0.07992  -0.06438
 Alpha virt. eigenvalues --   -0.05850  -0.05380  -0.04570  -0.04347  -0.03192
 Alpha virt. eigenvalues --   -0.01914  -0.01568  -0.00738  -0.00476  -0.00215

 Mulliken charges:
               1
     1  N   -0.753924
     2  H    0.415642
     3  H    0.434778
     4  H    0.414228
     5  C   -0.121857
     6  H    0.211869
     7  C    0.657502
     8  C   -0.305733
     9  H    0.151485
    10  H    0.213236
    11  O   -0.528570
    12  C   -0.124463
    13  H    0.182246
    14  C   -0.465417
    15  H    0.154845
    16  H    0.125779
    17  H    0.182634
    18  C   -0.466710
    19  H    0.147208
    20  H    0.183215
    21  H    0.166193
    22  N   -0.586303
    23  H    0.363389
    24  C   -0.078183
    25  H    0.197196
    26  C    0.653902
    27  C   -0.352286
    28  H    0.173368
    29  H    0.157309
    30  O   -0.582736
    31  C    0.030556
    32  C    0.021062
    33  H    0.164668
    34  C    0.085269
    35  C    0.314152
    36  C   -0.240339
    37  H    0.125752
    38  N   -0.687686
    39  H    0.338298
    40  C   -0.146210
    41  H    0.142100
    42  C   -0.159835
    43  H    0.137236
    44  C   -0.118797
    45  H    0.138079
    46  N   -0.582141
    47  H    0.382717
    48  C   -0.121243
    49  H    0.182122
    50  C    0.630309
    51  C    0.013685
    52  H    0.143889
    53  H    0.154261
    54  O   -0.535535
    55  O   -0.659683
    56  H    0.430032
    57  N   -0.624456
    58  H    0.357733
    59  C   -0.037315
    60  H    0.183130
    61  C    0.623406
    62  C   -0.462318
    63  H    0.163155
    64  H    0.151995
    65  H    0.199674
    66  O   -0.557975
    67  N   -0.619116
    68  H    0.360032
    69  C   -0.058666
    70  H    0.158210
    71  C    0.602223
    72  C   -0.273812
    73  H    0.167663
    74  H    0.156088
    75  O   -0.609091
    76  C   -0.286621
    77  H    0.153911
    78  H    0.158275
    79  C   -0.274040
    80  H    0.155513
    81  H    0.154980
    82  C   -0.151677
    83  H    0.147399
    84  H    0.168008
    85  N   -0.777485
    86  H    0.340204
    87  H    0.480466
    88  H    0.328914
    89  O   -0.480972
 Sum of Mulliken charges =   1.00000

 Dipole moment (field-independent basis, Debye):
    X=             -7.2128    Y=             -2.8909    Z=             10.5665  Tot=             13.1161
 Quadrupole moment (field-independent basis, Debye-Ang):
   XX=            -65.2149   YY=           -227.2445   ZZ=           -223.4688
   XY=             18.3204   XZ=            -67.0107   YZ=            -37.5795

 Normal termination of Gaussian 16 at Mon Jul  4 15:04:55 2022.
