 Gaussian 16, Revision C.01,
 Gaussian 16:  ES64L-G16RevC.01  3-Jul-2019

 ----------------------------------------------------------------------
 # B3LYP/6-31G* empiricaldispersion=gd3bj guess=read geom=check nosymm
 integral(ultrafinegrid)
 ----------------------------------------------------------------------

 ------------------------------------------------------
 Candidate Structure: Conf:684 Charge calc in gas phase
 ------------------------------------------------------
 Structure from the checkpoint file:  "conf-684.chk"
 Charge =  1 Multiplicity = 1

                          Input orientation:
 ---------------------------------------------------------------------
 Center     Atomic      Atomic             Coordinates (Angstroms)
 Number     Number       Type             X           Y           Z
 ---------------------------------------------------------------------
      1          7           0       -2.184543   -2.709954   -0.252939
      2          1           0       -2.924285   -2.827874   -0.944530
      3          1           0       -0.735793   -3.397538   -0.831030
      4          1           0       -2.422117   -3.300423    0.543261
      5          6           0       -2.116765   -1.303047    0.192748
      6          1           0       -3.117684   -0.931417    0.451835
      7          6           0       -1.544830   -0.434719   -0.936697
      8          6           0       -1.196066   -1.162562    1.420737
      9          1           0       -1.357936   -2.017637    2.088340
     10          1           0       -0.163084   -1.243899    1.073064
     11          8           0       -0.550103   -0.751939   -1.591897
     12          6           0       -1.372858    0.142574    2.216704
     13          1           0       -1.388146    0.985638    1.509049
     14          6           0       -2.689164    0.156999    3.003865
     15          1           0       -2.706595   -0.659201    3.736412
     16          1           0       -3.567581    0.053243    2.358812
     17          1           0       -2.799962    1.098161    3.553330
     18          6           0       -0.174600    0.343187    3.152378
     19          1           0       -0.065185   -0.510981    3.831958
     20          1           0        0.753353    0.458914    2.583654
     21          1           0       -0.299382    1.243619    3.762710
     22          7           0       -2.159698    0.763954   -1.101521
     23          1           0       -3.053650    0.916012   -0.645930
     24          6           0       -1.851930    1.641814   -2.224464
     25          1           0       -2.149085    1.160913   -3.162125
     26          6           0       -0.361448    1.921462   -2.379551
     27          6           0       -2.624105    2.977402   -2.079333
     28          1           0       -2.229841    3.518159   -1.210511
     29          1           0       -2.391727    3.578669   -2.963675
     30          8           0        0.124925    2.047950   -3.507554
     31          6           0       -4.102022    2.774495   -1.941042
     32          6           0       -5.024864    2.704030   -2.957795
     33          1           0       -4.888940    2.840872   -4.021749
     34          6           0       -4.823118    2.524538   -0.713939
     35          6           0       -6.185103    2.304400   -1.067086
     36          6           0       -4.458559    2.471603    0.645507
     37          1           0       -3.434075    2.664334    0.954695
     38          7           0       -6.271014    2.419105   -2.439704
     39          1           0       -7.123446    2.366495   -2.976236
     40          6           0       -6.776088    1.978508    1.218571
     41          1           0       -7.517135    1.771732    1.984260
     42          6           0       -7.169332    2.031827   -0.113320
     43          1           0       -8.204188    1.870209   -0.400300
     44          6           0       -5.435856    2.198603    1.595033
     45          1           0       -5.167283    2.165759    2.646043
     46          7           0        0.371009    2.112501   -1.256348
     47          1           0        0.011248    1.824416   -0.354187
     48          6           0        1.780302    2.478771   -1.307272
     49          1           0        1.903246    3.206180   -2.118791
     50          6           0        2.697502    1.273589   -1.619674
     51          6           0        2.171685    3.100984    0.033489
     52          1           0        1.523735    3.957548    0.234033
     53          1           0        3.209644    3.448550   -0.008247
     54          8           0        3.712957    1.057633   -0.924103
     55          8           0        1.969244    2.173292    1.091266
     56          1           0        2.678937    1.515915    0.998326
     57          7           0        2.314091    0.507676   -2.645740
     58          1           0        1.527306    0.852006   -3.201397
     59          6           0        3.005364   -0.704425   -3.079782
     60          1           0        2.298163   -1.220903   -3.739041
     61          6           0        3.259518   -1.669490   -1.903461
     62          6           0        4.278977   -0.394703   -3.866652
     63          1           0        4.778588   -1.318827   -4.163618
     64          1           0        4.970103    0.205637   -3.267685
     65          1           0        4.026288    0.178602   -4.762308
     66          8           0        4.355582   -2.254089   -1.794034
     67          7           0        2.242000   -1.863230   -1.058253
     68          1           0        1.322623   -1.483792   -1.295026
     69          6           0        2.288440   -2.864936    0.012002
     70          1           0        3.028184   -3.614224   -0.288469
     71          6           0        0.905891   -3.531556    0.110830
     72          6           0        2.654593   -2.280125    1.395657
     73          1           0        1.791760   -1.725325    1.775770
     74          1           0        2.789142   -3.122561    2.081204
     75          8           0        0.458207   -3.943299    1.162963
     76          6           0        3.866991   -1.347804    1.412800
     77          1           0        3.698930   -0.575408    0.656468
     78          1           0        3.895153   -0.828790    2.379397
     79          6           0        5.219441   -2.040003    1.182987
     80          1           0        5.125119   -2.829375    0.431807
     81          1           0        5.558812   -2.519354    2.108049
     82          6           0        6.321185   -1.083343    0.734459
     83          1           0        6.433684   -0.231051    1.410172
     84          1           0        7.282637   -1.595743    0.655323
     85          7           0        6.017786   -0.523774   -0.638067
     86          1           0        6.838768   -0.083786   -1.059328
     87          1           0        5.647322   -1.280245   -1.267366
     88          1           0        5.238608    0.167714   -0.640286
     89          8           0        0.252631   -3.515362   -1.045543
 ---------------------------------------------------------------------

 SCF Done:  E(RB3LYP) =  -2042.74826075     A.U. after    2 cycles

 Alpha  occ. eigenvalues --  -19.25038 -19.24553 -19.23987 -19.23213 -19.22583
 Alpha  occ. eigenvalues --  -19.21826 -19.20711 -14.54764 -14.47276 -14.46633
 Alpha  occ. eigenvalues --  -14.46462 -14.46167 -14.46143 -14.44166 -10.41048
 Alpha  occ. eigenvalues --  -10.40009 -10.39253 -10.39061 -10.38984 -10.36169
 Alpha  occ. eigenvalues --  -10.34647 -10.34062 -10.33401 -10.33196 -10.32932
 Alpha  occ. eigenvalues --  -10.32498 -10.30278 -10.29969 -10.29711 -10.29064
 Alpha  occ. eigenvalues --  -10.28443 -10.28230 -10.27770 -10.27599 -10.27578
 Alpha  occ. eigenvalues --  -10.26838 -10.26784 -10.26757 -10.26710 -10.26110
 Alpha  occ. eigenvalues --  -10.25970 -10.25145 -10.24864  -1.16529  -1.16260
 Alpha  occ. eigenvalues --   -1.14692  -1.14559  -1.13617  -1.11882  -1.09978
 Alpha  occ. eigenvalues --   -1.07767  -1.06059  -1.04621  -1.03594  -1.02575
 Alpha  occ. eigenvalues --   -1.02131  -1.00279  -0.91889  -0.91215  -0.90222
 Alpha  occ. eigenvalues --   -0.89300  -0.88839  -0.86877  -0.86047  -0.84529
 Alpha  occ. eigenvalues --   -0.82145  -0.81519  -0.81412  -0.79825  -0.77111
 Alpha  occ. eigenvalues --   -0.76277  -0.76046  -0.75460  -0.73977  -0.73118
 Alpha  occ. eigenvalues --   -0.70770  -0.70240  -0.69872  -0.69609  -0.69259
 Alpha  occ. eigenvalues --   -0.69115  -0.68771  -0.67105  -0.66766  -0.66310
 Alpha  occ. eigenvalues --   -0.65400  -0.64912  -0.64238  -0.62661  -0.61931
 Alpha  occ. eigenvalues --   -0.61301  -0.61146  -0.60654  -0.60286  -0.59371
 Alpha  occ. eigenvalues --   -0.59123  -0.58480  -0.58177  -0.57650  -0.56621
 Alpha  occ. eigenvalues --   -0.56455  -0.56290  -0.55957  -0.55556  -0.55022
 Alpha  occ. eigenvalues --   -0.54558  -0.54274  -0.53994  -0.53000  -0.52931
 Alpha  occ. eigenvalues --   -0.52254  -0.52055  -0.51784  -0.51515  -0.51373
 Alpha  occ. eigenvalues --   -0.51230  -0.51072  -0.50783  -0.50538  -0.50366
 Alpha  occ. eigenvalues --   -0.50010  -0.49537  -0.49499  -0.49262  -0.48958
 Alpha  occ. eigenvalues --   -0.48739  -0.48077  -0.47581  -0.47392  -0.47182
 Alpha  occ. eigenvalues --   -0.46700  -0.46530  -0.46278  -0.45655  -0.45078
 Alpha  occ. eigenvalues --   -0.44694  -0.44506  -0.43806  -0.43637  -0.43370
 Alpha  occ. eigenvalues --   -0.43213  -0.42745  -0.41618  -0.41345  -0.41099
 Alpha  occ. eigenvalues --   -0.40826  -0.40564  -0.39839  -0.38627  -0.38113
 Alpha  occ. eigenvalues --   -0.37965  -0.37297  -0.36943  -0.36683  -0.36475
 Alpha  occ. eigenvalues --   -0.35779  -0.35519  -0.35156  -0.34857  -0.33836
 Alpha  occ. eigenvalues --   -0.30305  -0.28447
 Alpha virt. eigenvalues --   -0.10958  -0.09523  -0.09507  -0.09074  -0.07985
 Alpha virt. eigenvalues --   -0.06930  -0.06635  -0.05716  -0.04191  -0.02337
 Alpha virt. eigenvalues --   -0.01530  -0.01347  -0.01073   0.00240   0.00542

 Mulliken charges:
               1
     1  N   -0.778503
     2  H    0.336432
     3  H    0.468678
     4  H    0.349585
     5  C   -0.060413
     6  H    0.151794
     7  C    0.613887
     8  C   -0.276955
     9  H    0.167802
    10  H    0.146313
    11  O   -0.541101
    12  C   -0.095342
    13  H    0.118586
    14  C   -0.459609
    15  H    0.154197
    16  H    0.150663
    17  H    0.156038
    18  C   -0.452181
    19  H    0.150857
    20  H    0.149681
    21  H    0.156172
    22  N   -0.641582
    23  H    0.368938
    24  C   -0.005227
    25  H    0.185426
    26  C    0.635904
    27  C   -0.391796
    28  H    0.164882
    29  H    0.187054
    30  O   -0.558294
    31  C    0.052293
    32  C    0.011890
    33  H    0.170359
    34  C    0.050951
    35  C    0.320059
    36  C   -0.239241
    37  H    0.133990
    38  N   -0.685375
    39  H    0.343347
    40  C   -0.153429
    41  H    0.146510
    42  C   -0.156525
    43  H    0.145060
    44  C   -0.139296
    45  H    0.141043
    46  N   -0.598774
    47  H    0.366356
    48  C   -0.085414
    49  H    0.206940
    50  C    0.643120
    51  C   -0.063041
    52  H    0.175455
    53  H    0.158829
    54  O   -0.599260
    55  O   -0.630894
    56  H    0.417049
    57  N   -0.600374
    58  H    0.406476
    59  C   -0.070570
    60  H    0.206703
    61  C    0.623136
    62  C   -0.443341
    63  H    0.187662
    64  H    0.133809
    65  H    0.177331
    66  O   -0.589583
    67  N   -0.612056
    68  H    0.421455
    69  C   -0.063375
    70  H    0.204324
    71  C    0.583708
    72  C   -0.272821
    73  H    0.164527
    74  H    0.178551
    75  O   -0.480260
    76  C   -0.316402
    77  H    0.152502
    78  H    0.157178
    79  C   -0.287891
    80  H    0.190390
    81  H    0.178659
    82  C   -0.186035
    83  H    0.197168
    84  H    0.200605
    85  N   -0.800357
    86  H    0.392615
    87  H    0.439585
    88  H    0.444121
    89  O   -0.601326
 Sum of Mulliken charges =   1.00000

 Dipole moment (field-independent basis, Debye):
    X=              6.0604    Y=              2.1218    Z=             -3.9911  Tot=              7.5604
 Quadrupole moment (field-independent basis, Debye-Ang):
   XX=            -83.6421   YY=           -247.6529   ZZ=           -231.9982
   XY=             -9.9992   XZ=             10.4372   YZ=             -8.3392

 Normal termination of Gaussian 16 at Mon Jul  4 15:07:51 2022.
