 Gaussian 16, Revision C.01,
 Gaussian 16:  ES64L-G16RevC.01  3-Jul-2019

 -------------------------------------------------------------------
 # B3LYP/6-31G* guess=read geom=check nosymm integral(ultrafinegrid)
 -------------------------------------------------------------------

 ------------------------------------------------------
 Candidate Structure: Conf:727 Charge calc in gas phase
 ------------------------------------------------------
 Structure from the checkpoint file:  "conf-727.chk"
 Charge =  1 Multiplicity = 1

                          Input orientation:
 ---------------------------------------------------------------------
 Center     Atomic      Atomic             Coordinates (Angstroms)
 Number     Number       Type             X           Y           Z
 ---------------------------------------------------------------------
      1          7           0       -6.260726    2.150506   -1.744219
      2          1           0       -7.166115    1.942530   -1.316363
      3          1           0       -6.333265    2.186842   -2.822338
      4          1           0       -5.891279    3.016728   -1.312307
      5          6           0       -5.226654    1.090835   -1.458757
      6          1           0       -5.731593    0.121291   -1.447658
      7          6           0       -4.621402    1.475967   -0.092889
      8          6           0       -4.153271    1.149970   -2.563280
      9          1           0       -3.610212    2.100409   -2.468234
     10          1           0       -3.407900    0.356337   -2.437353
     11          8           0       -4.589058    2.675747    0.198073
     12          6           0       -4.755350    1.098357   -3.970758
     13          7           0       -4.037022    0.464887   -4.891796
     14          1           0       -4.393159    0.458229   -5.839449
     15          1           0       -3.149684   -0.011585   -4.645506
     16          8           0       -5.849487    1.657859   -4.219539
     17          7           0       -4.136961    0.477512    0.650306
     18          1           0       -4.203560   -0.493536    0.354981
     19          6           0       -3.310647    0.682251    1.846612
     20          1           0       -2.737182    1.598215    1.682547
     21          6           0       -2.384514   -0.550181    1.866023
     22          6           0       -4.164249    0.857185    3.136834
     23          1           0       -4.809872    1.721119    2.924587
     24          8           0       -2.845919   -1.658534    1.583214
     25          6           0       -3.297681    1.214809    4.363157
     26          1           0       -2.599614    0.392809    4.573031
     27          1           0       -3.969593    1.261984    5.229372
     28          6           0       -5.060261   -0.354749    3.430285
     29          1           0       -4.473110   -1.244839    3.676203
     30          1           0       -5.715662   -0.133730    4.279541
     31          1           0       -5.698065   -0.605992    2.576040
     32          6           0       -2.531072    2.540572    4.268823
     33          1           0       -2.050641    2.773910    5.224674
     34          1           0       -1.737167    2.523134    3.512506
     35          1           0       -3.202820    3.371357    4.022161
     36          7           0       -1.094021   -0.305663    2.165721
     37          1           0       -0.770168    0.646937    2.311486
     38          6           0       -0.006629   -1.272485    2.057192
     39          1           0       -0.100270   -2.027292    2.849920
     40          6           0        1.280415   -0.453159    2.288569
     41          6           0        0.013478   -1.977064    0.682836
     42          1           0        0.825386   -2.708960    0.626103
     43          1           0       -0.931012   -2.504589    0.546869
     44          1           0        0.142492   -1.256676   -0.130736
     45          8           0        1.244299    0.763048    2.434768
     46          7           0        2.464747   -1.157364    2.284999
     47          1           0        2.399028   -2.063852    1.831888
     48          6           0        3.682439   -0.428343    1.888242
     49          1           0        3.750365    0.465112    2.512183
     50          6           0        3.497273   -0.054964    0.406721
     51          6           0        4.910289   -1.323031    2.161184
     52          1           0        4.789518   -2.245408    1.564393
     53          8           0        2.996350   -0.889155   -0.362738
     54          6           0        6.224624   -0.653794    1.779799
     55          1           0        6.278834   -0.454933    0.704663
     56          1           0        7.055348   -1.310331    2.052400
     57          1           0        6.348740    0.288138    2.325432
     58          8           0        4.980744   -1.625070    3.543483
     59          1           0        4.092813   -1.893991    3.833215
     60          7           0        3.816596    1.196284    0.020867
     61          1           0        4.278411    1.826855    0.666331
     62          6           0        3.242714    1.830338   -1.172279
     63          1           0        2.198835    1.495542   -1.252639
     64          6           0        3.938102    1.444318   -2.499460
     65          6           0        3.284575    3.350536   -0.978465
     66          1           0        2.699428    3.617025   -0.092432
     67          1           0        2.827578    3.832252   -1.851643
     68          8           0        4.494739    2.279276   -3.209180
     69          8           0        4.606584    3.799775   -0.750403
     70          1           0        5.068506    3.671663   -1.599030
     71          7           0        3.785028    0.134176   -2.838525
     72          1           0        3.393204   -0.476326   -2.114577
     73          6           0        4.078543   -0.377133   -4.154420
     74          1           0        4.579174    0.412427   -4.723756
     75          1           0        4.760391   -1.234731   -4.115918
     76          6           0        2.835144   -0.817166   -4.941339
     77          8           0        3.019610   -1.411993   -6.037113
     78          7           0        1.664429   -0.520653   -4.401055
     79          1           0        1.637717   -0.067984   -3.479945
     80          6           0        0.290459   -0.722749   -4.862635
     81          1           0        0.054186    0.059562   -5.599244
     82          6           0       -0.624114   -0.415838   -3.609790
     83          6           0        0.010547   -2.095873   -5.502114
     84          1           0        0.733662   -2.821844   -5.106833
     85          1           0       -0.974733   -2.421464   -5.155331
     86          8           0       -1.848169   -0.688219   -3.765229
     87          6           0        0.013790   -2.062810   -7.044418
     88          1           0       -0.918331   -1.589543   -7.373221
     89          1           0        0.823796   -1.414524   -7.400122
     90          6           0        0.137463   -3.448564   -7.715016
     91          1           0       -0.454167   -3.484383   -8.637182
     92          1           0       -0.275681   -4.233406   -7.065972
     93          6           0        1.561192   -3.813510   -8.131290
     94          1           0        1.612937   -4.812672   -8.572570
     95          1           0        1.956216   -3.092680   -8.852051
     96          7           0        2.520140   -3.784130   -6.963668
     97          1           0        3.459741   -4.073576   -7.251206
     98          1           0        2.216506   -4.422216   -6.222584
     99          1           0        2.621992   -2.784392   -6.537895
    100          8           0       -0.056361    0.078454   -2.615107
 ---------------------------------------------------------------------

 SCF Done:  E(RB3LYP) =  -2418.45210614     A.U. after    1 cycles

 Alpha  occ. eigenvalues --  -19.22632 -19.22494 -19.22091 -19.21354 -19.20974
 Alpha  occ. eigenvalues --  -19.20888 -19.20488 -19.19730 -19.19448 -19.16155
 Alpha  occ. eigenvalues --  -19.16136 -14.56016 -14.53768 -14.46378 -14.44920
 Alpha  occ. eigenvalues --  -14.44631 -14.44584 -14.44045 -14.43762 -14.43248
 Alpha  occ. eigenvalues --  -10.39828 -10.39469 -10.38774 -10.37826 -10.37562
 Alpha  occ. eigenvalues --  -10.37083 -10.36848 -10.36744 -10.36600 -10.34371
 Alpha  occ. eigenvalues --  -10.31789 -10.31658 -10.31515 -10.31247 -10.31215
 Alpha  occ. eigenvalues --  -10.30915 -10.30836 -10.30506 -10.30403 -10.30111
 Alpha  occ. eigenvalues --  -10.28447 -10.27723 -10.26662 -10.24819 -10.24689
 Alpha  occ. eigenvalues --  -10.24446 -10.23781 -10.23776  -1.15035  -1.13727
 Alpha  occ. eigenvalues --   -1.13557  -1.13142  -1.12432  -1.11384  -1.11287
 Alpha  occ. eigenvalues --   -1.10686  -1.09423  -1.08913  -1.08467  -1.08028
 Alpha  occ. eigenvalues --   -1.02674  -1.02279  -1.01071  -1.00818  -1.00686
 Alpha  occ. eigenvalues --   -1.00304  -0.99610  -0.99230  -0.91294  -0.89949
 Alpha  occ. eigenvalues --   -0.88011  -0.86843  -0.86400  -0.84454  -0.83395
 Alpha  occ. eigenvalues --   -0.81406  -0.81372  -0.79057  -0.78867  -0.77843
 Alpha  occ. eigenvalues --   -0.76903  -0.74481  -0.73298  -0.71749  -0.70982
 Alpha  occ. eigenvalues --   -0.70606  -0.70000  -0.69718  -0.69313  -0.69203
 Alpha  occ. eigenvalues --   -0.68287  -0.68185  -0.67063  -0.66653  -0.66438
 Alpha  occ. eigenvalues --   -0.65909  -0.64979  -0.64542  -0.64013  -0.63238
 Alpha  occ. eigenvalues --   -0.62843  -0.62210  -0.61527  -0.61218  -0.60117
 Alpha  occ. eigenvalues --   -0.59469  -0.59299  -0.58502  -0.58160  -0.57500
 Alpha  occ. eigenvalues --   -0.57252  -0.56822  -0.56440  -0.55632  -0.55424
 Alpha  occ. eigenvalues --   -0.55215  -0.54976  -0.54499  -0.53952  -0.53634
 Alpha  occ. eigenvalues --   -0.53357  -0.52948  -0.52833  -0.52508  -0.52380
 Alpha  occ. eigenvalues --   -0.51974  -0.51103  -0.50626  -0.50487  -0.50393
 Alpha  occ. eigenvalues --   -0.49777  -0.49643  -0.49151  -0.49013  -0.48910
 Alpha  occ. eigenvalues --   -0.48784  -0.48690  -0.48298  -0.48222  -0.47937
 Alpha  occ. eigenvalues --   -0.47771  -0.47275  -0.46858  -0.46522  -0.46360
 Alpha  occ. eigenvalues --   -0.46212  -0.46101  -0.45691  -0.45535  -0.45330
 Alpha  occ. eigenvalues --   -0.45025  -0.44632  -0.44562  -0.44353  -0.43365
 Alpha  occ. eigenvalues --   -0.43297  -0.43224  -0.43011  -0.42686  -0.42357
 Alpha  occ. eigenvalues --   -0.42062  -0.40353  -0.40182  -0.39954  -0.39907
 Alpha  occ. eigenvalues --   -0.39112  -0.37379  -0.37313  -0.36983  -0.36532
 Alpha  occ. eigenvalues --   -0.36352  -0.35829  -0.35499  -0.35456  -0.35238
 Alpha  occ. eigenvalues --   -0.34294  -0.33865  -0.33573  -0.33233  -0.33020
 Alpha  occ. eigenvalues --   -0.32594  -0.31774  -0.31625  -0.30744  -0.30401
 Alpha virt. eigenvalues --   -0.09294  -0.08805  -0.08106  -0.07483  -0.07394
 Alpha virt. eigenvalues --   -0.06694  -0.06027  -0.05718  -0.05104  -0.03274
 Alpha virt. eigenvalues --   -0.01848  -0.01138  -0.00955  -0.00177   0.00798

 Mulliken charges:
               1
     1  N   -0.758080
     2  H    0.395782
     3  H    0.444963
     4  H    0.406525
     5  C   -0.122147
     6  H    0.199300
     7  C    0.649595
     8  C   -0.407476
     9  H    0.211575
    10  H    0.249317
    11  O   -0.536469
    12  C    0.623580
    13  N   -0.754510
    14  H    0.347615
    15  H    0.416562
    16  O   -0.574649
    17  N   -0.611537
    18  H    0.364677
    19  C   -0.046929
    20  H    0.179183
    21  C    0.634510
    22  C   -0.081424
    23  H    0.148916
    24  O   -0.548592
    25  C   -0.266414
    26  H    0.143579
    27  H    0.151715
    28  C   -0.455174
    29  H    0.170584
    30  H    0.154970
    31  H    0.133122
    32  C   -0.460505
    33  H    0.163173
    34  H    0.141312
    35  H    0.157267
    36  N   -0.640660
    37  H    0.372981
    38  C   -0.031131
    39  H    0.184989
    40  C    0.617200
    41  C   -0.483932
    42  H    0.140485
    43  H    0.202632
    44  H    0.203149
    45  O   -0.515747
    46  N   -0.624243
    47  H    0.343672
    48  C   -0.081247
    49  H    0.189910
    50  C    0.639621
    51  C    0.142180
    52  H    0.121535
    53  O   -0.568685
    54  C   -0.466806
    55  H    0.152456
    56  H    0.182911
    57  H    0.163691
    58  O   -0.616732
    59  H    0.403746
    60  N   -0.592798
    61  H    0.362755
    62  C   -0.091447
    63  H    0.208621
    64  C    0.616834
    65  C   -0.069598
    66  H    0.163729
    67  H    0.161237
    68  O   -0.521998
    69  O   -0.628332
    70  H    0.419417
    71  N   -0.640308
    72  H    0.389809
    73  C   -0.210763
    74  H    0.228846
    75  H    0.175747
    76  C    0.606806
    77  O   -0.626412
    78  N   -0.600233
    79  H    0.383460
    80  C   -0.041180
    81  H    0.169565
    82  C    0.592224
    83  C   -0.275320
    84  H    0.101604
    85  H    0.188800
    86  O   -0.606029
    87  C   -0.296615
    88  H    0.161720
    89  H    0.166800
    90  C   -0.287603
    91  H    0.185322
    92  H    0.162407
    93  C   -0.192912
    94  H    0.198755
    95  H    0.213824
    96  N   -0.770953
    97  H    0.400962
    98  H    0.391272
    99  H    0.475016
   100  O   -0.568925
 Sum of Mulliken charges =   1.00000

 Dipole moment (field-independent basis, Debye):
    X=             -5.1888    Y=            -10.0585    Z=            -19.7052  Tot=             22.7242
 Quadrupole moment (field-independent basis, Debye-Ang):
   XX=           -183.6874   YY=           -234.0015   ZZ=           -120.7555
   XY=            -58.9827   XZ=            -27.9802   YZ=             82.9334

 Normal termination of Gaussian 16 at Fri May 27 02:49:59 2022.
