 Gaussian 16, Revision C.01,
 Gaussian 16:  ES64L-G16RevC.01  3-Jul-2019

 -------------------------------------------------------------------
 # B3LYP/6-31G* guess=read geom=check nosymm integral(ultrafinegrid)
 -------------------------------------------------------------------

 ------------------------------------------------------
 Candidate Structure: Conf:771 Charge calc in gas phase
 ------------------------------------------------------
 Structure from the checkpoint file:  "conf-771.chk"
 Charge =  1 Multiplicity = 1

                          Input orientation:
 ---------------------------------------------------------------------
 Center     Atomic      Atomic             Coordinates (Angstroms)
 Number     Number       Type             X           Y           Z
 ---------------------------------------------------------------------
      1          7           0       -0.023246   -3.868971    3.099321
      2          1           0        0.880796   -3.724736    3.559282
      3          1           0       -0.166493   -4.872012    2.956126
      4          1           0       -0.781589   -3.450378    3.704033
      5          6           0       -0.167405   -3.051226    1.821960
      6          1           0        0.805446   -2.944006    1.329303
      7          6           0       -0.750037   -1.726544    2.364385
      8          6           0       -1.162293   -3.791749    0.910328
      9          1           0       -0.682894   -4.707768    0.542982
     10          1           0       -2.058126   -4.053047    1.481985
     11          8           0       -1.473770   -1.801154    3.371981
     12          6           0       -1.672338   -2.947617   -0.280954
     13          7           0       -0.833251   -2.892991   -1.347435
     14          1           0       -1.114720   -2.268894   -2.098968
     15          1           0        0.167488   -3.043517   -1.211067
     16          8           0       -2.778407   -2.431670   -0.231200
     17          7           0       -0.412857   -0.635749    1.689343
     18          1           0        0.325939   -0.696619    0.968699
     19          6           0       -1.025959    0.675788    1.876702
     20          1           0       -1.814981    0.572302    2.628819
     21          6           0       -1.635472    1.044385    0.508145
     22          6           0        0.046275    1.702013    2.375742
     23          1           0        0.876142    1.647217    1.656971
     24          8           0       -1.195456    0.515209   -0.517192
     25          6           0        0.575373    1.267441    3.760885
     26          1           0        0.766042    0.188387    3.751752
     27          1           0       -0.211410    1.433213    4.510550
     28          6           0       -0.472405    3.148393    2.402723
     29          1           0       -1.372847    3.237448    3.027905
     30          1           0        0.280642    3.808707    2.841587
     31          1           0       -0.688180    3.530031    1.401979
     32          6           0        1.862400    1.980473    4.192517
     33          1           0        2.209787    1.594102    5.156980
     34          1           0        2.664729    1.822367    3.461511
     35          1           0        1.724229    3.060185    4.307863
     36          7           0       -2.617156    1.973395    0.473757
     37          1           0       -2.872327    2.444636    1.331625
     38          6           0       -3.057258    2.588030   -0.789616
     39          1           0       -3.686251    1.867145   -1.325078
     40          6           0       -1.782485    2.889336   -1.614515
     41          6           0       -3.849956    3.862135   -0.496937
     42          1           0       -4.237867    4.286845   -1.427292
     43          1           0       -4.703128    3.646827    0.155395
     44          1           0       -3.206902    4.609873   -0.022689
     45          8           0       -0.881760    3.571489   -1.132038
     46          7           0       -1.685899    2.313186   -2.850444
     47          1           0       -2.438621    1.669545   -3.076641
     48          6           0       -0.381326    1.738277   -3.229622
     49          1           0        0.163789    1.568822   -2.288526
     50          6           0        0.554978    2.653116   -4.037084
     51          6           0       -0.620705    0.348112   -3.876179
     52          1           0       -0.967179    0.481055   -4.906474
     53          8           0        1.245096    2.211214   -4.966347
     54          6           0        0.638643   -0.518639   -3.870285
     55          1           0        1.433588   -0.039777   -4.446149
     56          1           0        0.398312   -1.496307   -4.303751
     57          1           0        0.976343   -0.668476   -2.838049
     58          8           0       -1.685324   -0.324113   -3.192596
     59          1           0       -1.579757   -0.165072   -2.230011
     60          7           0        0.686477    3.907628   -3.552508
     61          1           0        0.200850    4.151137   -2.684851
     62          6           0        1.852326    4.727779   -3.886907
     63          1           0        2.100965    4.553500   -4.937962
     64          6           0        3.008549    4.249592   -2.976423
     65          6           0        1.539971    6.208885   -3.644112
     66          1           0        0.739262    6.519553   -4.321544
     67          1           0        2.436007    6.803370   -3.876817
     68          8           0        3.361584    4.867331   -1.971218
     69          8           0        1.078951    6.434337   -2.327036
     70          1           0        1.829952    6.193599   -1.752262
     71          7           0        3.542569    3.043136   -3.315329
     72          1           0        3.175561    2.558917   -4.130572
     73          6           0        4.388971    2.315178   -2.382962
     74          1           0        5.452933    2.532758   -2.553720
     75          1           0        4.149780    2.638323   -1.366245
     76          6           0        4.199399    0.817318   -2.582158
     77          8           0        4.389542    0.349304   -3.730727
     78          7           0        3.869398    0.082349   -1.517376
     79          1           0        3.510480    0.540357   -0.679691
     80          6           0        3.552187   -1.347828   -1.535826
     81          1           0        3.125870   -1.580288   -2.515185
     82          6           0        2.406582   -1.621151   -0.506709
     83          6           0        4.771973   -2.246139   -1.241329
     84          1           0        5.218729   -1.888433   -0.305639
     85          1           0        4.383242   -3.250049   -1.036240
     86          8           0        2.013087   -0.639458    0.172826
     87          6           0        5.872127   -2.309512   -2.320863
     88          1           0        6.045293   -1.315756   -2.749969
     89          1           0        6.815743   -2.582178   -1.834180
     90          6           0        5.658903   -3.352677   -3.438188
     91          1           0        5.618702   -4.353731   -2.990378
     92          1           0        6.536929   -3.357954   -4.099423
     93          6           0        4.398635   -3.234222   -4.295367
     94          1           0        4.364728   -4.028143   -5.046379
     95          1           0        3.486436   -3.293104   -3.698367
     96          7           0        4.341209   -1.919378   -5.038955
     97          1           0        3.506381   -1.860525   -5.630493
     98          1           0        5.154913   -1.809342   -5.652691
     99          1           0        4.325032   -1.054808   -4.384091
    100          8           0        1.992584   -2.810049   -0.478147
 ---------------------------------------------------------------------

 SCF Done:  E(RB3LYP) =  -2418.44857335     A.U. after    1 cycles

 Alpha  occ. eigenvalues --  -19.24410 -19.22884 -19.22031 -19.21437 -19.20814
 Alpha  occ. eigenvalues --  -19.19640 -19.19432 -19.19186 -19.18918 -19.18464
 Alpha  occ. eigenvalues --  -19.18459 -14.57702 -14.56608 -14.47084 -14.45584
 Alpha  occ. eigenvalues --  -14.45368 -14.43912 -14.43595 -14.42568 -14.41478
 Alpha  occ. eigenvalues --  -10.40766 -10.39669 -10.38307 -10.37393 -10.37300
 Alpha  occ. eigenvalues --  -10.36898 -10.36709 -10.36590 -10.36405 -10.36399
 Alpha  occ. eigenvalues --  -10.32530 -10.32522 -10.32331 -10.32222 -10.32083
 Alpha  occ. eigenvalues --  -10.31564 -10.31172 -10.30460 -10.30003 -10.29461
 Alpha  occ. eigenvalues --  -10.29017 -10.28627 -10.27557 -10.26587 -10.25766
 Alpha  occ. eigenvalues --  -10.25495 -10.24581 -10.24258  -1.15529  -1.15450
 Alpha  occ. eigenvalues --   -1.13776  -1.12196  -1.12056  -1.11674  -1.11371
 Alpha  occ. eigenvalues --   -1.10997  -1.10704  -1.10239  -1.09490  -1.06621
 Alpha  occ. eigenvalues --   -1.03971  -1.02865  -1.02422  -1.01685  -1.00456
 Alpha  occ. eigenvalues --   -1.00244  -0.98785  -0.96927  -0.92082  -0.90333
 Alpha  occ. eigenvalues --   -0.88387  -0.87643  -0.86576  -0.84888  -0.83975
 Alpha  occ. eigenvalues --   -0.82217  -0.82007  -0.80248  -0.79191  -0.78135
 Alpha  occ. eigenvalues --   -0.77227  -0.75538  -0.73519  -0.71454  -0.71290
 Alpha  occ. eigenvalues --   -0.71077  -0.71012  -0.70598  -0.70027  -0.69680
 Alpha  occ. eigenvalues --   -0.69445  -0.68748  -0.68587  -0.67264  -0.66481
 Alpha  occ. eigenvalues --   -0.65740  -0.65256  -0.65189  -0.64608  -0.63818
 Alpha  occ. eigenvalues --   -0.62890  -0.61898  -0.61505  -0.60800  -0.60450
 Alpha  occ. eigenvalues --   -0.59305  -0.59225  -0.58972  -0.58532  -0.58184
 Alpha  occ. eigenvalues --   -0.57824  -0.56977  -0.56753  -0.56488  -0.55909
 Alpha  occ. eigenvalues --   -0.55479  -0.55214  -0.54588  -0.54556  -0.54079
 Alpha  occ. eigenvalues --   -0.53884  -0.53339  -0.53232  -0.52451  -0.52207
 Alpha  occ. eigenvalues --   -0.52042  -0.51816  -0.51629  -0.51107  -0.50803
 Alpha  occ. eigenvalues --   -0.50404  -0.50320  -0.49955  -0.49429  -0.49181
 Alpha  occ. eigenvalues --   -0.48978  -0.48721  -0.48668  -0.48402  -0.48169
 Alpha  occ. eigenvalues --   -0.47890  -0.47716  -0.47526  -0.47306  -0.47159
 Alpha  occ. eigenvalues --   -0.46887  -0.46545  -0.46386  -0.45962  -0.45429
 Alpha  occ. eigenvalues --   -0.45130  -0.45068  -0.44965  -0.44922  -0.44528
 Alpha  occ. eigenvalues --   -0.44401  -0.44227  -0.43815  -0.43663  -0.43504
 Alpha  occ. eigenvalues --   -0.43357  -0.40863  -0.40175  -0.39758  -0.39640
 Alpha  occ. eigenvalues --   -0.39023  -0.38717  -0.37675  -0.37589  -0.36347
 Alpha  occ. eigenvalues --   -0.36195  -0.35474  -0.35192  -0.35132  -0.34761
 Alpha  occ. eigenvalues --   -0.34436  -0.33875  -0.33772  -0.33452  -0.33395
 Alpha  occ. eigenvalues --   -0.32571  -0.32563  -0.32048  -0.31901  -0.30857
 Alpha virt. eigenvalues --   -0.09998  -0.09560  -0.09119  -0.08599  -0.07893
 Alpha virt. eigenvalues --   -0.07248  -0.06238  -0.06214  -0.04618  -0.04037
 Alpha virt. eigenvalues --   -0.03590  -0.02799  -0.01726  -0.00942  -0.00524

 Mulliken charges:
               1
     1  N   -0.747923
     2  H    0.411085
     3  H    0.407117
     4  H    0.422718
     5  C   -0.148278
     6  H    0.253988
     7  C    0.644595
     8  C   -0.378952
     9  H    0.178999
    10  H    0.193167
    11  O   -0.557728
    12  C    0.583579
    13  N   -0.787130
    14  H    0.357128
    15  H    0.376951
    16  O   -0.492782
    17  N   -0.600280
    18  H    0.419608
    19  C   -0.117531
    20  H    0.189495
    21  C    0.684368
    22  C   -0.070124
    23  H    0.154243
    24  O   -0.559392
    25  C   -0.248370
    26  H    0.125474
    27  H    0.143320
    28  C   -0.508087
    29  H    0.132692
    30  H    0.170571
    31  H    0.195898
    32  C   -0.453079
    33  H    0.152178
    34  H    0.145392
    35  H    0.159745
    36  N   -0.599120
    37  H    0.349232
    38  C   -0.010363
    39  H    0.175090
    40  C    0.609976
    41  C   -0.495971
    42  H    0.185118
    43  H    0.171077
    44  H    0.191560
    45  O   -0.519070
    46  N   -0.591870
    47  H    0.351458
    48  C   -0.113367
    49  H    0.192035
    50  C    0.632455
    51  C    0.137020
    52  H    0.164502
    53  O   -0.561225
    54  C   -0.511617
    55  H    0.169728
    56  H    0.146018
    57  H    0.154974
    58  O   -0.671770
    59  H    0.445919
    60  N   -0.599821
    61  H    0.395510
    62  C   -0.089909
    63  H    0.181118
    64  C    0.618497
    65  C   -0.037985
    66  H    0.161191
    67  H    0.144130
    68  O   -0.533573
    69  O   -0.628642
    70  H    0.419571
    71  N   -0.619438
    72  H    0.374716
    73  C   -0.170802
    74  H    0.194483
    75  H    0.194468
    76  C    0.605246
    77  O   -0.599876
    78  N   -0.570417
    79  H    0.368211
    80  C   -0.071887
    81  H    0.134775
    82  C    0.615009
    83  C   -0.269242
    84  H    0.159245
    85  H    0.173008
    86  O   -0.593963
    87  C   -0.291509
    88  H    0.154516
    89  H    0.170699
    90  C   -0.288080
    91  H    0.185874
    92  H    0.161484
    93  C   -0.198168
    94  H    0.202088
    95  H    0.220958
    96  N   -0.775668
    97  H    0.405870
    98  H    0.398251
    99  H    0.470570
   100  O   -0.604954
 Sum of Mulliken charges =   1.00000

 Dipole moment (field-independent basis, Debye):
    X=             13.1643    Y=            -12.8567    Z=             -4.8733  Tot=             19.0353
 Quadrupole moment (field-independent basis, Debye-Ang):
   XX=           -207.0511   YY=           -227.3619   ZZ=           -184.2527
   XY=            -54.7903   XZ=            -61.2365   YZ=              1.2446

 Normal termination of Gaussian 16 at Fri May 27 02:50:02 2022.
