 Gaussian 16, Revision C.01,
 Gaussian 16:  ES64L-G16RevC.01  3-Jul-2019

 -------------------------------------------------------------------
 # B3LYP/6-31G* guess=read geom=check nosymm integral(ultrafinegrid)
 -------------------------------------------------------------------

 ------------------------------------------------------
 Candidate Structure: Conf:669 Charge calc in gas phase
 ------------------------------------------------------
 Structure from the checkpoint file:  "conf-669.chk"
 Charge =  1 Multiplicity = 1

                          Input orientation:
 ---------------------------------------------------------------------
 Center     Atomic      Atomic             Coordinates (Angstroms)
 Number     Number       Type             X           Y           Z
 ---------------------------------------------------------------------
      1          7           0       -8.542535    2.590553    2.287263
      2          1           0       -7.827655    3.382421    2.164789
      3          1           0       -9.346545    2.906096    2.833826
      4          1           0       -8.856390    2.269536    1.355480
      5          6           0       -7.691556    1.549599    2.985599
      6          1           0       -8.092147    1.402147    3.991471
      7          6           0       -6.293269    2.247575    3.059847
      8          6           0       -7.684430    0.215015    2.209023
      9          1           0       -6.922891   -0.443370    2.635774
     10          1           0       -8.657387   -0.277824    2.313631
     11          8           0       -6.207209    3.382366    2.566544
     12          6           0       -7.316250    0.484869    0.746351
     13          7           0       -8.417208    0.643418   -0.092017
     14          1           0       -8.171781    0.764994   -1.072060
     15          1           0       -9.214542    0.030704    0.049541
     16          8           0       -6.179652    0.726916    0.400952
     17          7           0       -5.341104    1.562490    3.673680
     18          1           0       -5.489034    0.573435    3.896275
     19          6           0       -3.894103    1.798741    3.539159
     20          1           0       -3.739556    2.558835    2.769187
     21          6           0       -3.383905    0.411250    3.061901
     22          6           0       -3.261019    2.242298    4.888121
     23          1           0       -3.462302    1.427696    5.598846
     24          8           0       -4.023119   -0.600313    3.392521
     25          6           0       -3.928963    3.515013    5.459438
     26          1           0       -3.531689    3.656587    6.472914
     27          1           0       -5.003610    3.329036    5.584390
     28          6           0       -1.735219    2.400534    4.775311
     29          1           0       -1.451334    3.110399    3.989719
     30          1           0       -1.332135    2.780056    5.720203
     31          1           0       -1.236122    1.452216    4.560533
     32          6           0       -3.727098    4.807622    4.657589
     33          1           0       -4.213499    5.645159    5.169637
     34          1           0       -2.667521    5.063535    4.554189
     35          1           0       -4.164048    4.742720    3.655459
     36          7           0       -2.283553    0.398726    2.309532
     37          1           0       -1.753152    1.242769    2.092629
     38          6           0       -1.646487   -0.811297    1.801192
     39          1           0       -1.613339   -1.555062    2.605862
     40          6           0       -0.219539   -0.376816    1.406160
     41          6           0       -2.400587   -1.392243    0.591963
     42          1           0       -1.937342   -2.326663    0.261897
     43          1           0       -3.438875   -1.593521    0.869004
     44          1           0       -2.374538   -0.690215   -0.246257
     45          8           0        0.074280    0.820090    1.352588
     46          7           0        0.627352   -1.377408    1.113159
     47          1           0        0.357064   -2.349857    1.211472
     48          6           0        1.903500   -1.167557    0.458059
     49          1           0        2.561074   -0.582098    1.115077
     50          6           0        1.683560   -0.411519   -0.870619
     51          6           0        2.543638   -2.575915    0.157253
     52          1           0        2.222778   -2.900447   -0.835312
     53          8           0        0.641578   -0.511568   -1.503964
     54          6           0        4.064316   -2.543622    0.193226
     55          1           0        4.455122   -1.797801   -0.504273
     56          1           0        4.447919   -3.514097   -0.129666
     57          1           0        4.427464   -2.306271    1.204808
     58          8           0        2.022643   -3.561716    1.059128
     59          1           0        2.523730   -3.495730    1.888939
     60          7           0        2.742678    0.332898   -1.298622
     61          1           0        3.636701    0.273958   -0.823043
     62          6           0        2.829889    0.724633   -2.691455
     63          1           0        2.270069   -0.003562   -3.288040
     64          6           0        4.303302    0.672048   -3.100909
     65          6           0        2.191636    2.114900   -2.924733
     66          1           0        2.677688    2.863012   -2.284254
     67          1           0        1.142280    2.040480   -2.631095
     68          8           0        5.220503    0.597506   -2.288763
     69          8           0        2.217196    2.498581   -4.299269
     70          1           0        3.059028    2.948637   -4.464100
     71          7           0        4.525317    0.717731   -4.453489
     72          1           0        3.716343    0.740352   -5.061511
     73          6           0        5.839585    0.463827   -5.006300
     74          1           0        5.885396    0.841963   -6.031984
     75          1           0        6.585968    1.005642   -4.419636
     76          6           0        6.285243   -1.010361   -5.019731
     77          8           0        7.480595   -1.220424   -5.377619
     78          7           0        5.372572   -1.895656   -4.682296
     79          1           0        4.475504   -1.553111   -4.294213
     80          6           0        5.388297   -3.326325   -4.345534
     81          1           0        4.955676   -3.877194   -5.193351
     82          6           0        4.335533   -3.449683   -3.145417
     83          6           0        6.741270   -3.935944   -3.994516
     84          1           0        7.301120   -3.218090   -3.379169
     85          1           0        6.511075   -4.777704   -3.333196
     86          8           0        3.543672   -2.463941   -3.060638
     87          6           0        7.555057   -4.433805   -5.204864
     88          1           0        7.075637   -5.344869   -5.580766
     89          1           0        7.510539   -3.704772   -6.023377
     90          6           0        9.031420   -4.744802   -4.881392
     91          1           0        9.405133   -5.553636   -5.520638
     92          1           0        9.128522   -5.108837   -3.848915
     93          6           0        9.981859   -3.570284   -5.109332
     94          1           0       11.004650   -3.809888   -4.804145
     95          1           0        9.992174   -3.273994   -6.161839
     96          7           0        9.552914   -2.338266   -4.350939
     97          1           0       10.240054   -1.585787   -4.447494
     98          1           0        9.448565   -2.535921   -3.352166
     99          1           0        8.596259   -1.941402   -4.732813
    100          8           0        4.414412   -4.479115   -2.461180
 ---------------------------------------------------------------------

 SCF Done:  E(RB3LYP) =  -2418.39244680     A.U. after    3 cycles

 Alpha  occ. eigenvalues --  -19.25933 -19.25223 -19.19887 -19.19724 -19.19020
 Alpha  occ. eigenvalues --  -19.18698 -19.17488 -19.16859 -19.14544 -19.10364
 Alpha  occ. eigenvalues --  -19.09395 -14.58543 -14.52270 -14.49337 -14.47651
 Alpha  occ. eigenvalues --  -14.43073 -14.42117 -14.40728 -14.40287 -14.39084
 Alpha  occ. eigenvalues --  -10.42642 -10.42537 -10.40943 -10.36729 -10.35313
 Alpha  occ. eigenvalues --  -10.34767 -10.34306 -10.33782 -10.33535 -10.32360
 Alpha  occ. eigenvalues --  -10.31817 -10.29425 -10.29055 -10.28152 -10.27774
 Alpha  occ. eigenvalues --  -10.27426 -10.27331 -10.27218 -10.26978 -10.26910
 Alpha  occ. eigenvalues --  -10.25690 -10.25356 -10.24586 -10.24379 -10.23703
 Alpha  occ. eigenvalues --  -10.23257 -10.23244 -10.20142  -1.18384  -1.16996
 Alpha  occ. eigenvalues --   -1.12630  -1.11551  -1.09808  -1.09202  -1.08838
 Alpha  occ. eigenvalues --   -1.07012  -1.06879  -1.06521  -1.06036  -1.04628
 Alpha  occ. eigenvalues --   -1.03731  -1.03354  -0.99606  -0.98939  -0.96900
 Alpha  occ. eigenvalues --   -0.96881  -0.95722  -0.94439  -0.93405  -0.89007
 Alpha  occ. eigenvalues --   -0.87653  -0.84178  -0.83343  -0.82913  -0.81718
 Alpha  occ. eigenvalues --   -0.80553  -0.79693  -0.78005  -0.77697  -0.75534
 Alpha  occ. eigenvalues --   -0.73973  -0.73921  -0.72219  -0.71893  -0.71493
 Alpha  occ. eigenvalues --   -0.70901  -0.70803  -0.69447  -0.68937  -0.67774
 Alpha  occ. eigenvalues --   -0.66577  -0.66267  -0.65715  -0.65402  -0.64976
 Alpha  occ. eigenvalues --   -0.64439  -0.64234  -0.63580  -0.62907  -0.62444
 Alpha  occ. eigenvalues --   -0.61486  -0.60502  -0.60016  -0.59395  -0.58751
 Alpha  occ. eigenvalues --   -0.58282  -0.57894  -0.57287  -0.56880  -0.56418
 Alpha  occ. eigenvalues --   -0.55496  -0.55118  -0.54839  -0.54151  -0.53884
 Alpha  occ. eigenvalues --   -0.53708  -0.53214  -0.52417  -0.52326  -0.52172
 Alpha  occ. eigenvalues --   -0.51489  -0.51283  -0.51134  -0.50954  -0.50878
 Alpha  occ. eigenvalues --   -0.50335  -0.50068  -0.49962  -0.49358  -0.48924
 Alpha  occ. eigenvalues --   -0.48842  -0.48224  -0.47893  -0.47412  -0.47165
 Alpha  occ. eigenvalues --   -0.47029  -0.47021  -0.46595  -0.45816  -0.45453
 Alpha  occ. eigenvalues --   -0.44925  -0.44720  -0.44656  -0.44494  -0.44228
 Alpha  occ. eigenvalues --   -0.44105  -0.44060  -0.43496  -0.43259  -0.42938
 Alpha  occ. eigenvalues --   -0.42237  -0.41993  -0.41646  -0.41274  -0.40858
 Alpha  occ. eigenvalues --   -0.40747  -0.40368  -0.40057  -0.39700  -0.39657
 Alpha  occ. eigenvalues --   -0.39566  -0.39368  -0.39227  -0.38834  -0.38394
 Alpha  occ. eigenvalues --   -0.38336  -0.38027  -0.37268  -0.37113  -0.35741
 Alpha  occ. eigenvalues --   -0.34874  -0.33898  -0.33132  -0.32875  -0.32312
 Alpha  occ. eigenvalues --   -0.31968  -0.31280  -0.30823  -0.30681  -0.30051
 Alpha  occ. eigenvalues --   -0.28595  -0.28031  -0.25363  -0.25135  -0.23495
 Alpha virt. eigenvalues --   -0.12559  -0.11566  -0.08716  -0.05630  -0.05330
 Alpha virt. eigenvalues --   -0.05306  -0.03938  -0.03805  -0.03417  -0.02566
 Alpha virt. eigenvalues --   -0.00981  -0.00751  -0.00623   0.00079   0.00296

 Mulliken charges:
               1
     1  N   -0.773321
     2  H    0.437753
     3  H    0.410174
     4  H    0.414274
     5  C   -0.121749
     6  H    0.229305
     7  C    0.669420
     8  C   -0.376691
     9  H    0.246074
    10  H    0.177892
    11  O   -0.538086
    12  C    0.539809
    13  N   -0.754838
    14  H    0.373859
    15  H    0.356614
    16  O   -0.419586
    17  N   -0.586765
    18  H    0.368614
    19  C   -0.087986
    20  H    0.191924
    21  C    0.646893
    22  C   -0.072819
    23  H    0.141153
    24  O   -0.572331
    25  C   -0.257037
    26  H    0.150930
    27  H    0.122456
    28  C   -0.477117
    29  H    0.160711
    30  H    0.163985
    31  H    0.168753
    32  C   -0.467645
    33  H    0.153276
    34  H    0.158370
    35  H    0.162737
    36  N   -0.607375
    37  H    0.367755
    38  C   -0.058257
    39  H    0.176152
    40  C    0.649385
    41  C   -0.441611
    42  H    0.168006
    43  H    0.164604
    44  H    0.182922
    45  O   -0.551488
    46  N   -0.624165
    47  H    0.355728
    48  C   -0.061026
    49  H    0.149909
    50  C    0.653331
    51  C    0.105851
    52  H    0.218360
    53  O   -0.533396
    54  C   -0.492035
    55  H    0.166786
    56  H    0.207538
    57  H    0.108503
    58  O   -0.628983
    59  H    0.389718
    60  N   -0.619306
    61  H    0.350986
    62  C   -0.049243
    63  H    0.209471
    64  C    0.584627
    65  C   -0.051478
    66  H    0.139972
    67  H    0.189151
    68  O   -0.530703
    69  O   -0.619049
    70  H    0.396157
    71  N   -0.617166
    72  H    0.352203
    73  C   -0.207229
    74  H    0.184810
    75  H    0.197286
    76  C    0.617476
    77  O   -0.642878
    78  N   -0.588402
    79  H    0.383528
    80  C   -0.067054
    81  H    0.164318
    82  C    0.620306
    83  C   -0.278991
    84  H    0.090367
    85  H    0.201448
    86  O   -0.629195
    87  C   -0.292207
    88  H    0.164809
    89  H    0.158133
    90  C   -0.284879
    91  H    0.176549
    92  H    0.161373
    93  C   -0.186918
    94  H    0.188821
    95  H    0.205666
    96  N   -0.769466
    97  H    0.392010
    98  H    0.390769
    99  H    0.477664
   100  O   -0.568959
 Sum of Mulliken charges =   1.00000

 Dipole moment (field-independent basis, Debye):
    X=            -11.8278    Y=              5.3202    Z=              1.8429  Tot=             13.0995
 Quadrupole moment (field-independent basis, Debye-Ang):
   XX=            255.3776   YY=           -270.8719   ZZ=           -190.8788
   XY=            -95.7319   XZ=           -170.1502   YZ=             32.2060

 Normal termination of Gaussian 16 at Fri May 27 02:50:29 2022.
