 Gaussian 16, Revision C.01,
 Gaussian 16:  ES64L-G16RevC.01  3-Jul-2019

 -------------------------------------------------------------------
 # B3LYP/6-31G* guess=read geom=check nosymm integral(ultrafinegrid)
 -------------------------------------------------------------------

 ------------------------------------------------------
 Candidate Structure: Conf:234 Charge calc in gas phase
 ------------------------------------------------------
 Structure from the checkpoint file:  "conf-234.chk"
 Charge =  1 Multiplicity = 1

                          Input orientation:
 ---------------------------------------------------------------------
 Center     Atomic      Atomic             Coordinates (Angstroms)
 Number     Number       Type             X           Y           Z
 ---------------------------------------------------------------------
      1          7           0       -7.615181    1.440491   -0.004414
      2          1           0       -8.316399    0.841865    0.440303
      3          1           0       -7.970834    1.786691   -0.939150
      4          1           0       -7.362760    2.186626    0.674664
      5          6           0       -6.330103    0.706941   -0.277384
      6          1           0       -6.571377   -0.336705   -0.493184
      7          6           0       -5.468624    0.875496    0.995860
      8          6           0       -5.600620    1.366040   -1.467291
      9          1           0       -5.319281    2.389954   -1.184017
     10          1           0       -4.662625    0.828805   -1.642263
     11          8           0       -5.745445    1.806426    1.755476
     12          6           0       -6.479890    1.459821   -2.711907
     13          7           0       -5.881227    1.254385   -3.894422
     14          1           0       -6.422175    1.370171   -4.742821
     15          1           0       -4.899876    1.026404   -3.974968
     16          8           0       -7.685009    1.742333   -2.612426
     17          7           0       -4.454961    0.007200    1.095229
     18          1           0       -4.261855   -0.554234    0.263415
     19          6           0       -3.176505    0.313803    1.757734
     20          1           0       -3.301798    1.245962    2.314576
     21          6           0       -2.206125    0.521729    0.555671
     22          6           0       -2.748638   -0.834030    2.714283
     23          1           0       -2.581641   -1.719735    2.083529
     24          8           0       -2.499648    0.023145   -0.543734
     25          6           0       -3.873339   -1.198878    3.712417
     26          1           0       -3.523281   -2.065623    4.287640
     27          1           0       -4.749948   -1.543782    3.150244
     28          6           0       -1.427749   -0.519099    3.437420
     29          1           0       -1.482979    0.420076    4.000911
     30          1           0       -1.201170   -1.315432    4.154074
     31          1           0       -0.579708   -0.447986    2.752045
     32          6           0       -4.301714   -0.090017    4.683147
     33          1           0       -5.067072   -0.467488    5.370130
     34          1           0       -3.465586    0.265473    5.294707
     35          1           0       -4.730928    0.772765    4.160999
     36          7           0       -1.117109    1.256409    0.785168
     37          1           0       -0.889834    1.598387    1.717487
     38          6           0       -0.034768    1.467279   -0.178282
     39          1           0        0.132186    0.550141   -0.755176
     40          6           0        1.203211    1.782307    0.684422
     41          6           0       -0.346526    2.601968   -1.167969
     42          1           0        0.455126    2.660635   -1.909033
     43          1           0       -1.280685    2.373021   -1.689829
     44          1           0       -0.451701    3.562447   -0.650713
     45          8           0        1.062746    2.089896    1.884742
     46          7           0        2.380474    1.715840    0.055322
     47          1           0        2.396161    1.513571   -0.965376
     48          6           0        3.637683    2.070534    0.718919
     49          1           0        3.451126    2.951324    1.348532
     50          6           0        4.629453    2.396253   -0.410829
     51          6           0        4.198069    0.938167    1.616606
     52          1           0        4.501705    0.120850    0.952399
     53          8           0        5.080181    1.499716   -1.120745
     54          6           0        5.415148    1.423550    2.410908
     55          1           0        6.240725    1.725096    1.755188
     56          1           0        5.768175    0.614704    3.057069
     57          1           0        5.148142    2.272646    3.053047
     58          8           0        3.206979    0.408518    2.482871
     59          1           0        2.543538    1.101908    2.658339
     60          7           0        4.912394    3.710012   -0.584197
     61          1           0        4.537216    4.392005    0.063287
     62          6           0        5.669140    4.307616   -1.684742
     63          1           0        4.956397    4.842251   -2.329444
     64          6           0        6.449021    3.287954   -2.542517
     65          6           0        6.641483    5.338827   -1.109795
     66          1           0        7.156703    5.854329   -1.932884
     67          1           0        7.390565    4.816566   -0.503418
     68          8           0        7.583923    2.937340   -2.260298
     69          8           0        5.852791    6.242100   -0.338085
     70          1           0        6.448644    6.797434    0.186034
     71          7           0        5.813996    2.931632   -3.706359
     72          1           0        4.846919    3.204771   -3.828994
     73          6           0        6.356802    1.922045   -4.589571
     74          1           0        6.494750    2.313864   -5.604252
     75          1           0        7.347251    1.665273   -4.201860
     76          6           0        5.529249    0.637109   -4.745781
     77          8           0        5.858663   -0.131069   -5.688460
     78          7           0        4.535907    0.464175   -3.874838
     79          1           0        4.427878    1.165890   -3.138693
     80          6           0        3.380926   -0.452771   -3.870416
     81          1           0        3.041926   -0.568382   -4.908097
     82          6           0        2.233902    0.228490   -3.043915
     83          6           0        3.700474   -1.864249   -3.313580
     84          1           0        3.875622   -1.818321   -2.232814
     85          1           0        2.817538   -2.487604   -3.479882
     86          8           0        1.242985   -0.476888   -2.810226
     87          6           0        4.937201   -2.332719   -4.068019
     88          1           0        4.740587   -2.062571   -5.108244
     89          1           0        5.747323   -1.675261   -3.732415
     90          6           0        5.514235   -3.746455   -4.092841
     91          1           0        4.876364   -4.442692   -4.651752
     92          1           0        5.658769   -4.173782   -3.093735
     93          6           0        6.904950   -3.635763   -4.745066
     94          1           0        7.623876   -3.200044   -4.046847
     95          1           0        7.298237   -4.588936   -5.107099
     96          7           0        6.896629   -2.682164   -5.943138
     97          1           0        7.838100   -2.588901   -6.335816
     98          1           0        6.536477   -1.696514   -5.721032
     99          1           0        6.292050   -3.037259   -6.690985
    100          8           0        2.467269    1.428449   -2.678797
 ---------------------------------------------------------------------

 SCF Done:  E(RB3LYP) =  -2418.41144969     A.U. after    3 cycles

 Alpha  occ. eigenvalues --  -19.25302 -19.24382 -19.21107 -19.19115 -19.18968
 Alpha  occ. eigenvalues --  -19.17214 -19.17193 -19.17048 -19.15997 -19.12627
 Alpha  occ. eigenvalues --  -19.11634 -14.56501 -14.55951 -14.48643 -14.46544
 Alpha  occ. eigenvalues --  -14.42421 -14.42212 -14.42137 -14.41554 -14.39765
 Alpha  occ. eigenvalues --  -10.42782 -10.41208 -10.39167 -10.36111 -10.36062
 Alpha  occ. eigenvalues --  -10.35948 -10.35022 -10.34533 -10.33766 -10.33734
 Alpha  occ. eigenvalues --  -10.31648 -10.30411 -10.29718 -10.29326 -10.29178
 Alpha  occ. eigenvalues --  -10.28825 -10.28026 -10.28010 -10.27244 -10.27088
 Alpha  occ. eigenvalues --  -10.26771 -10.25915 -10.24652 -10.24206 -10.23587
 Alpha  occ. eigenvalues --  -10.23281 -10.22447 -10.20977  -1.17197  -1.16238
 Alpha  occ. eigenvalues --   -1.11170  -1.10718  -1.10565  -1.09976  -1.09286
 Alpha  occ. eigenvalues --   -1.08884  -1.08438  -1.08186  -1.05507  -1.03812
 Alpha  occ. eigenvalues --   -1.03621  -1.03525  -0.99248  -0.98866  -0.98340
 Alpha  occ. eigenvalues --   -0.97492  -0.96763  -0.96085  -0.92299  -0.89884
 Alpha  occ. eigenvalues --   -0.88248  -0.84525  -0.83971  -0.82941  -0.82072
 Alpha  occ. eigenvalues --   -0.80489  -0.79286  -0.79097  -0.77137  -0.77034
 Alpha  occ. eigenvalues --   -0.74748  -0.73196  -0.72195  -0.71724  -0.71393
 Alpha  occ. eigenvalues --   -0.70207  -0.69915  -0.69446  -0.69053  -0.68848
 Alpha  occ. eigenvalues --   -0.68432  -0.66866  -0.66418  -0.65193  -0.65037
 Alpha  occ. eigenvalues --   -0.64240  -0.63801  -0.63567  -0.62932  -0.62632
 Alpha  occ. eigenvalues --   -0.62235  -0.61764  -0.60718  -0.60361  -0.59047
 Alpha  occ. eigenvalues --   -0.58809  -0.57950  -0.57096  -0.56979  -0.56883
 Alpha  occ. eigenvalues --   -0.55965  -0.55711  -0.55493  -0.54871  -0.53999
 Alpha  occ. eigenvalues --   -0.53724  -0.53503  -0.53387  -0.52998  -0.52971
 Alpha  occ. eigenvalues --   -0.52084  -0.51678  -0.51173  -0.51128  -0.50580
 Alpha  occ. eigenvalues --   -0.50543  -0.50472  -0.49895  -0.49742  -0.49389
 Alpha  occ. eigenvalues --   -0.48851  -0.48478  -0.48392  -0.47865  -0.47685
 Alpha  occ. eigenvalues --   -0.47382  -0.46838  -0.46578  -0.46555  -0.46304
 Alpha  occ. eigenvalues --   -0.45373  -0.45140  -0.44794  -0.44692  -0.44515
 Alpha  occ. eigenvalues --   -0.44340  -0.44115  -0.43985  -0.43506  -0.43301
 Alpha  occ. eigenvalues --   -0.42929  -0.42554  -0.42271  -0.41647  -0.41410
 Alpha  occ. eigenvalues --   -0.41073  -0.40839  -0.40163  -0.40124  -0.39946
 Alpha  occ. eigenvalues --   -0.39899  -0.39830  -0.39688  -0.39306  -0.39243
 Alpha  occ. eigenvalues --   -0.38996  -0.38685  -0.38224  -0.36590  -0.36385
 Alpha  occ. eigenvalues --   -0.34154  -0.33564  -0.33162  -0.32460  -0.32235
 Alpha  occ. eigenvalues --   -0.31925  -0.31365  -0.31201  -0.30742  -0.30595
 Alpha  occ. eigenvalues --   -0.29332  -0.28828  -0.27798  -0.27422  -0.25743
 Alpha virt. eigenvalues --   -0.11098  -0.10049  -0.07749  -0.07554  -0.05101
 Alpha virt. eigenvalues --   -0.05045  -0.04086  -0.03838  -0.02874  -0.02271
 Alpha virt. eigenvalues --   -0.02030  -0.02014  -0.00741  -0.00121   0.01007

 Mulliken charges:
               1
     1  N   -0.751981
     2  H    0.407565
     3  H    0.440525
     4  H    0.414091
     5  C   -0.130544
     6  H    0.214687
     7  C    0.636869
     8  C   -0.418774
     9  H    0.222794
    10  H    0.236403
    11  O   -0.522166
    12  C    0.644846
    13  N   -0.727355
    14  H    0.377016
    15  H    0.378893
    16  O   -0.541604
    17  N   -0.569075
    18  H    0.354483
    19  C   -0.105488
    20  H    0.189429
    21  C    0.631925
    22  C   -0.078369
    23  H    0.140853
    24  O   -0.566626
    25  C   -0.252992
    26  H    0.149416
    27  H    0.128803
    28  C   -0.481304
    29  H    0.154324
    30  H    0.164716
    31  H    0.179465
    32  C   -0.470117
    33  H    0.154099
    34  H    0.158363
    35  H    0.157914
    36  N   -0.607316
    37  H    0.366514
    38  C   -0.058424
    39  H    0.230859
    40  C    0.621721
    41  C   -0.456844
    42  H    0.202957
    43  H    0.144453
    44  H    0.139184
    45  O   -0.594451
    46  N   -0.662159
    47  H    0.444847
    48  C   -0.071538
    49  H    0.147847
    50  C    0.620625
    51  C    0.182145
    52  H    0.145045
    53  O   -0.540332
    54  C   -0.465679
    55  H    0.148486
    56  H    0.165420
    57  H    0.136875
    58  O   -0.663072
    59  H    0.416691
    60  N   -0.616688
    61  H    0.354181
    62  C   -0.042237
    63  H    0.163218
    64  C    0.639534
    65  C   -0.041018
    66  H    0.145688
    67  H    0.169792
    68  O   -0.511989
    69  O   -0.635500
    70  H    0.410331
    71  N   -0.623876
    72  H    0.343700
    73  C   -0.208543
    74  H    0.184106
    75  H    0.212411
    76  C    0.599457
    77  O   -0.615620
    78  N   -0.598822
    79  H    0.416018
    80  C   -0.071175
    81  H    0.159762
    82  C    0.601400
    83  C   -0.257201
    84  H    0.162502
    85  H    0.169728
    86  O   -0.560438
    87  C   -0.294650
    88  H    0.136936
    89  H    0.153495
    90  C   -0.275758
    91  H    0.162139
    92  H    0.185851
    93  C   -0.192306
    94  H    0.215214
    95  H    0.198393
    96  N   -0.773686
    97  H    0.403680
    98  H    0.459920
    99  H    0.401830
   100  O   -0.644717
 Sum of Mulliken charges =   1.00000

 Dipole moment (field-independent basis, Debye):
    X=             -3.9212    Y=             -2.3332    Z=            -16.6449  Tot=             17.2590
 Quadrupole moment (field-independent basis, Debye-Ang):
   XX=              1.5553   YY=           -216.6697   ZZ=           -174.5264
   XY=            -55.4745   XZ=            -90.6422   YZ=             44.3267

 Normal termination of Gaussian 16 at Fri May 27 02:50:28 2022.
