 Gaussian 16, Revision C.01,
 Gaussian 16:  ES64L-G16RevC.01  3-Jul-2019

 -------------------------------------------------------------------
 # B3LYP/6-31G* guess=read geom=check nosymm integral(ultrafinegrid)
 -------------------------------------------------------------------

 ------------------------------------------------------
 Candidate Structure: Conf:883 Charge calc in gas phase
 ------------------------------------------------------
 Structure from the checkpoint file:  "conf-883.chk"
 Charge =  1 Multiplicity = 1

                          Input orientation:
 ---------------------------------------------------------------------
 Center     Atomic      Atomic             Coordinates (Angstroms)
 Number     Number       Type             X           Y           Z
 ---------------------------------------------------------------------
      1          7           0       -7.496435    4.294463    4.546659
      2          1           0       -7.528032    4.133911    5.557202
      3          1           0       -8.433084    4.649916    4.205096
      4          1           0       -6.689602    4.924395    4.352248
      5          6           0       -7.194063    3.033840    3.780465
      6          1           0       -7.613882    2.189992    4.333243
      7          6           0       -5.644587    2.985216    3.703209
      8          6           0       -7.809516    3.125410    2.368024
      9          1           0       -7.281429    3.901838    1.797882
     10          1           0       -7.629936    2.176745    1.853845
     11          8           0       -5.038321    4.052661    3.845682
     12          6           0       -9.296381    3.493536    2.383028
     13          7           0      -10.076612    2.916223    1.456962
     14          1           0      -11.050012    3.192337    1.401982
     15          1           0       -9.727504    2.255681    0.777320
     16          8           0       -9.735372    4.314821    3.201852
     17          7           0       -5.110562    1.794439    3.449507
     18          1           0       -5.672925    0.954591    3.293718
     19          6           0       -3.686116    1.547969    3.205618
     20          1           0       -3.301871    2.363812    2.586258
     21          6           0       -3.678298    0.222884    2.408502
     22          6           0       -2.881136    1.502474    4.543119
     23          1           0       -3.174092    2.424805    5.063146
     24          8           0       -4.688370   -0.492003    2.395016
     25          6           0       -1.349859    1.567772    4.354051
     26          1           0       -0.982025    0.648792    3.880255
     27          1           0       -0.913748    1.568685    5.361045
     28          6           0       -3.280803    0.303227    5.414743
     29          1           0       -2.971490   -0.645834    4.962009
     30          1           0       -2.797949    0.373293    6.394820
     31          1           0       -4.362751    0.255904    5.580494
     32          6           0       -0.828225    2.795150    3.595384
     33          1           0        0.264622    2.831288    3.636482
     34          1           0       -1.100211    2.789807    2.532561
     35          1           0       -1.211914    3.725858    4.030032
     36          7           0       -2.542014   -0.075706    1.762106
     37          1           0       -1.705345    0.497348    1.848432
     38          6           0       -2.312011   -1.344308    1.081204
     39          1           0       -2.731257   -2.149855    1.695610
     40          6           0       -0.779261   -1.496337    1.007357
     41          6           0       -2.969340   -1.382055   -0.309528
     42          1           0       -2.816154   -2.351648   -0.794439
     43          1           0       -4.045358   -1.222889   -0.203262
     44          1           0       -2.553853   -0.601834   -0.955295
     45          8           0       -0.039857   -0.568598    1.358762
     46          7           0       -0.314077   -2.668888    0.541548
     47          1           0       -0.928036   -3.393614    0.183331
     48          6           0        1.113126   -2.956981    0.398137
     49          1           0        1.639355   -2.455736    1.216732
     50          6           0        1.629587   -2.408044   -0.952164
     51          6           0        1.310537   -4.487612    0.461939
     52          1           0        2.359370   -4.691178    0.208031
     53          8           0        1.866874   -3.160768   -1.906281
     54          6           0        0.997478   -5.078237    1.829928
     55          1           0        1.663732   -4.665755    2.595289
     56          1           0        1.133538   -6.162682    1.796523
     57          1           0       -0.037458   -4.875234    2.124823
     58          8           0        0.445501   -5.094848   -0.494868
     59          1           0        0.803266   -4.809301   -1.359363
     60          7           0        1.778899   -1.069942   -1.016003
     61          1           0        1.561383   -0.486063   -0.210991
     62          6           0        2.199859   -0.388879   -2.239247
     63          1           0        1.865062   -0.994957   -3.087285
     64          6           0        3.739702   -0.267498   -2.269694
     65          6           0        1.559726    1.005012   -2.281832
     66          1           0        0.470050    0.902983   -2.324010
     67          1           0        1.890393    1.521654   -3.194470
     68          8           0        4.309540    0.784237   -1.953428
     69          8           0        1.864929    1.742150   -1.113448
     70          1           0        2.840767    1.824671   -1.137247
     71          7           0        4.402322   -1.376630   -2.645644
     72          1           0        3.919374   -2.253299   -2.838195
     73          6           0        5.848386   -1.431808   -2.657499
     74          1           0        6.257855   -0.706451   -3.371790
     75          1           0        6.256143   -1.163323   -1.673572
     76          6           0        6.274694   -2.852868   -3.042761
     77          8           0        5.442634   -3.727411   -3.281261
     78          7           0        7.611963   -3.045041   -3.117499
     79          1           0        8.251940   -2.379380   -2.691192
     80          6           0        8.184296   -4.374706   -3.292413
     81          1           0        7.702576   -5.053211   -2.571392
     82          6           0        9.663949   -4.257294   -2.859304
     83          6           0        7.966898   -4.960539   -4.707005
     84          1           0        7.116398   -4.447031   -5.161151
     85          1           0        8.835080   -4.736854   -5.337352
     86          8           0       10.510656   -5.213446   -3.220381
     87          6           0        7.672928   -6.476706   -4.672948
     88          1           0        8.174190   -6.937066   -3.810055
     89          1           0        6.599522   -6.602954   -4.492331
     90          6           0        8.099571   -7.238732   -5.941889
     91          1           0        8.041603   -6.578109   -6.818844
     92          1           0        7.408263   -8.065941   -6.143450
     93          6           0        9.505850   -7.836388   -5.825825
     94          1           0        9.505374   -8.596897   -5.036116
     95          1           0        9.780544   -8.343780   -6.762515
     96          7           0       10.502757   -6.816011   -5.432747
     97          1           0       11.402142   -7.260761   -5.248919
     98          1           0       10.250351   -5.812270   -3.989928
     99          1           0       10.666509   -6.173808   -6.209009
    100          8           0       10.022336   -3.328536   -2.160063
 ---------------------------------------------------------------------

 SCF Done:  E(RB3LYP) =  -2418.46410170     A.U. after    2 cycles

 Alpha  occ. eigenvalues --  -19.27211 -19.25825 -19.21957 -19.20998 -19.20957
 Alpha  occ. eigenvalues --  -19.19979 -19.19063 -19.18659 -19.17283 -19.16914
 Alpha  occ. eigenvalues --  -19.16723 -14.57862 -14.50546 -14.48919 -14.45445
 Alpha  occ. eigenvalues --  -14.44867 -14.42756 -14.41089 -14.40408 -14.39896
 Alpha  occ. eigenvalues --  -10.44809 -10.43010 -10.41122 -10.38957 -10.37920
 Alpha  occ. eigenvalues --  -10.36306 -10.35841 -10.35402 -10.34162 -10.34021
 Alpha  occ. eigenvalues --  -10.33938 -10.32781 -10.30511 -10.30340 -10.29073
 Alpha  occ. eigenvalues --  -10.28861 -10.28826 -10.28271 -10.28070 -10.27062
 Alpha  occ. eigenvalues --  -10.26937 -10.26312 -10.26080 -10.24950 -10.23674
 Alpha  occ. eigenvalues --  -10.23662 -10.23442 -10.23206  -1.19124  -1.17987
 Alpha  occ. eigenvalues --   -1.13976  -1.12781  -1.12488  -1.12428  -1.10852
 Alpha  occ. eigenvalues --   -1.09313  -1.08544  -1.07532  -1.06143  -1.05536
 Alpha  occ. eigenvalues --   -1.05478  -1.04399  -1.02140  -1.01008  -0.98905
 Alpha  occ. eigenvalues --   -0.97334  -0.97074  -0.95562  -0.94304  -0.90490
 Alpha  occ. eigenvalues --   -0.86950  -0.84998  -0.84774  -0.83855  -0.82270
 Alpha  occ. eigenvalues --   -0.81514  -0.80694  -0.79814  -0.77898  -0.77171
 Alpha  occ. eigenvalues --   -0.75216  -0.74656  -0.73710  -0.73262  -0.72763
 Alpha  occ. eigenvalues --   -0.71202  -0.70531  -0.69943  -0.68969  -0.68363
 Alpha  occ. eigenvalues --   -0.67703  -0.66961  -0.66798  -0.66086  -0.65568
 Alpha  occ. eigenvalues --   -0.65140  -0.64940  -0.63877  -0.63554  -0.63397
 Alpha  occ. eigenvalues --   -0.62560  -0.62106  -0.61135  -0.60014  -0.59070
 Alpha  occ. eigenvalues --   -0.58702  -0.58301  -0.57773  -0.57763  -0.56959
 Alpha  occ. eigenvalues --   -0.56492  -0.56111  -0.55975  -0.55523  -0.54937
 Alpha  occ. eigenvalues --   -0.54897  -0.53934  -0.53712  -0.53442  -0.53224
 Alpha  occ. eigenvalues --   -0.52918  -0.52521  -0.51985  -0.51700  -0.51496
 Alpha  occ. eigenvalues --   -0.51340  -0.51229  -0.51025  -0.50637  -0.50408
 Alpha  occ. eigenvalues --   -0.50230  -0.49883  -0.49283  -0.48601  -0.48289
 Alpha  occ. eigenvalues --   -0.48272  -0.47918  -0.47847  -0.47405  -0.47093
 Alpha  occ. eigenvalues --   -0.46878  -0.46644  -0.46421  -0.45699  -0.45325
 Alpha  occ. eigenvalues --   -0.45238  -0.44925  -0.44543  -0.44439  -0.44200
 Alpha  occ. eigenvalues --   -0.44001  -0.43560  -0.43408  -0.42756  -0.42631
 Alpha  occ. eigenvalues --   -0.42272  -0.41884  -0.41717  -0.41483  -0.41353
 Alpha  occ. eigenvalues --   -0.40953  -0.40676  -0.39856  -0.39786  -0.39388
 Alpha  occ. eigenvalues --   -0.38602  -0.38557  -0.38297  -0.37949  -0.37863
 Alpha  occ. eigenvalues --   -0.36424  -0.36067  -0.35096  -0.34931  -0.34149
 Alpha  occ. eigenvalues --   -0.34031  -0.33441  -0.32516  -0.32074  -0.31553
 Alpha  occ. eigenvalues --   -0.31325  -0.31117  -0.30344  -0.29797  -0.29569
 Alpha virt. eigenvalues --   -0.12887  -0.11711  -0.09217  -0.07780  -0.06918
 Alpha virt. eigenvalues --   -0.05239  -0.05168  -0.04359  -0.03264  -0.02702
 Alpha virt. eigenvalues --   -0.02147  -0.01962  -0.01169  -0.00359   0.00430

 Mulliken charges:
               1
     1  N   -0.755204
     2  H    0.409264
     3  H    0.444125
     4  H    0.417784
     5  C   -0.122028
     6  H    0.215594
     7  C    0.649938
     8  C   -0.400266
     9  H    0.229747
    10  H    0.204455
    11  O   -0.532145
    12  C    0.646376
    13  N   -0.725670
    14  H    0.383218
    15  H    0.371546
    16  O   -0.533728
    17  N   -0.613370
    18  H    0.366848
    19  C   -0.070799
    20  H    0.192358
    21  C    0.629585
    22  C   -0.079349
    23  H    0.154023
    24  O   -0.559268
    25  C   -0.282883
    26  H    0.155154
    27  H    0.155976
    28  C   -0.461384
    29  H    0.162933
    30  H    0.166631
    31  H    0.135681
    32  C   -0.462074
    33  H    0.175793
    34  H    0.144939
    35  H    0.156408
    36  N   -0.625286
    37  H    0.384378
    38  C   -0.045303
    39  H    0.190951
    40  C    0.631423
    41  C   -0.452670
    42  H    0.163293
    43  H    0.183046
    44  H    0.167551
    45  O   -0.550131
    46  N   -0.605997
    47  H    0.355550
    48  C   -0.075696
    49  H    0.184710
    50  C    0.633313
    51  C    0.110061
    52  H    0.156005
    53  O   -0.550832
    54  C   -0.449979
    55  H    0.150820
    56  H    0.177261
    57  H    0.143898
    58  O   -0.651039
    59  H    0.423610
    60  N   -0.606124
    61  H    0.378416
    62  C   -0.086677
    63  H    0.179646
    64  C    0.638520
    65  C   -0.043123
    66  H    0.137743
    67  H    0.148829
    68  O   -0.549995
    69  O   -0.640709
    70  H    0.423567
    71  N   -0.620693
    72  H    0.381451
    73  C   -0.196883
    74  H    0.195609
    75  H    0.190160
    76  C    0.595659
    77  O   -0.529423
    78  N   -0.626476
    79  H    0.357749
    80  C   -0.037897
    81  H    0.187141
    82  C    0.579304
    83  C   -0.287341
    84  H    0.179058
    85  H    0.136180
    86  O   -0.617951
    87  C   -0.277738
    88  H    0.139583
    89  H    0.167013
    90  C   -0.271696
    91  H    0.142106
    92  H    0.151808
    93  C   -0.143870
    94  H    0.159662
    95  H    0.143389
    96  N   -0.765563
    97  H    0.335768
    98  H    0.483253
    99  H    0.325133
   100  O   -0.473736
 Sum of Mulliken charges =   1.00000

 Dipole moment (field-independent basis, Debye):
    X=            -25.6472    Y=              3.5980    Z=              7.2444  Tot=             26.8924
 Quadrupole moment (field-independent basis, Debye-Ang):
   XX=             11.3914   YY=           -200.2861   ZZ=           -171.7879
   XY=           -158.2528   XZ=           -150.0304   YZ=             84.2795

 Normal termination of Gaussian 16 at Fri May 27 02:50:09 2022.
