 Gaussian 16, Revision C.01,
 Gaussian 16:  ES64L-G16RevC.01  3-Jul-2019

 -------------------------------------------------------------------
 # B3LYP/6-31G* guess=read geom=check nosymm integral(ultrafinegrid)
 -------------------------------------------------------------------

 ------------------------------------------------------
 Candidate Structure: Conf:197 Charge calc in gas phase
 ------------------------------------------------------
 Structure from the checkpoint file:  "conf-197.chk"
 Charge =  1 Multiplicity = 1

                          Input orientation:
 ---------------------------------------------------------------------
 Center     Atomic      Atomic             Coordinates (Angstroms)
 Number     Number       Type             X           Y           Z
 ---------------------------------------------------------------------
      1          7           0       -6.651038   -2.207099    3.786777
      2          1           0       -6.434608   -2.581749    4.715689
      3          1           0       -7.407129   -2.761720    3.376019
      4          1           0       -6.927227   -1.179050    3.892945
      5          6           0       -5.430805   -2.080797    2.893904
      6          1           0       -4.655822   -2.752154    3.268366
      7          6           0       -5.038668   -0.583029    3.099608
      8          6           0       -5.820749   -2.424791    1.438467
      9          1           0       -5.941041   -3.510985    1.342205
     10          1           0       -6.765917   -1.936624    1.183116
     11          8           0       -5.927110    0.162606    3.541195
     12          6           0       -4.779867   -1.860368    0.451201
     13          7           0       -3.615393   -2.566307    0.370996
     14          1           0       -2.877351   -2.171849   -0.202493
     15          1           0       -3.565991   -3.554242    0.578765
     16          8           0       -4.968793   -0.784714   -0.085718
     17          7           0       -3.788105   -0.256092    2.806474
     18          1           0       -3.180308   -0.929603    2.335013
     19          6           0       -3.276713    1.117982    2.665800
     20          1           0       -4.134365    1.795408    2.648474
     21          6           0       -2.561689    1.088776    1.295526
     22          6           0       -2.311289    1.486650    3.829372
     23          1           0       -1.514220    0.730158    3.809283
     24          8           0       -2.003574    0.044751    0.933733
     25          6           0       -2.998310    1.389890    5.211342
     26          1           0       -2.206659    1.490112    5.964676
     27          1           0       -3.406797    0.378873    5.343976
     28          6           0       -1.656327    2.860577    3.604983
     29          1           0       -2.400338    3.642702    3.405762
     30          1           0       -1.113814    3.159539    4.508023
     31          1           0       -0.926771    2.846333    2.790602
     32          6           0       -4.094046    2.424528    5.498395
     33          1           0       -4.479551    2.290875    6.515060
     34          1           0       -3.713425    3.448697    5.429620
     35          1           0       -4.944189    2.326178    4.814752
     36          7           0       -2.608668    2.205571    0.550190
     37          1           0       -3.005436    3.049896    0.942511
     38          6           0       -1.981088    2.298783   -0.778745
     39          1           0       -2.109653    1.315793   -1.240290
     40          6           0       -0.472757    2.597980   -0.611775
     41          6           0       -2.671079    3.376571   -1.607133
     42          1           0       -2.254389    3.393281   -2.617903
     43          1           0       -3.744935    3.177976   -1.676672
     44          1           0       -2.501596    4.365208   -1.170607
     45          8           0       -0.044777    3.755171   -0.630840
     46          7           0        0.301980    1.508387   -0.435920
     47          1           0       -0.113537    0.590485   -0.299584
     48          6           0        1.739832    1.588588   -0.237784
     49          1           0        2.126408    2.367778   -0.905147
     50          6           0        2.297504    0.207815   -0.623959
     51          6           0        2.118883    1.965443    1.233762
     52          1           0        1.936684    1.084757    1.862525
     53          8           0        1.620432   -0.806882   -0.456699
     54          6           0        3.579454    2.402476    1.365909
     55          1           0        4.285773    1.612388    1.091319
     56          1           0        3.773747    2.689073    2.403341
     57          1           0        3.779131    3.277769    0.734779
     58          8           0        1.248066    2.970730    1.737778
     59          1           0        1.089290    3.621730    1.027313
     60          7           0        3.549481    0.197965   -1.134655
     61          1           0        4.119127    1.039633   -1.156123
     62          6           0        4.301351   -1.021393   -1.366919
     63          1           0        3.937115   -1.801023   -0.689515
     64          6           0        5.778403   -0.687604   -1.090863
     65          6           0        4.102922   -1.515819   -2.818270
     66          1           0        4.483810   -0.756040   -3.514064
     67          1           0        3.023454   -1.629036   -2.985175
     68          8           0        6.156845    0.481302   -1.045226
     69          8           0        4.777619   -2.756181   -2.983449
     70          1           0        5.040426   -2.840981   -3.926584
     71          7           0        6.597512   -1.760867   -0.934993
     72          1           0        6.185152   -2.670817   -1.102762
     73          6           0        8.046706   -1.640675   -0.989282
     74          1           0        8.305459   -0.612670   -0.727856
     75          1           0        8.508767   -2.299226   -0.247486
     76          6           0        8.690540   -1.952665   -2.353763
     77          8           0        9.906637   -1.897316   -2.484518
     78          7           0        7.830139   -2.277478   -3.355497
     79          1           0        6.837837   -2.365341   -3.164992
     80          6           0        8.290983   -2.585511   -4.695741
     81          1           0        9.122789   -1.920315   -4.938979
     82          6           0        7.178375   -2.371222   -5.706443
     83          6           0        8.793111   -4.064555   -4.813435
     84          1           0        9.731038   -4.100164   -4.251245
     85          1           0        8.077513   -4.702736   -4.279262
     86          8           0        7.651883   -2.057167   -6.895822
     87          6           0        8.999984   -4.597704   -6.249409
     88          1           0        9.367265   -3.786605   -6.886252
     89          1           0        9.797742   -5.348672   -6.226110
     90          6           0        7.733052   -5.247278   -6.879301
     91          1           0        6.833867   -4.945327   -6.327371
     92          1           0        7.798551   -6.333601   -6.747572
     93          6           0        7.492994   -4.961549   -8.376698
     94          1           0        8.443014   -4.766136   -8.885429
     95          1           0        7.047345   -5.842688   -8.858069
     96          7           0        6.625379   -3.768992   -8.585908
     97          1           0        6.579666   -3.536843   -9.577652
     98          1           0        7.098596   -2.529717   -7.634738
     99          1           0        5.671713   -3.985175   -8.294764
    100          8           0        5.987785   -2.591553   -5.477411
 ---------------------------------------------------------------------

 SCF Done:  E(RB3LYP) =  -2418.43508067     A.U. after    1 cycles

 Alpha  occ. eigenvalues --  -19.27511 -19.23908 -19.22231 -19.21880 -19.20547
 Alpha  occ. eigenvalues --  -19.19730 -19.19500 -19.18629 -19.18406 -19.18149
 Alpha  occ. eigenvalues --  -19.15117 -14.61308 -14.49806 -14.48027 -14.46444
 Alpha  occ. eigenvalues --  -14.42607 -14.42603 -14.42317 -14.41285 -14.40125
 Alpha  occ. eigenvalues --  -10.44247 -10.42584 -10.42075 -10.39247 -10.37234
 Alpha  occ. eigenvalues --  -10.35798 -10.35743 -10.35685 -10.35130 -10.34308
 Alpha  occ. eigenvalues --  -10.32942 -10.31680 -10.30108 -10.29855 -10.29702
 Alpha  occ. eigenvalues --  -10.29682 -10.28707 -10.28222 -10.28057 -10.27687
 Alpha  occ. eigenvalues --  -10.26719 -10.25553 -10.24998 -10.24908 -10.24239
 Alpha  occ. eigenvalues --  -10.23856 -10.23454 -10.22926  -1.20058  -1.15937
 Alpha  occ. eigenvalues --   -1.14958  -1.14463  -1.14041  -1.10997  -1.10373
 Alpha  occ. eigenvalues --   -1.09690  -1.07811  -1.07244  -1.06928  -1.06507
 Alpha  occ. eigenvalues --   -1.05699  -1.02878  -1.02442  -0.99238  -0.98934
 Alpha  occ. eigenvalues --   -0.98732  -0.96591  -0.96480  -0.94662  -0.90517
 Alpha  occ. eigenvalues --   -0.86240  -0.85155  -0.84757  -0.84179  -0.82134
 Alpha  occ. eigenvalues --   -0.81851  -0.80523  -0.79182  -0.77714  -0.76980
 Alpha  occ. eigenvalues --   -0.75313  -0.75022  -0.74736  -0.73285  -0.72528
 Alpha  occ. eigenvalues --   -0.71673  -0.71039  -0.70328  -0.69125  -0.68282
 Alpha  occ. eigenvalues --   -0.67442  -0.66957  -0.66256  -0.65823  -0.65647
 Alpha  occ. eigenvalues --   -0.65126  -0.64544  -0.64220  -0.64163  -0.63800
 Alpha  occ. eigenvalues --   -0.62625  -0.62122  -0.60831  -0.59898  -0.59446
 Alpha  occ. eigenvalues --   -0.58925  -0.58580  -0.58367  -0.57343  -0.56930
 Alpha  occ. eigenvalues --   -0.56758  -0.56726  -0.55603  -0.55179  -0.54867
 Alpha  occ. eigenvalues --   -0.54334  -0.53925  -0.53552  -0.53310  -0.53106
 Alpha  occ. eigenvalues --   -0.53062  -0.52709  -0.52121  -0.51710  -0.51406
 Alpha  occ. eigenvalues --   -0.51121  -0.50840  -0.50564  -0.50057  -0.49986
 Alpha  occ. eigenvalues --   -0.49519  -0.49225  -0.49082  -0.48908  -0.48543
 Alpha  occ. eigenvalues --   -0.48227  -0.47852  -0.47500  -0.47131  -0.46828
 Alpha  occ. eigenvalues --   -0.46622  -0.46162  -0.46004  -0.45961  -0.45644
 Alpha  occ. eigenvalues --   -0.45573  -0.44829  -0.44577  -0.44547  -0.44379
 Alpha  occ. eigenvalues --   -0.43802  -0.43724  -0.42835  -0.42757  -0.42522
 Alpha  occ. eigenvalues --   -0.42454  -0.42329  -0.41539  -0.41292  -0.40914
 Alpha  occ. eigenvalues --   -0.40719  -0.40410  -0.39718  -0.39611  -0.38977
 Alpha  occ. eigenvalues --   -0.38884  -0.38823  -0.38683  -0.38157  -0.37599
 Alpha  occ. eigenvalues --   -0.36572  -0.35954  -0.35445  -0.35088  -0.33542
 Alpha  occ. eigenvalues --   -0.33462  -0.33028  -0.32952  -0.32729  -0.32395
 Alpha  occ. eigenvalues --   -0.31783  -0.31219  -0.30898  -0.29397  -0.28335
 Alpha virt. eigenvalues --   -0.13359  -0.12186  -0.11382  -0.08131  -0.07137
 Alpha virt. eigenvalues --   -0.05562  -0.05125  -0.04986  -0.04449  -0.03806
 Alpha virt. eigenvalues --   -0.03307  -0.02222  -0.01227  -0.01081  -0.00474

 Mulliken charges:
               1
     1  N   -0.754495
     2  H    0.419165
     3  H    0.416200
     4  H    0.437482
     5  C   -0.116001
     6  H    0.218763
     7  C    0.656953
     8  C   -0.378401
     9  H    0.185890
    10  H    0.210776
    11  O   -0.539143
    12  C    0.572803
    13  N   -0.735470
    14  H    0.387492
    15  H    0.349097
    16  O   -0.457780
    17  N   -0.586945
    18  H    0.381086
    19  C   -0.083989
    20  H    0.187972
    21  C    0.667120
    22  C   -0.069119
    23  H    0.147162
    24  O   -0.571433
    25  C   -0.257777
    26  H    0.157439
    27  H    0.110639
    28  C   -0.503674
    29  H    0.136529
    30  H    0.170816
    31  H    0.208879
    32  C   -0.466953
    33  H    0.155189
    34  H    0.162811
    35  H    0.158693
    36  N   -0.590067
    37  H    0.349249
    38  C   -0.056569
    39  H    0.180010
    40  C    0.641107
    41  C   -0.472428
    42  H    0.181202
    43  H    0.161856
    44  H    0.182308
    45  O   -0.552327
    46  N   -0.602338
    47  H    0.370255
    48  C   -0.094433
    49  H    0.173309
    50  C    0.614477
    51  C    0.162907
    52  H    0.139052
    53  O   -0.544097
    54  C   -0.474425
    55  H    0.158367
    56  H    0.171323
    57  H    0.152143
    58  O   -0.640986
    59  H    0.418355
    60  N   -0.614420
    61  H    0.363883
    62  C   -0.071204
    63  H    0.186800
    64  C    0.604533
    65  C   -0.029487
    66  H    0.151274
    67  H    0.157660
    68  O   -0.524416
    69  O   -0.667192
    70  H    0.446509
    71  N   -0.602525
    72  H    0.351406
    73  C   -0.239489
    74  H    0.225929
    75  H    0.189202
    76  C    0.600957
    77  O   -0.516199
    78  N   -0.649399
    79  H    0.354601
    80  C   -0.003708
    81  H    0.197329
    82  C    0.588851
    83  C   -0.283319
    84  H    0.184193
    85  H    0.140947
    86  O   -0.587393
    87  C   -0.285597
    88  H    0.169028
    89  H    0.150564
    90  C   -0.289421
    91  H    0.153278
    92  H    0.152888
    93  C   -0.145277
    94  H    0.169154
    95  H    0.148944
    96  N   -0.777223
    97  H    0.335500
    98  H    0.459384
    99  H    0.336489
   100  O   -0.539056
 Sum of Mulliken charges =   1.00000

 Dipole moment (field-independent basis, Debye):
    X=            -20.9273    Y=            -16.0716    Z=              5.0081  Tot=             26.8576
 Quadrupole moment (field-independent basis, Debye-Ang):
   XX=           -144.1277   YY=           -216.8783   ZZ=           -143.3809
   XY=             20.3715   XZ=           -130.1769   YZ=             14.5148

 Normal termination of Gaussian 16 at Fri May 27 02:49:49 2022.
