 Gaussian 16, Revision C.01,
 Gaussian 16:  ES64L-G16RevC.01  3-Jul-2019

 -------------------------------------------------------------------
 # B3LYP/6-31G* guess=read geom=check nosymm integral(ultrafinegrid)
 -------------------------------------------------------------------

 ------------------------------------------------------
 Candidate Structure: Conf:420 Charge calc in gas phase
 ------------------------------------------------------
 Structure from the checkpoint file:  "conf-420.chk"
 Charge =  1 Multiplicity = 1

                          Input orientation:
 ---------------------------------------------------------------------
 Center     Atomic      Atomic             Coordinates (Angstroms)
 Number     Number       Type             X           Y           Z
 ---------------------------------------------------------------------
      1          7           0       -3.825916   -0.288969    6.354209
      2          1           0       -3.353102   -1.149254    6.645011
      3          1           0       -4.814169   -0.270904    6.726684
      4          1           0       -3.228612    0.513535    6.648458
      5          6           0       -3.909872   -0.168399    4.855677
      6          1           0       -3.993484   -1.174059    4.436903
      7          6           0       -2.591566    0.541689    4.449481
      8          6           0       -5.130621    0.692961    4.471361
      9          1           0       -4.958728    1.724106    4.809066
     10          1           0       -5.197536    0.724867    3.379738
     11          8           0       -2.026889    1.215410    5.317164
     12          6           0       -6.433851    0.207340    5.111764
     13          7           0       -7.549970    0.308216    4.372999
     14          1           0       -8.435975    0.057500    4.795629
     15          1           0       -7.554797    0.675144    3.432062
     16          8           0       -6.443860   -0.227854    6.272504
     17          7           0       -2.209785    0.376032    3.186305
     18          1           0       -2.804120   -0.101959    2.509549
     19          6           0       -1.105749    1.090925    2.539379
     20          1           0       -0.891714    1.982704    3.136971
     21          6           0       -1.679379    1.454101    1.152932
     22          6           0        0.199347    0.227802    2.400254
     23          1           0        0.002237   -0.523556    1.622493
     24          8           0       -2.606308    0.787934    0.681814
     25          6           0        0.553206   -0.517236    3.706864
     26          1           0       -0.356054   -0.929106    4.162918
     27          1           0        0.961671    0.202567    4.429561
     28          6           0        1.380507    1.108628    1.954443
     29          1           0        1.495583    1.968543    2.630831
     30          1           0        2.315265    0.539529    1.971930
     31          1           0        1.279526    1.477074    0.929818
     32          6           0        1.544168   -1.669674    3.485126
     33          1           0        1.812687   -2.127930    4.444203
     34          1           0        1.090925   -2.449613    2.859924
     35          1           0        2.465710   -1.348487    2.989433
     36          7           0       -1.114528    2.501777    0.505848
     37          1           0       -0.281880    2.912925    0.911508
     38          6           0       -1.290580    2.703699   -0.942908
     39          1           0       -2.256654    2.261818   -1.194378
     40          6           0       -0.142852    1.922004   -1.619869
     41          6           0       -1.260860    4.185887   -1.298109
     42          1           0       -1.442305    4.319963   -2.369123
     43          1           0       -2.033609    4.725659   -0.743188
     44          1           0       -0.281498    4.616955   -1.071521
     45          8           0        0.968930    2.450795   -1.744343
     46          7           0       -0.426577    0.645709   -1.965601
     47          1           0       -1.310859    0.273721   -1.627744
     48          6           0        0.604563   -0.405937   -2.108843
     49          1           0        1.367919   -0.267647   -1.328039
     50          6           0        1.356361   -0.365010   -3.454832
     51          6           0       -0.069112   -1.782008   -1.902438
     52          1           0       -0.630275   -2.036867   -2.812917
     53          8           0        1.484391   -1.370743   -4.167269
     54          6           0        0.923129   -2.893127   -1.571462
     55          1           0        1.548534   -3.115088   -2.438233
     56          1           0        0.374026   -3.808522   -1.313687
     57          1           0        1.563752   -2.599876   -0.735356
     58          8           0       -0.997252   -1.588828   -0.816477
     59          1           0       -1.457310   -2.431457   -0.683814
     60          7           0        1.946045    0.813465   -3.761298
     61          1           0        1.856427    1.575151   -3.080188
     62          6           0        2.713799    1.012408   -4.987098
     63          1           0        2.244677    0.424624   -5.783925
     64          6           0        4.158081    0.491125   -4.809933
     65          6           0        2.701155    2.497349   -5.383823
     66          1           0        3.094936    3.102465   -4.551825
     67          1           0        1.665235    2.801875   -5.557097
     68          8           0        5.147837    1.247045   -4.917991
     69          8           0        3.410294    2.722703   -6.581786
     70          1           0        4.340011    2.533813   -6.368986
     71          7           0        4.257401   -0.813685   -4.507618
     72          1           0        3.380878   -1.339663   -4.453565
     73          6           0        5.519998   -1.429726   -4.140970
     74          1           0        5.362916   -2.510185   -4.068168
     75          1           0        6.269883   -1.262326   -4.919295
     76          6           0        6.121371   -0.927294   -2.811107
     77          8           0        7.370094   -0.883827   -2.707836
     78          7           0        5.260149   -0.562504   -1.870658
     79          1           0        4.250974   -0.753091   -1.962839
     80          6           0        5.525262   -0.285657   -0.451956
     81          1           0        6.313517   -0.962002   -0.104584
     82          6           0        4.177009   -0.607405    0.299307
     83          6           0        5.926144    1.166520   -0.119967
     84          1           0        5.066175    1.825636   -0.304060
     85          1           0        6.082192    1.172469    0.962115
     86          8           0        4.221744   -0.517723    1.538338
     87          6           0        7.168564    1.712618   -0.857237
     88          1           0        7.766333    2.329205   -0.174508
     89          1           0        7.804471    0.871660   -1.152069
     90          6           0        6.800145    2.574746   -2.085331
     91          1           0        6.587337    3.600424   -1.761049
     92          1           0        5.874516    2.214687   -2.549736
     93          6           0        7.878203    2.648926   -3.168264
     94          1           0        7.727526    3.501875   -3.835342
     95          1           0        8.885164    2.710580   -2.745866
     96          7           0        7.831494    1.416257   -4.040130
     97          1           0        8.568744    1.419056   -4.749221
     98          1           0        6.900967    1.351155   -4.511716
     99          1           0        7.890528    0.517823   -3.482573
    100          8           0        3.190844   -0.866938   -0.457415
 ---------------------------------------------------------------------

 SCF Done:  E(RB3LYP) =  -2418.44404843     A.U. after    2 cycles

 Alpha  occ. eigenvalues --  -19.26586 -19.24847 -19.22310 -19.21944 -19.21452
 Alpha  occ. eigenvalues --  -19.20128 -19.19963 -19.19230 -19.18912 -19.12276
 Alpha  occ. eigenvalues --  -19.11121 -14.57167 -14.51694 -14.49979 -14.48004
 Alpha  occ. eigenvalues --  -14.45468 -14.44598 -14.43484 -14.42718 -14.41547
 Alpha  occ. eigenvalues --  -10.44188 -10.42030 -10.40328 -10.38371 -10.38086
 Alpha  occ. eigenvalues --  -10.36713 -10.36138 -10.36048 -10.35604 -10.33243
 Alpha  occ. eigenvalues --  -10.32661 -10.31712 -10.30971 -10.30662 -10.30427
 Alpha  occ. eigenvalues --  -10.29929 -10.29817 -10.29424 -10.26744 -10.26258
 Alpha  occ. eigenvalues --  -10.26154 -10.25621 -10.24308 -10.23977 -10.23158
 Alpha  occ. eigenvalues --  -10.22102 -10.21971 -10.21061  -1.18458  -1.17115
 Alpha  occ. eigenvalues --   -1.13399  -1.13193  -1.11765  -1.11658  -1.10700
 Alpha  occ. eigenvalues --   -1.10192  -1.09031  -1.07684  -1.06764  -1.04997
 Alpha  occ. eigenvalues --   -1.04926  -1.04616  -1.01766  -1.01413  -0.99775
 Alpha  occ. eigenvalues --   -0.98992  -0.98099  -0.95957  -0.93535  -0.88518
 Alpha  occ. eigenvalues --   -0.87252  -0.85832  -0.84455  -0.83390  -0.83080
 Alpha  occ. eigenvalues --   -0.82134  -0.80097  -0.80055  -0.76501  -0.76393
 Alpha  occ. eigenvalues --   -0.75908  -0.74425  -0.72717  -0.72461  -0.71716
 Alpha  occ. eigenvalues --   -0.70853  -0.70458  -0.70424  -0.69006  -0.68528
 Alpha  occ. eigenvalues --   -0.67819  -0.67456  -0.66958  -0.66703  -0.65621
 Alpha  occ. eigenvalues --   -0.65524  -0.64686  -0.64488  -0.63772  -0.63201
 Alpha  occ. eigenvalues --   -0.62536  -0.62469  -0.61446  -0.61326  -0.60003
 Alpha  occ. eigenvalues --   -0.59726  -0.58885  -0.57938  -0.57717  -0.57443
 Alpha  occ. eigenvalues --   -0.57298  -0.56779  -0.56628  -0.56314  -0.55727
 Alpha  occ. eigenvalues --   -0.55401  -0.54942  -0.54440  -0.53959  -0.53312
 Alpha  occ. eigenvalues --   -0.52981  -0.52904  -0.52303  -0.52081  -0.51774
 Alpha  occ. eigenvalues --   -0.51263  -0.51053  -0.50809  -0.50647  -0.50089
 Alpha  occ. eigenvalues --   -0.49983  -0.49292  -0.49020  -0.48846  -0.48574
 Alpha  occ. eigenvalues --   -0.48222  -0.47765  -0.47459  -0.47340  -0.46788
 Alpha  occ. eigenvalues --   -0.46564  -0.46497  -0.46277  -0.45811  -0.45266
 Alpha  occ. eigenvalues --   -0.45030  -0.44734  -0.44194  -0.43855  -0.43812
 Alpha  occ. eigenvalues --   -0.43207  -0.43122  -0.42714  -0.42248  -0.42149
 Alpha  occ. eigenvalues --   -0.41458  -0.41328  -0.41211  -0.40866  -0.40546
 Alpha  occ. eigenvalues --   -0.40125  -0.39822  -0.39562  -0.39268  -0.39059
 Alpha  occ. eigenvalues --   -0.38833  -0.38308  -0.38196  -0.37522  -0.36888
 Alpha  occ. eigenvalues --   -0.36699  -0.36263  -0.35949  -0.35148  -0.34904
 Alpha  occ. eigenvalues --   -0.33877  -0.33498  -0.32953  -0.32471  -0.32084
 Alpha  occ. eigenvalues --   -0.31806  -0.31511  -0.27252  -0.27032  -0.25171
 Alpha virt. eigenvalues --   -0.12245  -0.10767  -0.08502  -0.08127  -0.07962
 Alpha virt. eigenvalues --   -0.05963  -0.05284  -0.04972  -0.04636  -0.03624
 Alpha virt. eigenvalues --   -0.03588  -0.01513  -0.00513   0.00061   0.01063

 Mulliken charges:
               1
     1  N   -0.754355
     2  H    0.410112
     3  H    0.442021
     4  H    0.417593
     5  C   -0.124298
     6  H    0.213871
     7  C    0.648029
     8  C   -0.401072
     9  H    0.228593
    10  H    0.205504
    11  O   -0.528791
    12  C    0.644888
    13  N   -0.726713
    14  H    0.381482
    15  H    0.370767
    16  O   -0.533709
    17  N   -0.594694
    18  H    0.359737
    19  C   -0.076864
    20  H    0.181742
    21  C    0.628709
    22  C   -0.081536
    23  H    0.164066
    24  O   -0.551436
    25  C   -0.247984
    26  H    0.092051
    27  H    0.143813
    28  C   -0.527064
    29  H    0.123212
    30  H    0.253414
    31  H    0.148424
    32  C   -0.473859
    33  H    0.133914
    34  H    0.130973
    35  H    0.225975
    36  N   -0.589861
    37  H    0.353314
    38  C   -0.066256
    39  H    0.184794
    40  C    0.643053
    41  C   -0.456200
    42  H    0.170801
    43  H    0.161224
    44  H    0.178101
    45  O   -0.559602
    46  N   -0.616840
    47  H    0.375816
    48  C   -0.105564
    49  H    0.263036
    50  C    0.637396
    51  C    0.119114
    52  H    0.142771
    53  O   -0.555212
    54  C   -0.486141
    55  H    0.167893
    56  H    0.122847
    57  H    0.211852
    58  O   -0.649466
    59  H    0.399871
    60  N   -0.635560
    61  H    0.397731
    62  C   -0.084685
    63  H    0.204049
    64  C    0.648923
    65  C   -0.042006
    66  H    0.135363
    67  H    0.164763
    68  O   -0.599241
    69  O   -0.620394
    70  H    0.406911
    71  N   -0.596401
    72  H    0.397229
    73  C   -0.225860
    74  H    0.205023
    75  H    0.174419
    76  C    0.593413
    77  O   -0.592160
    78  N   -0.572016
    79  H    0.359803
    80  C   -0.065775
    81  H    0.169308
    82  C    0.599415
    83  C   -0.272696
    84  H    0.138168
    85  H    0.180156
    86  O   -0.564366
    87  C   -0.287486
    88  H    0.146141
    89  H    0.165936
    90  C   -0.296559
    91  H    0.169226
    92  H    0.173608
    93  C   -0.183857
    94  H    0.189103
    95  H    0.196447
    96  N   -0.801836
    97  H    0.386206
    98  H    0.433320
    99  H    0.442765
   100  O   -0.609781
 Sum of Mulliken charges =   1.00000

 Dipole moment (field-independent basis, Debye):
    X=             -8.1370    Y=              4.5184    Z=              7.0261  Tot=             11.6616
 Quadrupole moment (field-independent basis, Debye-Ang):
   XX=            -63.6248   YY=           -260.2609   ZZ=           -175.0865
   XY=             32.8620   XZ=           -155.1857   YZ=            -10.6642

 Normal termination of Gaussian 16 at Fri May 27 02:50:19 2022.
