 Gaussian 16, Revision C.01,
 Gaussian 16:  ES64L-G16RevC.01  3-Jul-2019

 -------------------------------------------------------------------
 # B3LYP/6-31G* guess=read geom=check nosymm integral(ultrafinegrid)
 -------------------------------------------------------------------

 ------------------------------------------------------
 Candidate Structure: Conf:950 Charge calc in gas phase
 ------------------------------------------------------
 Structure from the checkpoint file:  "conf-950.chk"
 Charge =  1 Multiplicity = 1

                          Input orientation:
 ---------------------------------------------------------------------
 Center     Atomic      Atomic             Coordinates (Angstroms)
 Number     Number       Type             X           Y           Z
 ---------------------------------------------------------------------
      1          7           0       -7.635327    3.261275    3.836998
      2          1           0       -7.957650    3.830208    4.624662
      3          1           0       -8.438758    3.040569    3.243474
      4          1           0       -6.884588    3.803672    3.287290
      5          6           0       -6.838347    2.048576    4.268182
      6          1           0       -6.958640    1.901687    5.342225
      7          6           0       -5.384912    2.467937    3.893792
      8          6           0       -7.289154    0.791125    3.502405
      9          1           0       -8.385414    0.758148    3.440405
     10          1           0       -6.876716    0.795516    2.487195
     11          8           0       -5.263685    3.478822    3.182662
     12          6           0       -6.805803   -0.474187    4.226545
     13          7           0       -7.225859   -1.640807    3.700230
     14          1           0       -6.883797   -2.500206    4.111277
     15          1           0       -7.713557   -1.698777    2.817561
     16          8           0       -6.109594   -0.404139    5.239840
     17          7           0       -4.400633    1.697901    4.345622
     18          1           0       -4.699856    0.849557    4.829241
     19          6           0       -3.110852    1.669765    3.657440
     20          1           0       -2.815173    2.708589    3.479014
     21          6           0       -3.340634    0.993327    2.271549
     22          6           0       -2.024695    0.978794    4.522335
     23          1           0       -1.104473    1.011836    3.922648
     24          8           0       -4.434756    0.509874    1.964998
     25          6           0       -2.340728   -0.509716    4.791672
     26          1           0       -2.638181   -0.989652    3.849937
     27          1           0       -3.205159   -0.595916    5.465518
     28          6           0       -1.769467    1.781388    5.807810
     29          1           0       -2.640424    1.759481    6.472942
     30          1           0       -0.918232    1.374269    6.360075
     31          1           0       -1.544819    2.830212    5.582714
     32          6           0       -1.165081   -1.291573    5.390690
     33          1           0       -1.423338   -2.350170    5.497617
     34          1           0       -0.279424   -1.228437    4.747347
     35          1           0       -0.886851   -0.921776    6.382677
     36          7           0       -2.271852    0.996551    1.457398
     37          1           0       -1.365867    1.356289    1.748128
     38          6           0       -2.251034    0.363568    0.145506
     39          1           0       -2.767990   -0.600238    0.216851
     40          6           0       -0.764689    0.147572   -0.188111
     41          6           0       -2.929442    1.231076   -0.932284
     42          1           0       -2.996742    0.689821   -1.882053
     43          1           0       -3.944014    1.478819   -0.609624
     44          1           0       -2.358540    2.148971   -1.102163
     45          8           0        0.116739    0.709656    0.474764
     46          7           0       -0.502784   -0.647423   -1.241465
     47          1           0       -1.243994   -1.020192   -1.826880
     48          6           0        0.842280   -0.833773   -1.788236
     49          1           0        1.546925   -0.858781   -0.951257
     50          6           0        1.175219    0.358591   -2.714305
     51          6           0        0.869442   -2.157122   -2.582726
     52          1           0        1.833966   -2.202043   -3.106399
     53          8           0        1.142927    0.248343   -3.947038
     54          6           0        0.713002   -3.389543   -1.702515
     55          1           0        1.537734   -3.464757   -0.985574
     56          1           0        0.712306   -4.285739   -2.329120
     57          1           0       -0.229542   -3.362692   -1.145707
     58          8           0       -0.201370   -2.142746   -3.524168
     59          1           0        0.039840   -1.433587   -4.153781
     60          7           0        1.460878    1.515115   -2.082485
     61          1           0        1.353605    1.540192   -1.071536
     62          6           0        1.562013    2.785547   -2.807422
     63          1           0        0.903550    2.708527   -3.679695
     64          6           0        3.010338    3.047514   -3.286768
     65          6           0        1.103833    3.936523   -1.921033
     66          1           0        1.191562    4.867851   -2.493698
     67          1           0        1.773022    4.022356   -1.054441
     68          8           0        3.704466    3.924473   -2.776846
     69          8           0       -0.245677    3.685700   -1.522439
     70          1           0       -0.525607    4.437539   -0.979504
     71          7           0        3.431155    2.250671   -4.293153
     72          1           0        2.843295    1.515360   -4.683500
     73          6           0        4.768452    2.371469   -4.828771
     74          1           0        4.968601    3.409196   -5.123205
     75          1           0        5.522946    2.115331   -4.071279
     76          6           0        4.904960    1.433571   -6.031997
     77          8           0        4.009173    0.648916   -6.344495
     78          7           0        6.075227    1.534463   -6.699134
     79          1           0        6.813823    2.169797   -6.412982
     80          6           0        6.407635    0.687126   -7.836558
     81          1           0        6.026790   -0.318178   -7.627785
     82          6           0        7.950807    0.686019   -7.905119
     83          6           0        5.734763    1.227064   -9.136663
     84          1           0        4.791221    1.674337   -8.809385
     85          1           0        6.346952    2.042930   -9.542338
     86          8           0        8.546438   -0.354647   -8.469210
     87          6           0        5.393284    0.210799  -10.242617
     88          1           0        4.786963   -0.592330   -9.798601
     89          1           0        4.715175    0.722041  -10.935625
     90          6           0        6.578459   -0.381183  -11.050809
     91          1           0        7.515642    0.109384  -10.767868
     92          1           0        6.438241   -0.173724  -12.118276
     93          6           0        6.756878   -1.896387  -10.902929
     94          1           0        5.902707   -2.426705  -11.348711
     95          1           0        7.652204   -2.209480  -11.449633
     96          7           0        6.947911   -2.286290   -9.482258
     97          1           0        6.045832   -2.368071   -9.015538
     98          1           0        7.904204   -1.086553   -8.762179
     99          1           0        7.381249   -3.206430   -9.421835
    100          8           0        8.580277    1.629608   -7.464896
 ---------------------------------------------------------------------

 SCF Done:  E(RB3LYP) =  -2418.44532477     A.U. after    3 cycles

 Alpha  occ. eigenvalues --  -19.27004 -19.25060 -19.21511 -19.21442 -19.20949
 Alpha  occ. eigenvalues --  -19.20389 -19.20038 -19.19176 -19.16094 -19.16079
 Alpha  occ. eigenvalues --  -19.15735 -14.60165 -14.48631 -14.48360 -14.45130
 Alpha  occ. eigenvalues --  -14.44801 -14.42747 -14.40243 -14.40003 -14.39797
 Alpha  occ. eigenvalues --  -10.43312 -10.43091 -10.41107 -10.38544 -10.37833
 Alpha  occ. eigenvalues --  -10.35798 -10.35329 -10.34710 -10.33826 -10.33399
 Alpha  occ. eigenvalues --  -10.33039 -10.32466 -10.30542 -10.30438 -10.29471
 Alpha  occ. eigenvalues --  -10.29365 -10.28991 -10.27912 -10.27256 -10.27105
 Alpha  occ. eigenvalues --  -10.27104 -10.26244 -10.26178 -10.25237 -10.23803
 Alpha  occ. eigenvalues --  -10.23422 -10.23333 -10.23094  -1.19490  -1.16835
 Alpha  occ. eigenvalues --   -1.14018  -1.13293  -1.12535  -1.11992  -1.10884
 Alpha  occ. eigenvalues --   -1.08567  -1.08139  -1.07600  -1.07302  -1.05738
 Alpha  occ. eigenvalues --   -1.03898  -1.03657  -1.01786  -1.01006  -0.98891
 Alpha  occ. eigenvalues --   -0.96720  -0.96124  -0.95754  -0.94072  -0.90738
 Alpha  occ. eigenvalues --   -0.86851  -0.84661  -0.84465  -0.83800  -0.82442
 Alpha  occ. eigenvalues --   -0.81975  -0.80376  -0.79327  -0.77706  -0.77038
 Alpha  occ. eigenvalues --   -0.74777  -0.74414  -0.74057  -0.73706  -0.72419
 Alpha  occ. eigenvalues --   -0.71913  -0.70538  -0.69833  -0.68679  -0.67556
 Alpha  occ. eigenvalues --   -0.67055  -0.66815  -0.66444  -0.66167  -0.65567
 Alpha  occ. eigenvalues --   -0.64880  -0.64303  -0.63757  -0.63240  -0.62615
 Alpha  occ. eigenvalues --   -0.62276  -0.61676  -0.60518  -0.59973  -0.59514
 Alpha  occ. eigenvalues --   -0.58991  -0.58178  -0.58045  -0.57634  -0.56963
 Alpha  occ. eigenvalues --   -0.56867  -0.56213  -0.55749  -0.55162  -0.54658
 Alpha  occ. eigenvalues --   -0.54334  -0.54221  -0.53448  -0.53273  -0.53035
 Alpha  occ. eigenvalues --   -0.52794  -0.52306  -0.52168  -0.51964  -0.51644
 Alpha  occ. eigenvalues --   -0.50949  -0.50772  -0.50715  -0.50110  -0.49839
 Alpha  occ. eigenvalues --   -0.49742  -0.49398  -0.49235  -0.48683  -0.48418
 Alpha  occ. eigenvalues --   -0.48139  -0.48034  -0.46705  -0.46696  -0.46501
 Alpha  occ. eigenvalues --   -0.46461  -0.46349  -0.46085  -0.45758  -0.45347
 Alpha  occ. eigenvalues --   -0.44887  -0.44823  -0.44636  -0.44488  -0.44054
 Alpha  occ. eigenvalues --   -0.43692  -0.43458  -0.43235  -0.42890  -0.42657
 Alpha  occ. eigenvalues --   -0.42232  -0.41896  -0.41629  -0.41587  -0.40891
 Alpha  occ. eigenvalues --   -0.40753  -0.40054  -0.39960  -0.39544  -0.39354
 Alpha  occ. eigenvalues --   -0.39172  -0.38954  -0.38282  -0.37695  -0.37123
 Alpha  occ. eigenvalues --   -0.36355  -0.35476  -0.34883  -0.34692  -0.33789
 Alpha  occ. eigenvalues --   -0.33618  -0.33588  -0.33449  -0.32393  -0.31459
 Alpha  occ. eigenvalues --   -0.30865  -0.30301  -0.29670  -0.28798  -0.28732
 Alpha virt. eigenvalues --   -0.12170  -0.11607  -0.10906  -0.07643  -0.06986
 Alpha virt. eigenvalues --   -0.06867  -0.04796  -0.04355  -0.03028  -0.02630
 Alpha virt. eigenvalues --   -0.02185  -0.01549  -0.01020  -0.00340   0.00176

 Mulliken charges:
               1
     1  N   -0.766983
     2  H    0.417591
     3  H    0.410025
     4  H    0.437025
     5  C   -0.108991
     6  H    0.237529
     7  C    0.648777
     8  C   -0.410839
     9  H    0.183901
    10  H    0.248804
    11  O   -0.543767
    12  C    0.650000
    13  N   -0.735063
    14  H    0.374642
    15  H    0.363414
    16  O   -0.518880
    17  N   -0.597314
    18  H    0.407978
    19  C   -0.088201
    20  H    0.193898
    21  C    0.647789
    22  C   -0.106158
    23  H    0.151000
    24  O   -0.573577
    25  C   -0.286412
    26  H    0.148650
    27  H    0.148244
    28  C   -0.454106
    29  H    0.151037
    30  H    0.174264
    31  H    0.153659
    32  C   -0.453534
    33  H    0.159577
    34  H    0.157033
    35  H    0.160534
    36  N   -0.616214
    37  H    0.367045
    38  C   -0.038200
    39  H    0.177969
    40  C    0.639396
    41  C   -0.463582
    42  H    0.157760
    43  H    0.171631
    44  H    0.194284
    45  O   -0.559786
    46  N   -0.602042
    47  H    0.354027
    48  C   -0.083764
    49  H    0.184820
    50  C    0.637330
    51  C    0.113077
    52  H    0.154595
    53  O   -0.550988
    54  C   -0.449854
    55  H    0.150313
    56  H    0.175065
    57  H    0.144740
    58  O   -0.652530
    59  H    0.424747
    60  N   -0.604086
    61  H    0.375331
    62  C   -0.073274
    63  H    0.188426
    64  C    0.632729
    65  C   -0.059959
    66  H    0.160460
    67  H    0.156099
    68  O   -0.533328
    69  O   -0.631429
    70  H    0.400065
    71  N   -0.633237
    72  H    0.384431
    73  C   -0.192829
    74  H    0.190142
    75  H    0.186769
    76  C    0.602020
    77  O   -0.538435
    78  N   -0.622174
    79  H    0.357156
    80  C   -0.046081
    81  H    0.153548
    82  C    0.594586
    83  C   -0.271374
    84  H    0.169667
    85  H    0.157005
    86  O   -0.609112
    87  C   -0.280481
    88  H    0.134516
    89  H    0.153572
    90  C   -0.279590
    91  H    0.169388
    92  H    0.150981
    93  C   -0.150713
    94  H    0.147913
    95  H    0.164485
    96  N   -0.782532
    97  H    0.332489
    98  H    0.477234
    99  H    0.336172
   100  O   -0.477940
 Sum of Mulliken charges =   1.00000

 Dipole moment (field-independent basis, Debye):
    X=            -29.8503    Y=              3.0581    Z=             10.2936  Tot=             31.7231
 Quadrupole moment (field-independent basis, Debye-Ang):
   XX=            -70.3536   YY=           -234.1978   ZZ=           -142.6195
   XY=            -93.9920   XZ=           -132.8540   YZ=             64.2451

 Normal termination of Gaussian 16 at Fri May 27 02:50:19 2022.
