 Gaussian 16, Revision C.01,
 Gaussian 16:  ES64L-G16RevC.01  3-Jul-2019

 -------------------------------------------------------------------
 # B3LYP/6-31G* guess=read geom=check nosymm integral(ultrafinegrid)
 -------------------------------------------------------------------

 ------------------------------------------------------
 Candidate Structure: Conf:807 Charge calc in gas phase
 ------------------------------------------------------
 Structure from the checkpoint file:  "conf-807.chk"
 Charge =  1 Multiplicity = 1

                          Input orientation:
 ---------------------------------------------------------------------
 Center     Atomic      Atomic             Coordinates (Angstroms)
 Number     Number       Type             X           Y           Z
 ---------------------------------------------------------------------
      1          7           0       -2.532471    0.765463   -2.941439
      2          1           0       -2.956000    0.133276   -3.649585
      3          1           0       -1.500255    0.440020   -3.022008
      4          1           0       -2.573375    1.724153   -3.295824
      5          6           0       -3.102634    0.670462   -1.570590
      6          1           0       -4.120133    1.067389   -1.579588
      7          6           0       -2.197842    1.510559   -0.647846
      8          6           0       -3.166729   -0.792296   -1.094480
      9          1           0       -3.568923   -1.419994   -1.900999
     10          1           0       -2.168032   -1.175504   -0.858942
     11          8           0       -1.040645    1.771321   -1.000492
     12          6           0       -4.119335   -0.905866    0.110464
     13          7           0       -4.006576   -2.025901    0.846380
     14          1           0       -4.590716   -2.073032    1.672162
     15          1           0       -3.167321   -2.607679    0.829911
     16          8           0       -4.959378   -0.026399    0.325129
     17          7           0       -2.762481    1.883402    0.511117
     18          1           0       -3.678089    1.484491    0.723244
     19          6           0       -1.999093    2.454644    1.618093
     20          1           0       -1.201210    3.065228    1.186608
     21          6           0       -1.395948    1.289829    2.432272
     22          6           0       -2.928226    3.341934    2.494265
     23          1           0       -3.710419    2.674125    2.883930
     24          8           0       -2.058531    0.264801    2.629241
     25          6           0       -3.635804    4.436130    1.659133
     26          1           0       -4.323122    4.961004    2.334703
     27          1           0       -4.267795    3.959798    0.900171
     28          6           0       -2.183601    3.937209    3.700012
     29          1           0       -1.311935    4.527488    3.394658
     30          1           0       -2.853223    4.601228    4.256448
     31          1           0       -1.836017    3.164387    4.390914
     32          6           0       -2.719973    5.460891    0.978032
     33          1           0       -3.319824    6.208835    0.448787
     34          1           0       -2.093933    5.998010    1.698535
     35          1           0       -2.057063    4.996489    0.238035
     36          7           0       -0.149974    1.493572    2.921851
     37          1           0        0.423174    2.184261    2.450528
     38          6           0        0.587157    0.563785    3.795626
     39          1           0        1.481369    1.108798    4.104171
     40          6           0        1.147919   -0.633208    3.006050
     41          6           0       -0.194508    0.157246    5.051421
     42          1           0        0.440365   -0.474070    5.681263
     43          1           0       -0.462347    1.049944    5.625416
     44          1           0       -1.107645   -0.386973    4.808188
     45          8           0        2.367316   -0.802520    2.916608
     46          7           0        0.251861   -1.467442    2.414611
     47          1           0       -0.732458   -1.197304    2.403329
     48          6           0        0.716859   -2.585147    1.595715
     49          1           0        1.647014   -2.937729    2.056211
     50          6           0        1.059553   -2.088565    0.169528
     51          6           0       -0.286848   -3.757399    1.554107
     52          1           0        0.237975   -4.591199    1.064920
     53          8           0        0.463311   -2.514615   -0.844840
     54          6           0       -0.754297   -4.207520    2.929518
     55          1           0        0.098230   -4.493536    3.554179
     56          1           0       -1.414884   -5.073028    2.825648
     57          1           0       -1.303294   -3.412746    3.443064
     58          8           0       -1.436620   -3.423888    0.764924
     59          1           0       -1.055501   -3.229424   -0.118474
     60          7           0        2.011512   -1.146204    0.094504
     61          1           0        2.457760   -0.874828    0.973120
     62          6           0        2.142348   -0.242725   -1.053660
     63          1           0        1.156083   -0.199859   -1.535662
     64          6           0        3.110946   -0.763743   -2.137890
     65          6           0        2.500764    1.169489   -0.564781
     66          1           0        2.648249    1.813538   -1.439127
     67          1           0        3.442880    1.154663   -0.008271
     68          8           0        4.006602   -0.084735   -2.615128
     69          8           0        1.506690    1.675441    0.316143
     70          1           0        0.681574    1.795457   -0.194774
     71          7           0        2.801643   -2.032568   -2.568675
     72          1           0        1.987266   -2.475259   -2.144573
     73          6           0        3.374970   -2.618240   -3.759590
     74          1           0        4.214092   -1.986132   -4.069517
     75          1           0        3.764123   -3.624503   -3.573184
     76          6           0        2.376242   -2.727153   -4.926798
     77          8           0        2.605674   -3.558224   -5.837540
     78          7           0        1.340438   -1.901320   -4.838022
     79          1           0        1.305834   -1.300237   -4.014218
     80          6           0        0.163439   -1.650177   -5.672280
     81          1           0        0.429218   -0.895319   -6.427397
     82          6           0       -0.866234   -0.951814   -4.725144
     83          6           0       -0.407751   -2.861337   -6.411841
     84          1           0       -1.320101   -2.513207   -6.905733
     85          1           0        0.293115   -3.129286   -7.209705
     86          8           0       -2.077928   -0.998643   -5.020823
     87          6           0       -0.749406   -4.070584   -5.522438
     88          1           0       -0.001366   -4.192222   -4.728488
     89          1           0       -1.695321   -3.857526   -5.015259
     90          6           0       -0.878165   -5.395547   -6.299783
     91          1           0       -1.356867   -5.225455   -7.274562
     92          1           0       -1.542081   -6.081578   -5.760298
     93          6           0        0.425695   -6.172438   -6.491269
     94          1           0        0.894850   -6.398151   -5.529743
     95          1           0        0.251627   -7.112102   -7.022204
     96          7           0        1.467321   -5.404359   -7.274908
     97          1           0        2.288329   -5.988145   -7.462697
     98          1           0        1.828698   -4.541831   -6.724012
     99          1           0        1.099066   -5.094476   -8.178734
    100          8           0       -0.338021   -0.349915   -3.730298
 ---------------------------------------------------------------------

 SCF Done:  E(RB3LYP) =  -2418.49617389     A.U. after    1 cycles

 Alpha  occ. eigenvalues --  -19.23155 -19.23093 -19.22888 -19.22598 -19.21117
 Alpha  occ. eigenvalues --  -19.21003 -19.20212 -19.20080 -19.19979 -19.19649
 Alpha  occ. eigenvalues --  -19.19170 -14.56623 -14.51284 -14.45712 -14.45691
 Alpha  occ. eigenvalues --  -14.45162 -14.44857 -14.44221 -14.43846 -14.43107
 Alpha  occ. eigenvalues --  -10.39758 -10.39678 -10.38635 -10.38161 -10.37874
 Alpha  occ. eigenvalues --  -10.37525 -10.37363 -10.37062 -10.36769 -10.35413
 Alpha  occ. eigenvalues --  -10.32928 -10.32451 -10.32209 -10.32198 -10.31816
 Alpha  occ. eigenvalues --  -10.31659 -10.31547 -10.31087 -10.30561 -10.30444
 Alpha  occ. eigenvalues --  -10.29239 -10.28915 -10.27709 -10.25641 -10.25551
 Alpha  occ. eigenvalues --  -10.25419 -10.24875 -10.24240  -1.14666  -1.14173
 Alpha  occ. eigenvalues --   -1.14012  -1.13013  -1.12706  -1.11916  -1.11736
 Alpha  occ. eigenvalues --   -1.11522  -1.11280  -1.10171  -1.08415  -1.06755
 Alpha  occ. eigenvalues --   -1.04433  -1.02703  -1.02641  -1.01693  -1.01356
 Alpha  occ. eigenvalues --   -1.00268  -0.99599  -0.98464  -0.92067  -0.90076
 Alpha  occ. eigenvalues --   -0.88003  -0.87880  -0.87040  -0.84868  -0.84432
 Alpha  occ. eigenvalues --   -0.82360  -0.81518  -0.80071  -0.79163  -0.78952
 Alpha  occ. eigenvalues --   -0.76811  -0.75552  -0.73926  -0.72466  -0.71743
 Alpha  occ. eigenvalues --   -0.71392  -0.70420  -0.69401  -0.69112  -0.68878
 Alpha  occ. eigenvalues --   -0.68285  -0.67538  -0.66845  -0.66237  -0.66141
 Alpha  occ. eigenvalues --   -0.65728  -0.65274  -0.64834  -0.64017  -0.63779
 Alpha  occ. eigenvalues --   -0.62884  -0.62265  -0.62130  -0.61444  -0.60963
 Alpha  occ. eigenvalues --   -0.60444  -0.59843  -0.58997  -0.58756  -0.58680
 Alpha  occ. eigenvalues --   -0.57904  -0.57462  -0.56820  -0.56504  -0.55878
 Alpha  occ. eigenvalues --   -0.55447  -0.55314  -0.54999  -0.54536  -0.54095
 Alpha  occ. eigenvalues --   -0.53668  -0.53472  -0.53290  -0.53035  -0.52532
 Alpha  occ. eigenvalues --   -0.52502  -0.52025  -0.51265  -0.51186  -0.51080
 Alpha  occ. eigenvalues --   -0.50821  -0.50638  -0.50392  -0.50151  -0.49809
 Alpha  occ. eigenvalues --   -0.49586  -0.49392  -0.48800  -0.48589  -0.48389
 Alpha  occ. eigenvalues --   -0.47974  -0.47668  -0.47575  -0.47399  -0.47251
 Alpha  occ. eigenvalues --   -0.46602  -0.46342  -0.46029  -0.45898  -0.45708
 Alpha  occ. eigenvalues --   -0.45562  -0.45504  -0.45231  -0.45108  -0.44840
 Alpha  occ. eigenvalues --   -0.44724  -0.44188  -0.43996  -0.43747  -0.43638
 Alpha  occ. eigenvalues --   -0.43530  -0.42357  -0.40419  -0.40146  -0.40008
 Alpha  occ. eigenvalues --   -0.39897  -0.38140  -0.37468  -0.37100  -0.36982
 Alpha  occ. eigenvalues --   -0.36636  -0.36564  -0.36295  -0.36257  -0.35175
 Alpha  occ. eigenvalues --   -0.35070  -0.34650  -0.34569  -0.34125  -0.33869
 Alpha  occ. eigenvalues --   -0.33784  -0.33089  -0.32754  -0.32585  -0.31963
 Alpha virt. eigenvalues --   -0.09187  -0.09125  -0.08771  -0.08053  -0.07643
 Alpha virt. eigenvalues --   -0.06631  -0.05929  -0.05612  -0.04504  -0.03631
 Alpha virt. eigenvalues --   -0.03532  -0.01693  -0.01106  -0.00363   0.00341

 Mulliken charges:
               1
     1  N   -0.775773
     2  H    0.403073
     3  H    0.448602
     4  H    0.385569
     5  C   -0.095306
     6  H    0.219290
     7  C    0.623433
     8  C   -0.393829
     9  H    0.203329
    10  H    0.192407
    11  O   -0.550980
    12  C    0.618269
    13  N   -0.767461
    14  H    0.352561
    15  H    0.400874
    16  O   -0.533419
    17  N   -0.599073
    18  H    0.391478
    19  C   -0.062474
    20  H    0.171933
    21  C    0.624860
    22  C   -0.106318
    23  H    0.154417
    24  O   -0.557725
    25  C   -0.255384
    26  H    0.153292
    27  H    0.139093
    28  C   -0.469332
    29  H    0.150800
    30  H    0.166426
    31  H    0.161927
    32  C   -0.461741
    33  H    0.161392
    34  H    0.158604
    35  H    0.145276
    36  N   -0.589301
    37  H    0.367337
    38  C   -0.061076
    39  H    0.189461
    40  C    0.623235
    41  C   -0.467546
    42  H    0.173947
    43  H    0.171848
    44  H    0.186392
    45  O   -0.539612
    46  N   -0.613827
    47  H    0.381154
    48  C   -0.077834
    49  H    0.200668
    50  C    0.631327
    51  C    0.114524
    52  H    0.140271
    53  O   -0.599117
    54  C   -0.455993
    55  H    0.162430
    56  H    0.171206
    57  H    0.162445
    58  O   -0.672153
    59  H    0.436067
    60  N   -0.590545
    61  H    0.396347
    62  C   -0.126492
    63  H    0.211626
    64  C    0.610026
    65  C   -0.053910
    66  H    0.169255
    67  H    0.171441
    68  O   -0.497526
    69  O   -0.679982
    70  H    0.437570
    71  N   -0.635239
    72  H    0.370084
    73  C   -0.213959
    74  H    0.231757
    75  H    0.181351
    76  C    0.608537
    77  O   -0.619720
    78  N   -0.604170
    79  H    0.399002
    80  C   -0.035930
    81  H    0.188784
    82  C    0.621688
    83  C   -0.277584
    84  H    0.190863
    85  H    0.103385
    86  O   -0.586847
    87  C   -0.283043
    88  H    0.147551
    89  H    0.185590
    90  C   -0.290416
    91  H    0.164629
    92  H    0.187103
    93  C   -0.192046
    94  H    0.207815
    95  H    0.202941
    96  N   -0.767873
    97  H    0.404282
    98  H    0.471375
    99  H    0.395306
   100  O   -0.636970
 Sum of Mulliken charges =   1.00000

 Dipole moment (field-independent basis, Debye):
    X=             -2.9125    Y=            -14.8862    Z=            -17.1631  Tot=             22.9053
 Quadrupole moment (field-independent basis, Debye-Ang):
   XX=           -283.6072   YY=           -153.3266   ZZ=           -108.7958
   XY=            -31.5682   XZ=            -16.5924   YZ=            119.8477

 Normal termination of Gaussian 16 at Fri May 27 02:50:08 2022.
