 Gaussian 16, Revision C.01,
 Gaussian 16:  ES64L-G16RevC.01  3-Jul-2019

 -------------------------------------------------------------------
 # B3LYP/6-31G* guess=read geom=check nosymm integral(ultrafinegrid)
 -------------------------------------------------------------------

 ------------------------------------------------------
 Candidate Structure: Conf:538 Charge calc in gas phase
 ------------------------------------------------------
 Structure from the checkpoint file:  "conf-538.chk"
 Charge =  1 Multiplicity = 1

                          Input orientation:
 ---------------------------------------------------------------------
 Center     Atomic      Atomic             Coordinates (Angstroms)
 Number     Number       Type             X           Y           Z
 ---------------------------------------------------------------------
      1          7           0       -2.606832    2.401436   -2.498662
      2          1           0       -3.491308    2.665722   -2.935784
      3          1           0       -1.916749    2.087140   -3.281928
      4          1           0       -2.204741    3.243876   -2.026466
      5          6           0       -2.793766    1.422152   -1.370716
      6          1           0       -3.832044    1.083830   -1.347063
      7          6           0       -2.449387    2.238345   -0.093445
      8          6           0       -1.852010    0.224875   -1.581152
      9          1           0       -1.982908   -0.142569   -2.606581
     10          1           0       -0.812614    0.549467   -1.500522
     11          8           0       -1.960101    3.365096   -0.224206
     12          6           0       -2.128036   -0.938183   -0.631457
     13          7           0       -1.220553   -1.930445   -0.689537
     14          1           0       -1.333408   -2.693971   -0.035478
     15          1           0       -0.306580   -1.784328   -1.124357
     16          8           0       -3.136677   -0.975934    0.085818
     17          7           0       -2.670980    1.628659    1.082448
     18          1           0       -2.976897    0.654767    1.011377
     19          6           0       -1.875141    1.986779    2.258537
     20          1           0       -2.106503    3.019671    2.544639
     21          6           0       -0.384917    1.903744    1.834513
     22          6           0       -2.247552    1.028585    3.424424
     23          1           0       -2.168097    0.006919    3.022832
     24          8           0       -0.040894    1.131295    0.931031
     25          6           0       -3.712369    1.272526    3.854737
     26          1           0       -4.339613    1.378764    2.961527
     27          1           0       -3.766359    2.236383    4.381545
     28          6           0       -1.275239    1.143144    4.608266
     29          1           0       -1.236224    2.170736    4.995387
     30          1           0       -1.611355    0.506794    5.431969
     31          1           0       -0.261518    0.827759    4.344466
     32          6           0       -4.302259    0.166276    4.736853
     33          1           0       -5.350108    0.381932    4.971305
     34          1           0       -4.269511   -0.804231    4.227260
     35          1           0       -3.770564    0.063815    5.688637
     36          7           0        0.484065    2.720966    2.462232
     37          1           0        0.141926    3.316853    3.204448
     38          6           0        1.864758    2.959044    2.001640
     39          1           0        1.818697    2.974557    0.905399
     40          6           0        2.851764    1.825098    2.401163
     41          6           0        2.346989    4.306784    2.527253
     42          1           0        3.348750    4.518366    2.147893
     43          1           0        1.671855    5.106801    2.206071
     44          1           0        2.414004    4.297715    3.619649
     45          8           0        3.808211    2.027237    3.132611
     46          7           0        2.594176    0.637569    1.771047
     47          1           0        1.681846    0.558476    1.317175
     48          6           0        3.317291   -0.580719    2.086759
     49          1           0        4.257467   -0.261987    2.552508
     50          6           0        3.640578   -1.351204    0.787443
     51          6           0        2.556801   -1.490448    3.091857
     52          1           0        1.793744   -2.058389    2.536311
     53          8           0        3.807168   -2.568977    0.753656
     54          6           0        3.490484   -2.464625    3.806136
     55          1           0        3.985538   -3.118080    3.085417
     56          1           0        2.924215   -3.093971    4.505617
     57          1           0        4.248004   -1.913074    4.375319
     58          8           0        1.913356   -0.614991    4.022568
     59          1           0        1.761992   -1.119141    4.836348
     60          7           0        3.729462   -0.574543   -0.326046
     61          1           0        3.472973    0.404006   -0.267829
     62          6           0        3.835930   -1.139228   -1.648369
     63          1           0        4.658399   -1.866352   -1.673862
     64          6           0        4.108875    0.008210   -2.620430
     65          6           0        2.543123   -1.907179   -2.067285
     66          1           0        2.481668   -2.792926   -1.432640
     67          1           0        2.642375   -2.239283   -3.114089
     68          8           0        3.839057    1.177090   -2.347175
     69          8           0        1.356498   -1.175526   -1.855800
     70          1           0        1.297222   -0.375298   -2.423562
     71          7           0        4.578759   -0.343182   -3.852489
     72          1           0        4.833295   -1.304470   -4.032042
     73          6           0        4.849854    0.654705   -4.880172
     74          1           0        5.237629    1.555111   -4.391338
     75          1           0        5.607249    0.270163   -5.563773
     76          6           0        3.623559    1.042095   -5.731175
     77          8           0        3.725601    0.965148   -6.978260
     78          7           0        2.560115    1.441342   -5.036922
     79          1           0        2.655410    1.454944   -4.017761
     80          6           0        1.234517    1.917163   -5.453308
     81          1           0        1.276177    3.013404   -5.523575
     82          6           0        0.244311    1.607760   -4.282546
     83          6           0        0.716025    1.398064   -6.798143
     84          1           0       -0.279414    1.836287   -6.917946
     85          1           0        1.338454    1.820337   -7.592881
     86          8           0       -0.963939    1.897341   -4.523685
     87          6           0        0.603765   -0.133253   -6.905163
     88          1           0        1.477189   -0.620149   -6.453029
     89          1           0       -0.259889   -0.450365   -6.311470
     90          6           0        0.429791   -0.643982   -8.349800
     91          1           0       -0.206811    0.042170   -8.926058
     92          1           0       -0.098202   -1.604965   -8.345997
     93          6           0        1.730136   -0.906026   -9.110404
     94          1           0        2.353735   -1.635338   -8.586359
     95          1           0        1.534303   -1.276820  -10.119896
     96          7           0        2.590212    0.331747   -9.248311
     97          1           0        3.420788    0.142186   -9.817909
     98          1           0        2.943431    0.672165   -8.287661
     99          1           0        2.075589    1.093030   -9.700606
    100          8           0        0.729560    1.155567   -3.222750
 ---------------------------------------------------------------------

 SCF Done:  E(RB3LYP) =  -2418.47462962     A.U. after    1 cycles

 Alpha  occ. eigenvalues --  -19.24147 -19.22418 -19.22006 -19.21533 -19.19817
 Alpha  occ. eigenvalues --  -19.19597 -19.19517 -19.19116 -19.19115 -19.17609
 Alpha  occ. eigenvalues --  -19.16656 -14.57584 -14.50829 -14.47079 -14.46359
 Alpha  occ. eigenvalues --  -14.43928 -14.43398 -14.42030 -14.41847 -14.40274
 Alpha  occ. eigenvalues --  -10.40627 -10.38896 -10.38276 -10.37960 -10.37344
 Alpha  occ. eigenvalues --  -10.36802 -10.36411 -10.34844 -10.34480 -10.33738
 Alpha  occ. eigenvalues --  -10.33496 -10.32612 -10.32204 -10.31832 -10.31806
 Alpha  occ. eigenvalues --  -10.30970 -10.29949 -10.29850 -10.29474 -10.29305
 Alpha  occ. eigenvalues --  -10.28429 -10.27949 -10.26606 -10.24311 -10.23982
 Alpha  occ. eigenvalues --  -10.23657 -10.22926 -10.22334  -1.15086  -1.14036
 Alpha  occ. eigenvalues --   -1.13642  -1.12704  -1.12269  -1.11265  -1.10619
 Alpha  occ. eigenvalues --   -1.09964  -1.09296  -1.08436  -1.07058  -1.06003
 Alpha  occ. eigenvalues --   -1.04187  -1.03253  -1.02113  -1.00846  -0.99901
 Alpha  occ. eigenvalues --   -0.99276  -0.97252  -0.96824  -0.92778  -0.88622
 Alpha  occ. eigenvalues --   -0.88522  -0.86366  -0.85796  -0.84137  -0.82766
 Alpha  occ. eigenvalues --   -0.81854  -0.80612  -0.80049  -0.77611  -0.76235
 Alpha  occ. eigenvalues --   -0.76176  -0.75263  -0.73593  -0.72706  -0.71521
 Alpha  occ. eigenvalues --   -0.71255  -0.69880  -0.69589  -0.69278  -0.67540
 Alpha  occ. eigenvalues --   -0.67013  -0.66750  -0.66462  -0.66191  -0.65629
 Alpha  occ. eigenvalues --   -0.64575  -0.64351  -0.63566  -0.63408  -0.63032
 Alpha  occ. eigenvalues --   -0.62649  -0.62415  -0.60435  -0.60071  -0.59881
 Alpha  occ. eigenvalues --   -0.59279  -0.58715  -0.58425  -0.58089  -0.57178
 Alpha  occ. eigenvalues --   -0.57024  -0.56592  -0.56182  -0.55954  -0.55517
 Alpha  occ. eigenvalues --   -0.54986  -0.54897  -0.54430  -0.53717  -0.53532
 Alpha  occ. eigenvalues --   -0.53444  -0.53019  -0.52573  -0.52295  -0.52122
 Alpha  occ. eigenvalues --   -0.51635  -0.51523  -0.50946  -0.50687  -0.50253
 Alpha  occ. eigenvalues --   -0.49932  -0.49423  -0.49331  -0.49011  -0.48845
 Alpha  occ. eigenvalues --   -0.48623  -0.48457  -0.48082  -0.47843  -0.47678
 Alpha  occ. eigenvalues --   -0.47267  -0.47044  -0.46841  -0.46684  -0.46190
 Alpha  occ. eigenvalues --   -0.45623  -0.45367  -0.44894  -0.44694  -0.44387
 Alpha  occ. eigenvalues --   -0.44208  -0.44186  -0.44010  -0.43600  -0.43524
 Alpha  occ. eigenvalues --   -0.43269  -0.42569  -0.42340  -0.42096  -0.41864
 Alpha  occ. eigenvalues --   -0.41322  -0.40713  -0.39376  -0.39336  -0.39031
 Alpha  occ. eigenvalues --   -0.38878  -0.38086  -0.37416  -0.36100  -0.35925
 Alpha  occ. eigenvalues --   -0.35732  -0.35668  -0.34980  -0.34789  -0.34283
 Alpha  occ. eigenvalues --   -0.33856  -0.33741  -0.33508  -0.33123  -0.32779
 Alpha  occ. eigenvalues --   -0.32646  -0.32368  -0.31392  -0.29997  -0.29007
 Alpha virt. eigenvalues --   -0.10131  -0.09429  -0.07839  -0.07552  -0.05311
 Alpha virt. eigenvalues --   -0.05134  -0.04845  -0.04281  -0.03867  -0.03535
 Alpha virt. eigenvalues --   -0.03308  -0.02636  -0.02133  -0.00403   0.00108

 Mulliken charges:
               1
     1  N   -0.811229
     2  H    0.382752
     3  H    0.459585
     4  H    0.407909
     5  C   -0.093679
     6  H    0.207722
     7  C    0.638124
     8  C   -0.394840
     9  H    0.186673
    10  H    0.245150
    11  O   -0.542279
    12  C    0.615644
    13  N   -0.772692
    14  H    0.343936
    15  H    0.408299
    16  O   -0.549914
    17  N   -0.619900
    18  H    0.396281
    19  C   -0.042500
    20  H    0.168329
    21  C    0.648464
    22  C   -0.101065
    23  H    0.147973
    24  O   -0.570069
    25  C   -0.259381
    26  H    0.149833
    27  H    0.138034
    28  C   -0.498938
    29  H    0.134552
    30  H    0.163236
    31  H    0.194486
    32  C   -0.453313
    33  H    0.157037
    34  H    0.152611
    35  H    0.153017
    36  N   -0.590385
    37  H    0.343707
    38  C   -0.063288
    39  H    0.183677
    40  C    0.633772
    41  C   -0.473974
    42  H    0.184135
    43  H    0.152210
    44  H    0.175502
    45  O   -0.502642
    46  N   -0.665123
    47  H    0.383999
    48  C   -0.060014
    49  H    0.205200
    50  C    0.615787
    51  C    0.176214
    52  H    0.118143
    53  O   -0.540821
    54  C   -0.501857
    55  H    0.196979
    56  H    0.138441
    57  H    0.162097
    58  O   -0.633128
    59  H    0.398801
    60  N   -0.604989
    61  H    0.365736
    62  C   -0.045296
    63  H    0.176293
    64  C    0.604880
    65  C   -0.039981
    66  H    0.195102
    67  H    0.109369
    68  O   -0.525015
    69  O   -0.667450
    70  H    0.454299
    71  N   -0.599991
    72  H    0.344851
    73  C   -0.234075
    74  H    0.221873
    75  H    0.186328
    76  C    0.617251
    77  O   -0.610775
    78  N   -0.605214
    79  H    0.413039
    80  C   -0.042180
    81  H    0.185652
    82  C    0.621021
    83  C   -0.281297
    84  H    0.190260
    85  H    0.104071
    86  O   -0.621967
    87  C   -0.285192
    88  H    0.147618
    89  H    0.183789
    90  C   -0.289827
    91  H    0.165467
    92  H    0.189901
    93  C   -0.193698
    94  H    0.207745
    95  H    0.205789
    96  N   -0.768862
    97  H    0.405216
    98  H    0.473059
    99  H    0.397694
   100  O   -0.577773
 Sum of Mulliken charges =   1.00000

 Dipole moment (field-independent basis, Debye):
    X=              3.5621    Y=              1.6637    Z=            -30.3700  Tot=             30.6234
 Quadrupole moment (field-independent basis, Debye-Ang):
   XX=           -241.9540   YY=           -264.2960   ZZ=             24.2890
   XY=            -20.5320   XZ=            -82.3725   YZ=              1.1135

 Normal termination of Gaussian 16 at Fri May 27 02:50:04 2022.
