 Gaussian 16, Revision C.01,
 Gaussian 16:  ES64L-G16RevC.01  3-Jul-2019

 -------------------------------------------------------------------
 # B3LYP/6-31G* guess=read geom=check nosymm integral(ultrafinegrid)
 -------------------------------------------------------------------

 ------------------------------------------------------
 Candidate Structure: Conf:112 Charge calc in gas phase
 ------------------------------------------------------
 Structure from the checkpoint file:  "conf-112.chk"
 Charge =  1 Multiplicity = 1

                          Input orientation:
 ---------------------------------------------------------------------
 Center     Atomic      Atomic             Coordinates (Angstroms)
 Number     Number       Type             X           Y           Z
 ---------------------------------------------------------------------
      1          7           0       -9.696270    2.765687    3.894284
      2          1           0       -9.857279    2.927094    4.893245
      3          1           0      -10.599016    2.621965    3.433644
      4          1           0       -9.176393    3.611955    3.493753
      5          6           0       -8.687603    1.666073    3.621043
      6          1           0       -8.631297    1.019388    4.498612
      7          6           0       -7.371566    2.483713    3.423318
      8          6           0       -9.117795    0.876950    2.362895
      9          1           0       -9.955041    0.215440    2.617920
     10          1           0       -9.437497    1.572713    1.581517
     11          8           0       -7.510219    3.684582    3.140372
     12          6           0       -7.921511    0.106055    1.770355
     13          7           0       -7.574893   -1.029795    2.438248
     14          1           0       -6.719794   -1.492167    2.148114
     15          1           0       -8.230903   -1.555197    2.999030
     16          8           0       -7.277838    0.588829    0.856391
     17          7           0       -6.236155    1.822941    3.595690
     18          1           0       -6.248168    0.806095    3.710005
     19          6           0       -4.905657    2.281431    3.159216
     20          1           0       -5.041707    3.160333    2.524134
     21          6           0       -4.371055    1.076039    2.351027
     22          6           0       -3.983595    2.610198    4.369752
     23          1           0       -3.909318    1.679716    4.950275
     24          8           0       -4.676212   -0.067523    2.714860
     25          6           0       -4.593173    3.680983    5.304235
     26          1           0       -3.963281    3.714504    6.202406
     27          1           0       -5.579177    3.339348    5.646818
     28          6           0       -2.565121    2.994235    3.911490
     29          1           0       -2.575578    3.834313    3.206846
     30          1           0       -1.970851    3.304903    4.777099
     31          1           0       -2.031917    2.167104    3.435250
     32          6           0       -4.716650    5.097512    4.727717
     33          1           0       -5.131178    5.774585    5.482735
     34          1           0       -3.743964    5.502571    4.430775
     35          1           0       -5.383069    5.132529    3.859318
     36          7           0       -3.597494    1.358741    1.296919
     37          1           0       -3.306575    2.310828    1.092794
     38          6           0       -2.892657    0.345937    0.514884
     39          1           0       -2.812300   -0.550906    1.135224
     40          6           0       -1.505385    0.946085    0.236251
     41          6           0       -3.641144    0.020557   -0.787864
     42          1           0       -3.132191   -0.779468   -1.335565
     43          1           0       -4.661884   -0.297563   -0.556289
     44          1           0       -3.688685    0.905737   -1.430018
     45          8           0       -1.392334    2.171510    0.082776
     46          7           0       -0.487968    0.078683    0.163956
     47          1           0       -0.608789   -0.917392    0.327359
     48          6           0        0.891455    0.473583   -0.080646
     49          1           0        0.894191    1.263076   -0.840991
     50          6           0        1.588342   -0.801041   -0.595181
     51          6           0        1.571908    1.018082    1.221814
     52          1           0        1.768478    0.160679    1.877148
     53          8           0        1.188382   -1.902523   -0.222881
     54          6           0        2.880691    1.754744    0.927148
     55          1           0        3.640983    1.111075    0.472724
     56          1           0        3.283883    2.148492    1.864535
     57          1           0        2.702427    2.606077    0.257042
     58          8           0        0.677660    1.844866    1.954618
     59          1           0        0.220989    2.429299    1.322352
     60          7           0        2.625835   -0.607446   -1.440367
     61          1           0        3.011304    0.322790   -1.566163
     62          6           0        3.503897   -1.677470   -1.878008
     63          1           0        3.268130   -2.565146   -1.283768
     64          6           0        4.952097   -1.202065   -1.647302
     65          6           0        3.294980   -2.013592   -3.364440
     66          1           0        4.021896   -2.788145   -3.655374
     67          1           0        3.505907   -1.113352   -3.963907
     68          8           0        5.210315   -0.000750   -1.553036
     69          8           0        1.960913   -2.456026   -3.525939
     70          1           0        1.812259   -2.618831   -4.469689
     71          7           0        5.889443   -2.168413   -1.603028
     72          1           0        5.665932   -3.160483   -1.619052
     73          6           0        7.294300   -1.881730   -1.413699
     74          1           0        7.684619   -1.273313   -2.239805
     75          1           0        7.453899   -1.305543   -0.493128
     76          6           0        8.032046   -3.226398   -1.340827
     77          8           0        7.418140   -4.290064   -1.430366
     78          7           0        9.366646   -3.139861   -1.166230
     79          1           0        9.838514   -2.242610   -1.127992
     80          6           0       10.238350   -4.306288   -1.057789
     81          1           0        9.722900   -5.085201   -0.491528
     82          6           0       11.501611   -3.843029   -0.338594
     83          6           0       10.616776   -4.821154   -2.481406
     84          1           0        9.672296   -4.879173   -3.033579
     85          1           0       11.205819   -4.029254   -2.960843
     86          8           0       12.042802   -4.779401    0.434136
     87          6           0       11.310977   -6.192315   -2.645623
     88          1           0       10.601799   -6.979995   -2.359694
     89          1           0       11.469814   -6.317121   -3.725596
     90          6           0       12.636071   -6.481750   -1.903129
     91          1           0       13.018752   -7.440274   -2.275921
     92          1           0       12.413911   -6.631514   -0.844656
     93          6           0       13.743518   -5.408314   -2.018886
     94          1           0       14.465925   -5.684870   -2.799910
     95          1           0       13.326334   -4.439877   -2.308891
     96          7           0       14.407356   -5.189759   -0.706095
     97          1           0       15.126983   -4.473085   -0.792288
     98          1           0       14.880631   -6.042235   -0.406278
     99          1           0       13.055414   -4.747140    0.318772
    100          8           0       11.987030   -2.745853   -0.557085
 ---------------------------------------------------------------------

 SCF Done:  E(RB3LYP) =  -2418.41929696     A.U. after    3 cycles

 Alpha  occ. eigenvalues --  -19.26953 -19.23442 -19.20959 -19.20810 -19.19792
 Alpha  occ. eigenvalues --  -19.18898 -19.18636 -19.17649 -19.17458 -19.17247
 Alpha  occ. eigenvalues --  -19.17167 -14.60803 -14.49128 -14.47520 -14.44638
 Alpha  occ. eigenvalues --  -14.42909 -14.41697 -14.41546 -14.41180 -14.39272
 Alpha  occ. eigenvalues --  -10.43656 -10.42076 -10.41586 -10.37994 -10.36031
 Alpha  occ. eigenvalues --  -10.35575 -10.35267 -10.34803 -10.34491 -10.34379
 Alpha  occ. eigenvalues --  -10.33428 -10.31051 -10.29395 -10.29372 -10.29287
 Alpha  occ. eigenvalues --  -10.28823 -10.28516 -10.28228 -10.28116 -10.26351
 Alpha  occ. eigenvalues --  -10.26244 -10.25132 -10.24828 -10.24502 -10.23631
 Alpha  occ. eigenvalues --  -10.23220 -10.22680 -10.22247  -1.19502  -1.15423
 Alpha  occ. eigenvalues --   -1.14386  -1.13078  -1.12759  -1.10939  -1.09789
 Alpha  occ. eigenvalues --   -1.09230  -1.08594  -1.07245  -1.06244  -1.05802
 Alpha  occ. eigenvalues --   -1.04642  -1.02389  -1.01118  -0.99204  -0.98240
 Alpha  occ. eigenvalues --   -0.97916  -0.97585  -0.94626  -0.94119  -0.89935
 Alpha  occ. eigenvalues --   -0.85727  -0.84716  -0.84278  -0.83553  -0.81828
 Alpha  occ. eigenvalues --   -0.81256  -0.80221  -0.78753  -0.77204  -0.76384
 Alpha  occ. eigenvalues --   -0.74836  -0.74511  -0.73816  -0.73363  -0.72036
 Alpha  occ. eigenvalues --   -0.70856  -0.70570  -0.69740  -0.68379  -0.67798
 Alpha  occ. eigenvalues --   -0.66930  -0.66427  -0.66067  -0.65374  -0.65088
 Alpha  occ. eigenvalues --   -0.64616  -0.64179  -0.63960  -0.63699  -0.63526
 Alpha  occ. eigenvalues --   -0.62349  -0.61210  -0.60090  -0.59325  -0.58930
 Alpha  occ. eigenvalues --   -0.58017  -0.57235  -0.56792  -0.56314  -0.55515
 Alpha  occ. eigenvalues --   -0.55297  -0.54969  -0.54635  -0.54355  -0.53956
 Alpha  occ. eigenvalues --   -0.53363  -0.53303  -0.53076  -0.52826  -0.52664
 Alpha  occ. eigenvalues --   -0.52568  -0.51936  -0.51826  -0.51742  -0.51640
 Alpha  occ. eigenvalues --   -0.50997  -0.50330  -0.50239  -0.49927  -0.49555
 Alpha  occ. eigenvalues --   -0.49242  -0.48900  -0.48717  -0.48654  -0.48269
 Alpha  occ. eigenvalues --   -0.48029  -0.47827  -0.46939  -0.46720  -0.46272
 Alpha  occ. eigenvalues --   -0.46004  -0.45849  -0.45580  -0.45309  -0.45199
 Alpha  occ. eigenvalues --   -0.44572  -0.44350  -0.44010  -0.43895  -0.43781
 Alpha  occ. eigenvalues --   -0.43327  -0.43084  -0.42555  -0.42008  -0.41991
 Alpha  occ. eigenvalues --   -0.41844  -0.41564  -0.40935  -0.40778  -0.40440
 Alpha  occ. eigenvalues --   -0.40424  -0.40372  -0.39000  -0.38960  -0.38365
 Alpha  occ. eigenvalues --   -0.38228  -0.37876  -0.37691  -0.37061  -0.36891
 Alpha  occ. eigenvalues --   -0.35034  -0.34421  -0.34378  -0.33332  -0.32719
 Alpha  occ. eigenvalues --   -0.32491  -0.32237  -0.32151  -0.31897  -0.31583
 Alpha  occ. eigenvalues --   -0.31337  -0.30762  -0.30446  -0.30327  -0.29713
 Alpha virt. eigenvalues --   -0.12823  -0.11707  -0.10854  -0.06953  -0.06606
 Alpha virt. eigenvalues --   -0.04965  -0.04522  -0.03969  -0.03547  -0.03208
 Alpha virt. eigenvalues --   -0.02853  -0.02208  -0.01635  -0.00001   0.00772

 Mulliken charges:
               1
     1  N   -0.754596
     2  H    0.418237
     3  H    0.415438
     4  H    0.437174
     5  C   -0.115759
     6  H    0.216837
     7  C    0.655881
     8  C   -0.378931
     9  H    0.185399
    10  H    0.210458
    11  O   -0.539274
    12  C    0.576402
    13  N   -0.735997
    14  H    0.388045
    15  H    0.348164
    16  O   -0.458151
    17  N   -0.586586
    18  H    0.377602
    19  C   -0.079855
    20  H    0.189254
    21  C    0.653696
    22  C   -0.074718
    23  H    0.145180
    24  O   -0.576000
    25  C   -0.257231
    26  H    0.155289
    27  H    0.112447
    28  C   -0.483274
    29  H    0.153941
    30  H    0.169899
    31  H    0.182827
    32  C   -0.467585
    33  H    0.153131
    34  H    0.162444
    35  H    0.161002
    36  N   -0.591684
    37  H    0.361926
    38  C   -0.062111
    39  H    0.182285
    40  C    0.647950
    41  C   -0.446031
    42  H    0.166842
    43  H    0.178280
    44  H    0.171079
    45  O   -0.577014
    46  N   -0.599705
    47  H    0.360437
    48  C   -0.096281
    49  H    0.170436
    50  C    0.622919
    51  C    0.164030
    52  H    0.147653
    53  O   -0.531116
    54  C   -0.482708
    55  H    0.168349
    56  H    0.171443
    57  H    0.143050
    58  O   -0.643591
    59  H    0.410702
    60  N   -0.590107
    61  H    0.354409
    62  C   -0.088795
    63  H    0.199188
    64  C    0.620867
    65  C   -0.016223
    66  H    0.135646
    67  H    0.134449
    68  O   -0.539503
    69  O   -0.606037
    70  H    0.401202
    71  N   -0.618563
    72  H    0.362725
    73  C   -0.193492
    74  H    0.190610
    75  H    0.195783
    76  C    0.609087
    77  O   -0.535005
    78  N   -0.619592
    79  H    0.351564
    80  C   -0.012063
    81  H    0.185227
    82  C    0.581676
    83  C   -0.281008
    84  H    0.169706
    85  H    0.148843
    86  O   -0.596514
    87  C   -0.270978
    88  H    0.151628
    89  H    0.143736
    90  C   -0.289104
    91  H    0.141744
    92  H    0.174540
    93  C   -0.157986
    94  H    0.147314
    95  H    0.171338
    96  N   -0.768548
    97  H    0.331780
    98  H    0.325207
    99  H    0.448374
   100  O   -0.491057
 Sum of Mulliken charges =   1.00000

 Dipole moment (field-independent basis, Debye):
    X=            -24.7894    Y=              1.2599    Z=             11.1579  Tot=             27.2140
 Quadrupole moment (field-independent basis, Debye-Ang):
   XX=            258.2435   YY=           -240.0209   ZZ=           -196.4972
   XY=           -135.5546   XZ=           -191.2271   YZ=             49.2407

 Normal termination of Gaussian 16 at Fri May 27 02:50:14 2022.
