 Gaussian 16, Revision C.01,
 Gaussian 16:  ES64L-G16RevC.01  3-Jul-2019

 -------------------------------------------------------------------
 # B3LYP/6-31G* guess=read geom=check nosymm integral(ultrafinegrid)
 -------------------------------------------------------------------

 ------------------------------------------------------
 Candidate Structure: Conf:772 Charge calc in gas phase
 ------------------------------------------------------
 Structure from the checkpoint file:  "conf-772.chk"
 Charge =  1 Multiplicity = 1

                          Input orientation:
 ---------------------------------------------------------------------
 Center     Atomic      Atomic             Coordinates (Angstroms)
 Number     Number       Type             X           Y           Z
 ---------------------------------------------------------------------
      1          7           0       -2.945830    3.955101    5.089266
      2          1           0       -3.860675    3.799326    5.517590
      3          1           0       -2.738443    5.018622    4.945088
      4          1           0       -2.240396    3.456763    5.657126
      5          6           0       -2.852264    3.378136    3.705156
      6          1           0       -3.826366    3.513874    3.226865
      7          6           0       -2.462715    1.897070    3.884808
      8          6           0       -1.727007    4.090668    2.928500
      9          1           0       -0.737468    3.653243    3.156966
     10          1           0       -1.868572    3.906817    1.859269
     11          8           0       -1.883811    1.566698    4.920718
     12          6           0       -1.612929    5.595395    3.162973
     13          7           0       -0.752465    6.215312    2.363020
     14          1           0       -0.560878    7.190763    2.557246
     15          1           0       -0.089990    5.661159    1.772389
     16          8           0       -2.260770    6.175003    4.071108
     17          7           0       -2.699735    1.082625    2.843163
     18          1           0       -3.245220    1.384758    2.042612
     19          6           0       -2.079296   -0.240747    2.720032
     20          1           0       -1.061914   -0.143999    3.110645
     21          6           0       -2.057819   -0.534561    1.209764
     22          6           0       -2.823338   -1.332092    3.549180
     23          1           0       -2.803012   -0.948113    4.577631
     24          8           0       -3.042787   -0.284038    0.516163
     25          6           0       -2.080369   -2.684642    3.544013
     26          1           0       -2.038286   -3.081109    2.520012
     27          1           0       -2.696970   -3.393310    4.110888
     28          6           0       -4.289221   -1.509225    3.128768
     29          1           0       -4.378131   -1.927966    2.121599
     30          1           0       -4.794781   -2.186758    3.825260
     31          1           0       -4.830859   -0.557909    3.139491
     32          6           0       -0.673739   -2.669433    4.157035
     33          1           0       -0.277000   -3.687839    4.233665
     34          1           0        0.041716   -2.087943    3.561852
     35          1           0       -0.684168   -2.239170    5.165081
     36          7           0       -0.907794   -1.071314    0.731560
     37          1           0       -0.085485   -1.108766    1.322828
     38          6           0       -0.661533   -1.382666   -0.671877
     39          1           0       -1.322696   -2.203413   -0.981395
     40          6           0        0.803911   -1.833689   -0.774160
     41          6           0       -0.883212   -0.175249   -1.610175
     42          1           0       -0.703619   -0.447111   -2.654823
     43          1           0       -1.911233    0.171161   -1.501479
     44          1           0       -0.191904    0.630714   -1.350228
     45          8           0        1.588808   -1.601150    0.159524
     46          7           0        1.165428   -2.411013   -1.937879
     47          1           0        0.436829   -2.553865   -2.628420
     48          6           0        2.542411   -2.464838   -2.452422
     49          1           0        3.128713   -1.761837   -1.853782
     50          6           0        2.481885   -1.968345   -3.925944
     51          6           0        3.181959   -3.858592   -2.361935
     52          1           0        2.513252   -4.573818   -2.853077
     53          8           0        2.318822   -2.760031   -4.852285
     54          6           0        4.568725   -3.921676   -2.996309
     55          1           0        4.505507   -3.774508   -4.076338
     56          1           0        5.020372   -4.903322   -2.814633
     57          1           0        5.234082   -3.158944   -2.572835
     58          8           0        3.259092   -4.186262   -0.948295
     59          1           0        3.399779   -5.144273   -0.882548
     60          7           0        2.577137   -0.631768   -4.033228
     61          1           0        2.581006   -0.056634   -3.182865
     62          6           0        2.508875    0.119318   -5.294663
     63          1           0        3.269576   -0.260394   -5.983207
     64          6           0        2.952961    1.542177   -4.874166
     65          6           0        1.148571   -0.007667   -5.992154
     66          1           0        1.034880   -1.037278   -6.348394
     67          1           0        1.133475    0.670923   -6.855889
     68          8           0        4.114767    1.896442   -4.982330
     69          8           0        0.101440    0.315368   -5.064254
     70          1           0       -0.723497    0.410300   -5.564190
     71          7           0        1.977509    2.282836   -4.249634
     72          1           0        1.071761    1.826138   -4.182695
     73          6           0        2.345204    3.169059   -3.165153
     74          1           0        3.343560    3.563168   -3.376819
     75          1           0        1.654854    4.017048   -3.101843
     76          6           0        2.372641    2.388505   -1.831884
     77          8           0        2.413205    1.143357   -1.830279
     78          7           0        2.360489    3.107407   -0.701291
     79          1           0        2.067048    4.085371   -0.712810
     80          6           0        2.152047    2.505768    0.618611
     81          1           0        1.515032    1.621938    0.482106
     82          6           0        1.321549    3.494493    1.493122
     83          6           0        3.433097    2.035356    1.333232
     84          1           0        4.156464    2.858578    1.388784
     85          1           0        3.123831    1.809052    2.359953
     86          8           0        1.075112    3.099761    2.651552
     87          6           0        4.057646    0.792127    0.678216
     88          1           0        3.232124    0.168525    0.323554
     89          1           0        4.614580    1.074018   -0.223542
     90          6           0        4.976083   -0.039123    1.587612
     91          1           0        4.517220   -0.191106    2.575752
     92          1           0        5.923319    0.481534    1.772943
     93          6           0        5.313299   -1.398945    0.968878
     94          1           0        5.618558   -1.290450   -0.075649
     95          1           0        6.106986   -1.924153    1.506259
     96          7           0        4.109925   -2.318895    0.967807
     97          1           0        4.187460   -3.133552    0.325518
     98          1           0        3.223969   -1.864161    0.634934
     99          1           0        3.918941   -2.670918    1.910070
    100          8           0        0.942719    4.559969    0.915029
 ---------------------------------------------------------------------

 SCF Done:  E(RB3LYP) =  -2418.45684873     A.U. after    1 cycles

 Alpha  occ. eigenvalues --  -19.28064 -19.25363 -19.24806 -19.22498 -19.21197
 Alpha  occ. eigenvalues --  -19.21071 -19.20543 -19.20363 -19.18886 -19.15588
 Alpha  occ. eigenvalues --  -19.14347 -14.55289 -14.52719 -14.48562 -14.46503
 Alpha  occ. eigenvalues --  -14.45836 -14.44045 -14.42812 -14.42518 -14.41866
 Alpha  occ. eigenvalues --  -10.41650 -10.39674 -10.38369 -10.37969 -10.37946
 Alpha  occ. eigenvalues --  -10.36843 -10.36304 -10.36215 -10.36037 -10.35360
 Alpha  occ. eigenvalues --  -10.34520 -10.34354 -10.32977 -10.32513 -10.32110
 Alpha  occ. eigenvalues --  -10.31451 -10.30414 -10.29727 -10.28471 -10.28470
 Alpha  occ. eigenvalues --  -10.27587 -10.27532 -10.26727 -10.26571 -10.26292
 Alpha  occ. eigenvalues --  -10.25794 -10.25298 -10.24530  -1.16649  -1.14803
 Alpha  occ. eigenvalues --   -1.14502  -1.13010  -1.12574  -1.12396  -1.11766
 Alpha  occ. eigenvalues --   -1.11425  -1.10472  -1.10314  -1.08163  -1.07509
 Alpha  occ. eigenvalues --   -1.04770  -1.02813  -1.02263  -1.00968  -1.00082
 Alpha  occ. eigenvalues --   -0.99091  -0.98736  -0.97833  -0.90363  -0.90252
 Alpha  occ. eigenvalues --   -0.89591  -0.87774  -0.86473  -0.85371  -0.84732
 Alpha  occ. eigenvalues --   -0.82231  -0.80909  -0.80459  -0.79488  -0.77709
 Alpha  occ. eigenvalues --   -0.77087  -0.75128  -0.74208  -0.72658  -0.71826
 Alpha  occ. eigenvalues --   -0.71374  -0.70417  -0.70312  -0.69245  -0.68946
 Alpha  occ. eigenvalues --   -0.68107  -0.67869  -0.67527  -0.67084  -0.66765
 Alpha  occ. eigenvalues --   -0.66134  -0.65381  -0.64942  -0.64566  -0.64118
 Alpha  occ. eigenvalues --   -0.63256  -0.62234  -0.61714  -0.61262  -0.60822
 Alpha  occ. eigenvalues --   -0.60379  -0.59383  -0.59010  -0.58392  -0.57862
 Alpha  occ. eigenvalues --   -0.57537  -0.56897  -0.56463  -0.56048  -0.55876
 Alpha  occ. eigenvalues --   -0.55405  -0.55042  -0.54564  -0.54305  -0.53918
 Alpha  occ. eigenvalues --   -0.53733  -0.53661  -0.53088  -0.52785  -0.52619
 Alpha  occ. eigenvalues --   -0.52364  -0.52101  -0.51810  -0.51271  -0.51046
 Alpha  occ. eigenvalues --   -0.50789  -0.50655  -0.50419  -0.50078  -0.49660
 Alpha  occ. eigenvalues --   -0.49471  -0.49078  -0.48828  -0.48582  -0.48263
 Alpha  occ. eigenvalues --   -0.48154  -0.47886  -0.47720  -0.47470  -0.47395
 Alpha  occ. eigenvalues --   -0.47165  -0.46986  -0.46602  -0.46383  -0.46041
 Alpha  occ. eigenvalues --   -0.45811  -0.45524  -0.45010  -0.44604  -0.44495
 Alpha  occ. eigenvalues --   -0.44081  -0.43682  -0.43323  -0.42909  -0.42675
 Alpha  occ. eigenvalues --   -0.42004  -0.41622  -0.41598  -0.41187  -0.40500
 Alpha  occ. eigenvalues --   -0.40342  -0.40093  -0.39094  -0.38532  -0.37139
 Alpha  occ. eigenvalues --   -0.36823  -0.35942  -0.35438  -0.35373  -0.34894
 Alpha  occ. eigenvalues --   -0.34576  -0.34309  -0.34136  -0.33896  -0.33527
 Alpha  occ. eigenvalues --   -0.32819  -0.31738  -0.30487  -0.30316  -0.28528
 Alpha virt. eigenvalues --   -0.10824  -0.08990  -0.07871  -0.07097  -0.06726
 Alpha virt. eigenvalues --   -0.06147  -0.06000  -0.05092  -0.05044  -0.04440
 Alpha virt. eigenvalues --   -0.03131  -0.02822  -0.02221  -0.01191  -0.00777

 Mulliken charges:
               1
     1  N   -0.761650
     2  H    0.391571
     3  H    0.449090
     4  H    0.406559
     5  C   -0.108861
     6  H    0.192507
     7  C    0.652241
     8  C   -0.438121
     9  H    0.287684
    10  H    0.196350
    11  O   -0.530676
    12  C    0.613264
    13  N   -0.753708
    14  H    0.347190
    15  H    0.425201
    16  O   -0.583031
    17  N   -0.617592
    18  H    0.357579
    19  C   -0.033748
    20  H    0.179402
    21  C    0.621416
    22  C   -0.086307
    23  H    0.161205
    24  O   -0.537059
    25  C   -0.263217
    26  H    0.135640
    27  H    0.154855
    28  C   -0.455021
    29  H    0.166296
    30  H    0.155129
    31  H    0.141690
    32  C   -0.456443
    33  H    0.151552
    34  H    0.120077
    35  H    0.167957
    36  N   -0.642350
    37  H    0.363887
    38  C   -0.029097
    39  H    0.182397
    40  C    0.651460
    41  C   -0.489305
    42  H    0.166521
    43  H    0.207874
    44  H    0.181304
    45  O   -0.577283
    46  N   -0.596075
    47  H    0.362309
    48  C   -0.066336
    49  H    0.164071
    50  C    0.606279
    51  C    0.133576
    52  H    0.169548
    53  O   -0.530701
    54  C   -0.476046
    55  H    0.210039
    56  H    0.156736
    57  H    0.142899
    58  O   -0.657990
    59  H    0.418647
    60  N   -0.655662
    61  H    0.422279
    62  C   -0.031710
    63  H    0.195527
    64  C    0.529276
    65  C   -0.067558
    66  H    0.182218
    67  H    0.159763
    68  O   -0.483128
    69  O   -0.629424
    70  H    0.416329
    71  N   -0.569035
    72  H    0.358917
    73  C   -0.251409
    74  H    0.226135
    75  H    0.179951
    76  C    0.611254
    77  O   -0.570942
    78  N   -0.586599
    79  H    0.356865
    80  C   -0.059012
    81  H    0.154072
    82  C    0.604849
    83  C   -0.260711
    84  H    0.150534
    85  H    0.168169
    86  O   -0.580386
    87  C   -0.297812
    88  H    0.165372
    89  H    0.157058
    90  C   -0.281655
    91  H    0.151111
    92  H    0.183442
    93  C   -0.189119
    94  H    0.203772
    95  H    0.196544
    96  N   -0.795893
    97  H    0.412518
    98  H    0.460561
    99  H    0.389929
   100  O   -0.627773
 Sum of Mulliken charges =   1.00000

 Dipole moment (field-independent basis, Debye):
    X=              2.9937    Y=             -5.7275    Z=              5.4483  Tot=              8.4529
 Quadrupole moment (field-independent basis, Debye-Ang):
   XX=           -208.2262   YY=           -224.0964   ZZ=           -224.9137
   XY=            -61.8915   XZ=             -8.6639   YZ=             13.8044

 Normal termination of Gaussian 16 at Fri May 27 02:49:59 2022.
