 Gaussian 16, Revision C.01,
 Gaussian 16:  ES64L-G16RevC.01  3-Jul-2019

 -------------------------------------------------------------------
 # B3LYP/6-31G* guess=read geom=check nosymm integral(ultrafinegrid)
 -------------------------------------------------------------------

 ------------------------------------------------------
 Candidate Structure: Conf:828 Charge calc in gas phase
 ------------------------------------------------------
 Structure from the checkpoint file:  "conf-828.chk"
 Charge =  1 Multiplicity = 1

                          Input orientation:
 ---------------------------------------------------------------------
 Center     Atomic      Atomic             Coordinates (Angstroms)
 Number     Number       Type             X           Y           Z
 ---------------------------------------------------------------------
      1          7           0       -0.225822    6.399827    1.568286
      2          1           0       -0.334605    7.380946    1.824798
      3          1           0       -0.107430    6.315783    0.452385
      4          1           0        0.678146    6.042378    1.924252
      5          6           0       -1.298318    5.509899    2.098575
      6          1           0       -1.697060    5.931585    3.026261
      7          6           0       -0.564564    4.177866    2.438492
      8          6           0       -2.430820    5.397699    1.058148
      9          1           0       -2.551460    6.362519    0.549681
     10          1           0       -2.157600    4.676261    0.278428
     11          8           0        0.668932    4.157274    2.381942
     12          6           0       -3.765964    4.996792    1.686136
     13          7           0       -4.857532    5.183664    0.904926
     14          1           0       -5.748146    4.846342    1.245848
     15          1           0       -4.794601    5.481036   -0.057572
     16          8           0       -3.840833    4.549423    2.828410
     17          7           0       -1.340590    3.136484    2.764756
     18          1           0       -2.346402    3.275738    2.858170
     19          6           0       -0.803311    1.790230    2.975062
     20          1           0        0.220506    1.817661    2.597212
     21          6           0       -1.666483    0.845494    2.117432
     22          6           0       -0.759500    1.401335    4.480723
     23          1           0       -0.086459    2.141848    4.938308
     24          8           0       -2.893163    0.833626    2.223515
     25          6           0       -0.136811    0.006497    4.702334
     26          1           0       -0.769091   -0.756550    4.227245
     27          1           0       -0.181860   -0.200417    5.779332
     28          6           0       -2.124959    1.506331    5.177806
     29          1           0       -2.842416    0.791091    4.766574
     30          1           0       -2.008626    1.304693    6.248665
     31          1           0       -2.558579    2.507143    5.077641
     32          6           0        1.314891   -0.154570    4.233114
     33          1           0        1.718157   -1.120404    4.556220
     34          1           0        1.413653   -0.119739    3.142324
     35          1           0        1.957114    0.630204    4.651260
     36          7           0       -0.977816    0.077406    1.242860
     37          1           0        0.033164    0.134070    1.161520
     38          6           0       -1.586782   -0.883410    0.336269
     39          1           0       -2.181880   -1.599218    0.919980
     40          6           0       -0.410605   -1.617451   -0.335438
     41          6           0       -2.498717   -0.217531   -0.713016
     42          1           0       -2.997674   -0.975358   -1.326042
     43          1           0       -3.262621    0.367246   -0.196715
     44          1           0       -1.918624    0.430099   -1.377453
     45          8           0        0.750696   -1.248419   -0.172788
     46          7           0       -0.742494   -2.639077   -1.171485
     47          1           0       -1.645329   -3.091132   -1.074447
     48          6           0        0.298710   -3.464636   -1.779206
     49          1           0        0.968678   -3.859969   -1.007496
     50          6           0        1.198024   -2.662403   -2.742543
     51          6           0       -0.374237   -4.636000   -2.528764
     52          1           0       -0.846059   -4.231379   -3.438582
     53          8           0        2.362896   -2.992305   -2.943640
     54          6           0        0.618922   -5.732035   -2.901486
     55          1           0        1.445461   -5.330762   -3.493966
     56          1           0        0.120312   -6.515365   -3.485269
     57          1           0        1.031942   -6.186207   -1.994903
     58          8           0       -1.392943   -5.125691   -1.645517
     59          1           0       -1.854359   -5.850315   -2.095366
     60          7           0        0.589507   -1.635379   -3.387196
     61          1           0       -0.338241   -1.333557   -3.110620
     62          6           0        1.346291   -0.664872   -4.146869
     63          1           0        2.344708   -0.575771   -3.697794
     64          6           0        0.601190    0.678881   -4.029603
     65          6           0        1.548743   -1.085958   -5.609447
     66          1           0        2.021541   -2.077071   -5.602931
     67          1           0        2.243833   -0.379979   -6.094518
     68          8           0       -0.535398    0.746673   -3.568219
     69          8           0        0.284459   -1.095971   -6.250574
     70          1           0        0.388107   -1.516910   -7.116751
     71          7           0        1.283862    1.765022   -4.481663
     72          1           0        2.284463    1.708889   -4.636124
     73          6           0        0.776424    3.107718   -4.289354
     74          1           0        0.446327    3.546214   -5.242723
     75          1           0       -0.097800    3.050485   -3.635724
     76          6           0        1.885875    3.988413   -3.702118
     77          8           0        3.073098    3.711436   -3.892484
     78          7           0        1.458499    5.079182   -3.023626
     79          1           0        0.490451    5.112798   -2.709406
     80          6           0        2.325597    5.862175   -2.145891
     81          1           0        3.082925    5.191182   -1.719462
     82          6           0        1.485214    6.391151   -0.950296
     83          6           0        3.053306    7.030884   -2.831846
     84          1           0        2.320630    7.639970   -3.378770
     85          1           0        3.457944    7.651635   -2.024118
     86          8           0        2.059481    7.083143   -0.099970
     87          6           0        4.183288    6.592974   -3.771894
     88          1           0        4.855092    5.910999   -3.235748
     89          1           0        3.782593    6.017129   -4.612141
     90          6           0        4.991057    7.793947   -4.296275
     91          1           0        5.393272    8.364936   -3.447066
     92          1           0        4.334054    8.469381   -4.862909
     93          6           0        6.131223    7.317103   -5.182527
     94          1           0        6.829073    6.666462   -4.650076
     95          1           0        5.779971    6.801893   -6.079687
     96          7           0        6.968544    8.503954   -5.682279
     97          1           0        7.748624    8.208372   -6.281802
     98          1           0        7.361497    9.028970   -4.891424
     99          1           0        6.388441    9.158677   -6.220803
    100          8           0        0.246564    6.035871   -0.932675
 ---------------------------------------------------------------------

 SCF Done:  E(RB3LYP) =  -2418.42586550     A.U. after    3 cycles

 Alpha  occ. eigenvalues --  -19.20675 -19.19766 -19.19748 -19.18887 -19.18532
 Alpha  occ. eigenvalues --  -19.17626 -19.17611 -19.17280 -19.15863 -19.15410
 Alpha  occ. eigenvalues --  -19.15224 -14.64659 -14.47679 -14.43804 -14.42044
 Alpha  occ. eigenvalues --  -14.41916 -14.41831 -14.41319 -14.40492 -14.39642
 Alpha  occ. eigenvalues --  -10.41284 -10.37632 -10.36141 -10.35524 -10.34706
 Alpha  occ. eigenvalues --  -10.34324 -10.33998 -10.33410 -10.33243 -10.33074
 Alpha  occ. eigenvalues --  -10.32825 -10.29927 -10.29108 -10.29049 -10.28913
 Alpha  occ. eigenvalues --  -10.28863 -10.28805 -10.28655 -10.28506 -10.28009
 Alpha  occ. eigenvalues --  -10.27983 -10.26521 -10.23768 -10.22383 -10.22328
 Alpha  occ. eigenvalues --  -10.22287 -10.21427 -10.20707  -1.18485  -1.11702
 Alpha  occ. eigenvalues --   -1.10974  -1.10453  -1.09832  -1.09692  -1.09354
 Alpha  occ. eigenvalues --   -1.08039  -1.07685  -1.07326  -1.06927  -1.03302
 Alpha  occ. eigenvalues --   -1.00775  -0.98877  -0.98497  -0.98345  -0.98236
 Alpha  occ. eigenvalues --   -0.98021  -0.96949  -0.96135  -0.94570  -0.87036
 Alpha  occ. eigenvalues --   -0.86851  -0.85038  -0.84071  -0.82592  -0.81384
 Alpha  occ. eigenvalues --   -0.81046  -0.78488  -0.78349  -0.77112  -0.76850
 Alpha  occ. eigenvalues --   -0.76134  -0.75113  -0.74117  -0.73251  -0.70340
 Alpha  occ. eigenvalues --   -0.69853  -0.68906  -0.67593  -0.66896  -0.66810
 Alpha  occ. eigenvalues --   -0.65572  -0.64954  -0.64752  -0.64599  -0.64387
 Alpha  occ. eigenvalues --   -0.63939  -0.63056  -0.62228  -0.62118  -0.62072
 Alpha  occ. eigenvalues --   -0.61328  -0.61190  -0.60015  -0.59298  -0.58339
 Alpha  occ. eigenvalues --   -0.57308  -0.57049  -0.56594  -0.56338  -0.55737
 Alpha  occ. eigenvalues --   -0.55587  -0.54375  -0.54160  -0.53541  -0.53424
 Alpha  occ. eigenvalues --   -0.52904  -0.52620  -0.52415  -0.51696  -0.51686
 Alpha  occ. eigenvalues --   -0.51152  -0.50837  -0.50647  -0.50264  -0.50140
 Alpha  occ. eigenvalues --   -0.50023  -0.49536  -0.49065  -0.48905  -0.48484
 Alpha  occ. eigenvalues --   -0.48122  -0.48068  -0.47827  -0.47210  -0.46991
 Alpha  occ. eigenvalues --   -0.46518  -0.46437  -0.46293  -0.45796  -0.45551
 Alpha  occ. eigenvalues --   -0.45290  -0.45013  -0.44667  -0.44567  -0.44039
 Alpha  occ. eigenvalues --   -0.43913  -0.43773  -0.43600  -0.43372  -0.43147
 Alpha  occ. eigenvalues --   -0.42969  -0.42811  -0.42548  -0.42132  -0.41897
 Alpha  occ. eigenvalues --   -0.41526  -0.41115  -0.40717  -0.40525  -0.39994
 Alpha  occ. eigenvalues --   -0.39201  -0.39134  -0.37906  -0.37346  -0.37071
 Alpha  occ. eigenvalues --   -0.36393  -0.35023  -0.33771  -0.33443  -0.33274
 Alpha  occ. eigenvalues --   -0.33174  -0.33035  -0.32730  -0.32256  -0.32217
 Alpha  occ. eigenvalues --   -0.31953  -0.31774  -0.31381  -0.31249  -0.30920
 Alpha  occ. eigenvalues --   -0.30079  -0.29404  -0.29303  -0.28958  -0.28673
 Alpha virt. eigenvalues --   -0.15142  -0.08435  -0.08367  -0.05881  -0.05772
 Alpha virt. eigenvalues --   -0.05022  -0.04687  -0.03622  -0.03361  -0.02331
 Alpha virt. eigenvalues --   -0.01983  -0.01808  -0.01263  -0.00817  -0.00538

 Mulliken charges:
               1
     1  N   -0.792883
     2  H    0.372968
     3  H    0.459128
     4  H    0.410980
     5  C   -0.076772
     6  H    0.211527
     7  C    0.616465
     8  C   -0.397700
     9  H    0.179960
    10  H    0.217106
    11  O   -0.536996
    12  C    0.624796
    13  N   -0.743886
    14  H    0.364656
    15  H    0.351154
    16  O   -0.508717
    17  N   -0.624406
    18  H    0.400017
    19  C   -0.063398
    20  H    0.177774
    21  C    0.628806
    22  C   -0.074656
    23  H    0.136077
    24  O   -0.545078
    25  C   -0.263055
    26  H    0.143633
    27  H    0.143898
    28  C   -0.465838
    29  H    0.176778
    30  H    0.144017
    31  H    0.147525
    32  C   -0.457735
    33  H    0.154517
    34  H    0.144952
    35  H    0.149506
    36  N   -0.633051
    37  H    0.366939
    38  C   -0.025835
    39  H    0.174610
    40  C    0.613407
    41  C   -0.471608
    42  H    0.144297
    43  H    0.187715
    44  H    0.185122
    45  O   -0.524460
    46  N   -0.656927
    47  H    0.358259
    48  C   -0.012204
    49  H    0.185506
    50  C    0.618742
    51  C    0.110689
    52  H    0.135970
    53  O   -0.538179
    54  C   -0.472637
    55  H    0.187113
    56  H    0.140130
    57  H    0.167644
    58  O   -0.642696
    59  H    0.404817
    60  N   -0.598911
    61  H    0.364030
    62  C   -0.063995
    63  H    0.183251
    64  C    0.628328
    65  C   -0.026824
    66  H    0.162593
    67  H    0.114187
    68  O   -0.528235
    69  O   -0.610463
    70  H    0.401113
    71  N   -0.599895
    72  H    0.346303
    73  C   -0.215141
    74  H    0.180510
    75  H    0.197238
    76  C    0.593222
    77  O   -0.549256
    78  N   -0.606567
    79  H    0.354999
    80  C   -0.046218
    81  H    0.179016
    82  C    0.608159
    83  C   -0.265941
    84  H    0.138937
    85  H    0.172756
    86  O   -0.571678
    87  C   -0.266898
    88  H    0.165076
    89  H    0.173871
    90  C   -0.293384
    91  H    0.165734
    92  H    0.163081
    93  C   -0.206428
    94  H    0.231726
    95  H    0.230026
    96  N   -0.731987
    97  H    0.429616
    98  H    0.426874
    99  H    0.425757
   100  O   -0.663073
 Sum of Mulliken charges =   1.00000

 Dipole moment (field-independent basis, Debye):
    X=             19.5328    Y=             35.8679    Z=            -24.7622  Tot=             47.7619
 Quadrupole moment (field-independent basis, Debye-Ang):
   XX=            -80.0699   YY=             68.0783   ZZ=           -120.6608
   XY=            210.0640   XZ=           -153.1543   YZ=           -174.0456

 Normal termination of Gaussian 16 at Fri May 27 02:50:34 2022.
