 Gaussian 16, Revision C.01,
 Gaussian 16:  ES64L-G16RevC.01  3-Jul-2019

 -------------------------------------------------------------------
 # B3LYP/6-31G* guess=read geom=check nosymm integral(ultrafinegrid)
 -------------------------------------------------------------------

 ------------------------------------------------------
 Candidate Structure: Conf:121 Charge calc in gas phase
 ------------------------------------------------------
 Structure from the checkpoint file:  "conf-121.chk"
 Charge =  1 Multiplicity = 1

                          Input orientation:
 ---------------------------------------------------------------------
 Center     Atomic      Atomic             Coordinates (Angstroms)
 Number     Number       Type             X           Y           Z
 ---------------------------------------------------------------------
      1          7           0       -7.707445   -0.395053    5.619943
      2          1           0       -7.560239   -0.214040    6.616827
      3          1           0       -8.277574   -1.278500    5.491753
      4          1           0       -8.125915    0.462238    5.204077
      5          6           0       -6.410643   -0.598281    4.883272
      6          1           0       -5.694056   -1.048546    5.574543
      7          6           0       -5.982006    0.820065    4.426432
      8          6           0       -6.641782   -1.512326    3.660813
      9          1           0       -7.278304   -0.986140    2.936369
     10          1           0       -5.678647   -1.681263    3.169796
     11          8           0       -6.852624    1.691865    4.374927
     12          6           0       -7.344356   -2.823521    4.023736
     13          7           0       -6.952424   -3.927542    3.371341
     14          1           0       -7.442871   -4.796484    3.548075
     15          1           0       -6.214817   -3.925915    2.681164
     16          8           0       -8.255736   -2.835773    4.865074
     17          7           0       -4.694385    0.948576    4.100674
     18          1           0       -4.100474    0.122662    4.038167
     19          6           0       -4.113981    2.083565    3.373451
     20          1           0       -4.936830    2.722952    3.038026
     21          6           0       -3.402161    1.420920    2.173138
     22          6           0       -3.146493    2.906479    4.282376
     23          1           0       -2.379671    2.203209    4.638617
     24          8           0       -3.030721    0.242362    2.264467
     25          6           0       -3.911309    3.458707    5.505149
     26          1           0       -4.503778    2.652900    5.954915
     27          1           0       -4.632517    4.214894    5.164121
     28          6           0       -2.440932    4.022782    3.494963
     29          1           0       -3.171498    4.700689    3.029399
     30          1           0       -1.832161    4.629878    4.169830
     31          1           0       -1.767936    3.627533    2.729383
     32          6           0       -3.008526    4.054702    6.592230
     33          1           0       -3.605415    4.359301    7.458523
     34          1           0       -2.267621    3.323824    6.937990
     35          1           0       -2.466823    4.939688    6.244960
     36          7           0       -3.238160    2.156482    1.058171
     37          1           0       -3.436869    3.147666    1.107337
     38          6           0       -2.364806    1.701654   -0.030727
     39          1           0       -2.805493    0.791445   -0.451699
     40          6           0       -0.967051    1.390142    0.558166
     41          6           0       -2.270690    2.790647   -1.100902
     42          1           0       -1.668529    2.438544   -1.943227
     43          1           0       -3.263415    3.055964   -1.479864
     44          1           0       -1.787340    3.683665   -0.690717
     45          8           0       -0.427684    2.177001    1.329277
     46          7           0       -0.438934    0.209979    0.162939
     47          1           0       -0.872752   -0.344118   -0.568706
     48          6           0        0.841576   -0.311752    0.619137
     49          1           0        1.417720    0.519010    1.035197
     50          6           0        1.503977   -0.943499   -0.614474
     51          6           0        0.600783   -1.384116    1.732963
     52          1           0        0.123667   -2.247610    1.238063
     53          8           0        0.801266   -1.496321   -1.464295
     54          6           0        1.892672   -1.831848    2.406120
     55          1           0        2.587238   -2.288416    1.695386
     56          1           0        1.661667   -2.565351    3.184042
     57          1           0        2.385990   -0.978307    2.884752
     58          8           0       -0.236563   -0.872023    2.753000
     59          1           0       -1.074188   -0.577533    2.353851
     60          7           0        2.849197   -0.871255   -0.683032
     61          1           0        3.402256   -0.469883    0.069217
     62          6           0        3.629260   -1.537434   -1.709868
     63          1           0        3.163497   -2.497579   -1.956389
     64          6           0        5.034830   -1.745467   -1.141420
     65          6           0        3.688382   -0.690626   -3.018760
     66          1           0        4.080214    0.306179   -2.774740
     67          1           0        2.660608   -0.581376   -3.376648
     68          8           0        5.408212   -1.171517   -0.120903
     69          8           0        4.444216   -1.320934   -4.032862
     70          1           0        5.374090   -1.017940   -3.943981
     71          7           0        5.819714   -2.587132   -1.876154
     72          1           0        5.454867   -2.793853   -2.802090
     73          6           0        7.258187   -2.507528   -1.756266
     74          1           0        7.500592   -2.300231   -0.710534
     75          1           0        7.707278   -3.470090   -2.025135
     76          6           0        7.840264   -1.395360   -2.654462
     77          8           0        7.130895   -0.713927   -3.403557
     78          7           0        9.173540   -1.238260   -2.567789
     79          1           0        9.732847   -1.803602   -1.936376
     80          6           0        9.933680   -0.285441   -3.364725
     81          1           0        9.518466   -0.246299   -4.374617
     82          6           0       11.380040   -0.750039   -3.395927
     83          6           0        9.892397    1.140857   -2.728153
     84          1           0        8.839743    1.439930   -2.739233
     85          1           0       10.173756    1.031861   -1.672723
     86          8           0       12.041628   -0.259335   -4.437928
     87          6           0       10.765272    2.224877   -3.416333
     88          1           0       11.104157    1.869366   -4.392670
     89          1           0       10.135551    3.099781   -3.616593
     90          6           0       11.968313    2.742149   -2.593198
     91          1           0       11.582394    3.200714   -1.672282
     92          1           0       12.437637    3.563919   -3.154375
     93          6           0       13.073032    1.769579   -2.146893
     94          1           0       13.721172    2.311226   -1.442734
     95          1           0       12.651345    0.920943   -1.599668
     96          7           0       13.877608    1.203354   -3.262439
     97          1           0       14.683505    0.710694   -2.878721
     98          1           0       14.249051    1.955635   -3.843442
     99          1           0       12.941253    0.110676   -4.101446
    100          8           0       11.870301   -1.390664   -2.479292
 ---------------------------------------------------------------------

 SCF Done:  E(RB3LYP) =  -2418.45819685     A.U. after    2 cycles

 Alpha  occ. eigenvalues --  -19.27207 -19.26187 -19.23054 -19.20485 -19.19103
 Alpha  occ. eigenvalues --  -19.18577 -19.18280 -19.18089 -19.17857 -19.17852
 Alpha  occ. eigenvalues --  -19.17724 -14.58067 -14.50531 -14.49312 -14.46675
 Alpha  occ. eigenvalues --  -14.43127 -14.42064 -14.41642 -14.41400 -14.40101
 Alpha  occ. eigenvalues --  -10.44801 -10.43346 -10.41255 -10.39774 -10.36327
 Alpha  occ. eigenvalues --  -10.36039 -10.35621 -10.34972 -10.34947 -10.34523
 Alpha  occ. eigenvalues --  -10.34448 -10.32477 -10.29801 -10.29233 -10.28816
 Alpha  occ. eigenvalues --  -10.28765 -10.28504 -10.28285 -10.28132 -10.27017
 Alpha  occ. eigenvalues --  -10.26964 -10.26592 -10.25200 -10.24880 -10.23999
 Alpha  occ. eigenvalues --  -10.23850 -10.23027 -10.22886  -1.19181  -1.18262
 Alpha  occ. eigenvalues --   -1.14831  -1.12920  -1.12679  -1.10778  -1.10191
 Alpha  occ. eigenvalues --   -1.09530  -1.08992  -1.06930  -1.06007  -1.05774
 Alpha  occ. eigenvalues --   -1.05498  -1.04597  -1.02855  -0.99292  -0.98448
 Alpha  occ. eigenvalues --   -0.98149  -0.98015  -0.95471  -0.94450  -0.90559
 Alpha  occ. eigenvalues --   -0.86782  -0.85041  -0.84794  -0.83861  -0.81925
 Alpha  occ. eigenvalues --   -0.81763  -0.80495  -0.79014  -0.77666  -0.76752
 Alpha  occ. eigenvalues --   -0.75141  -0.74176  -0.73727  -0.73369  -0.72551
 Alpha  occ. eigenvalues --   -0.71362  -0.71259  -0.69811  -0.68924  -0.68654
 Alpha  occ. eigenvalues --   -0.68339  -0.66429  -0.66326  -0.66074  -0.65067
 Alpha  occ. eigenvalues --   -0.64906  -0.64282  -0.63728  -0.63623  -0.63133
 Alpha  occ. eigenvalues --   -0.62556  -0.61701  -0.61352  -0.59381  -0.59244
 Alpha  occ. eigenvalues --   -0.58864  -0.58559  -0.57841  -0.57468  -0.57180
 Alpha  occ. eigenvalues --   -0.56712  -0.56421  -0.56093  -0.55692  -0.54944
 Alpha  occ. eigenvalues --   -0.54585  -0.54279  -0.53966  -0.53650  -0.53305
 Alpha  occ. eigenvalues --   -0.52908  -0.52393  -0.51812  -0.51546  -0.51491
 Alpha  occ. eigenvalues --   -0.50908  -0.50786  -0.50610  -0.50533  -0.49964
 Alpha  occ. eigenvalues --   -0.49668  -0.49495  -0.49247  -0.49102  -0.48824
 Alpha  occ. eigenvalues --   -0.48286  -0.47846  -0.47617  -0.47421  -0.46805
 Alpha  occ. eigenvalues --   -0.46611  -0.46451  -0.45763  -0.45478  -0.45301
 Alpha  occ. eigenvalues --   -0.44628  -0.44587  -0.44352  -0.44159  -0.44070
 Alpha  occ. eigenvalues --   -0.43965  -0.43429  -0.43334  -0.42848  -0.42489
 Alpha  occ. eigenvalues --   -0.41911  -0.41778  -0.41487  -0.41363  -0.41242
 Alpha  occ. eigenvalues --   -0.41123  -0.40733  -0.40377  -0.40368  -0.38822
 Alpha  occ. eigenvalues --   -0.38700  -0.38380  -0.38258  -0.37808  -0.37391
 Alpha  occ. eigenvalues --   -0.36832  -0.36532  -0.34180  -0.34055  -0.33659
 Alpha  occ. eigenvalues --   -0.33169  -0.32958  -0.32292  -0.32163  -0.31708
 Alpha  occ. eigenvalues --   -0.31640  -0.30880  -0.30459  -0.30269  -0.29666
 Alpha virt. eigenvalues --   -0.12936  -0.11898  -0.09410  -0.08875  -0.05162
 Alpha virt. eigenvalues --   -0.05114  -0.04534  -0.04179  -0.04027  -0.03424
 Alpha virt. eigenvalues --   -0.03134  -0.02486  -0.01395  -0.01099   0.00311

 Mulliken charges:
               1
     1  N   -0.754340
     2  H    0.410580
     3  H    0.444410
     4  H    0.417469
     5  C   -0.126869
     6  H    0.219575
     7  C    0.642535
     8  C   -0.404238
     9  H    0.228023
    10  H    0.210355
    11  O   -0.523306
    12  C    0.647111
    13  N   -0.725187
    14  H    0.383455
    15  H    0.373471
    16  O   -0.534574
    17  N   -0.586777
    18  H    0.364033
    19  C   -0.102026
    20  H    0.187172
    21  C    0.656748
    22  C   -0.064031
    23  H    0.152927
    24  O   -0.569685
    25  C   -0.251398
    26  H    0.120617
    27  H    0.145857
    28  C   -0.514612
    29  H    0.131927
    30  H    0.176500
    31  H    0.209849
    32  C   -0.453897
    33  H    0.156008
    34  H    0.152694
    35  H    0.163526
    36  N   -0.588859
    37  H    0.350866
    38  C   -0.033606
    39  H    0.163144
    40  C    0.620992
    41  C   -0.490179
    42  H    0.187115
    43  H    0.168442
    44  H    0.183936
    45  O   -0.519133
    46  N   -0.619520
    47  H    0.350399
    48  C   -0.068576
    49  H    0.182538
    50  C    0.624807
    51  C    0.146897
    52  H    0.118295
    53  O   -0.549700
    54  C   -0.463614
    55  H    0.156907
    56  H    0.164026
    57  H    0.161509
    58  O   -0.654654
    59  H    0.426767
    60  N   -0.618061
    61  H    0.359428
    62  C   -0.066980
    63  H    0.188396
    64  C    0.590568
    65  C   -0.038232
    66  H    0.142761
    67  H    0.171950
    68  O   -0.531260
    69  O   -0.651609
    70  H    0.442010
    71  N   -0.575502
    72  H    0.347741
    73  C   -0.258828
    74  H    0.213940
    75  H    0.189023
    76  C    0.628048
    77  O   -0.549344
    78  N   -0.603897
    79  H    0.353237
    80  C   -0.022181
    81  H    0.189858
    82  C    0.586799
    83  C   -0.281968
    84  H    0.175772
    85  H    0.146459
    86  O   -0.603454
    87  C   -0.279186
    88  H    0.174442
    89  H    0.146033
    90  C   -0.277199
    91  H    0.149637
    92  H    0.137287
    93  C   -0.154602
    94  H    0.145839
    95  H    0.178626
    96  N   -0.772417
    97  H    0.338078
    98  H    0.326920
    99  H    0.456141
   100  O   -0.496977
 Sum of Mulliken charges =   1.00000

 Dipole moment (field-independent basis, Debye):
    X=            -15.8083    Y=             -0.4047    Z=             15.4691  Tot=             22.1215
 Quadrupole moment (field-independent basis, Debye-Ang):
   XX=             64.1770   YY=           -239.4729   ZZ=           -200.1431
   XY=             60.0590   XZ=           -145.2140   YZ=            -23.2668

 Normal termination of Gaussian 16 at Fri May 27 02:50:00 2022.
