 Gaussian 16, Revision C.01,
 Gaussian 16:  ES64L-G16RevC.01  3-Jul-2019

 -------------------------------------------------------------------
 # B3LYP/6-31G* guess=read geom=check nosymm integral(ultrafinegrid)
 -------------------------------------------------------------------

 ------------------------------------------------------
 Candidate Structure: Conf:472 Charge calc in gas phase
 ------------------------------------------------------
 Structure from the checkpoint file:  "conf-472.chk"
 Charge =  1 Multiplicity = 1

                          Input orientation:
 ---------------------------------------------------------------------
 Center     Atomic      Atomic             Coordinates (Angstroms)
 Number     Number       Type             X           Y           Z
 ---------------------------------------------------------------------
      1          7           0       -8.249930    0.027100    3.674959
      2          1           0       -8.496780   -0.055904    4.665008
      3          1           0       -9.061411   -0.282800    3.070821
      4          1           0       -7.927161    1.004099    3.512073
      5          6           0       -7.071137   -0.835290    3.309893
      6          1           0       -7.087798   -1.722829    3.947016
      7          6           0       -5.831080    0.060633    3.566805
      8          6           0       -7.154388   -1.226968    1.819312
      9          1           0       -7.016848   -0.326321    1.205439
     10          1           0       -6.317670   -1.894559    1.592688
     11          8           0       -6.010168    1.281688    3.588245
     12          6           0       -8.502326   -1.844818    1.436777
     13          7           0       -8.483955   -2.836354    0.533194
     14          1           0       -9.366463   -3.216286    0.211439
     15          1           0       -7.632214   -3.185046    0.117194
     16          8           0       -9.556157   -1.413348    1.927535
     17          7           0       -4.673695   -0.583720    3.709415
     18          1           0       -4.605009   -1.589491    3.545531
     19          6           0       -3.346978    0.045130    3.686634
     20          1           0       -3.460611    1.059005    3.290372
     21          6           0       -2.549747   -0.856243    2.710647
     22          6           0       -2.704104    0.106642    5.106962
     23          1           0       -2.572873   -0.934594    5.437752
     24          8           0       -2.856970   -2.052209    2.613060
     25          6           0       -3.645711    0.814025    6.105578
     26          1           0       -4.632564    0.337944    6.061708
     27          1           0       -3.792125    1.855095    5.786483
     28          6           0       -1.323605    0.781456    5.057083
     29          1           0       -1.404609    1.821908    4.716081
     30          1           0       -0.871073    0.797751    6.051725
     31          1           0       -0.625399    0.263189    4.395264
     32          6           0       -3.161329    0.779381    7.560474
     33          1           0       -3.920708    1.205083    8.225040
     34          1           0       -2.968415   -0.248376    7.891879
     35          1           0       -2.243286    1.356254    7.707398
     36          7           0       -1.571443   -0.266614    2.012821
     37          1           0       -1.304229    0.705027    2.169038
     38          6           0       -0.631184   -0.977996    1.153447
     39          1           0       -0.292224   -1.881730    1.674534
     40          6           0        0.557041   -0.007248    0.970042
     41          6           0       -1.259269   -1.380178   -0.191748
     42          1           0       -0.554966   -1.973120   -0.783531
     43          1           0       -2.147984   -1.989237   -0.006755
     44          1           0       -1.534114   -0.494111   -0.771861
     45          8           0        0.498434    1.135141    1.427115
     46          7           0        1.618590   -0.505357    0.299567
     47          1           0        1.548331   -1.418006   -0.146607
     48          6           0        2.669058    0.370579   -0.214796
     49          1           0        2.440411    1.367417    0.176464
     50          6           0        2.469823    0.440048   -1.751054
     51          6           0        4.078841   -0.025473    0.285767
     52          1           0        4.756044    0.789832    0.003709
     53          8           0        1.332992    0.596000   -2.204644
     54          6           0        4.132743   -0.204012    1.801614
     55          1           0        3.781651    0.695993    2.319115
     56          1           0        5.163065   -0.406949    2.106856
     57          1           0        3.505364   -1.044161    2.116705
     58          8           0        4.603043   -1.174389   -0.392832
     59          1           0        3.924280   -1.879100   -0.410849
     60          7           0        3.571675    0.291836   -2.530720
     61          1           0        4.359923   -0.171927   -2.076992
     62          6           0        3.454109    0.097534   -3.981556
     63          1           0        2.623657    0.711924   -4.337123
     64          6           0        3.146259   -1.396874   -4.216845
     65          6           0        4.756963    0.502516   -4.686998
     66          1           0        5.607470    0.008820   -4.191805
     67          1           0        4.893600    1.583507   -4.591546
     68          8           0        3.978922   -2.180852   -4.668533
     69          8           0        4.706110    0.200158   -6.063611
     70          1           0        4.739506   -0.771240   -6.115565
     71          7           0        1.913621   -1.802314   -3.784950
     72          1           0        1.349809   -1.106049   -3.302029
     73          6           0        1.705006   -3.201995   -3.467342
     74          1           0        0.637877   -3.364402   -3.285298
     75          1           0        2.007283   -3.814778   -4.319719
     76          6           0        2.480325   -3.596587   -2.197652
     77          8           0        2.396797   -2.911609   -1.157858
     78          7           0        3.231505   -4.699304   -2.283852
     79          1           0        3.347314   -5.176723   -3.173541
     80          6           0        4.078890   -5.211423   -1.212725
     81          1           0        4.537755   -4.374138   -0.681389
     82          6           0        5.171099   -6.060133   -1.852632
     83          6           0        3.262511   -6.085599   -0.205505
     84          1           0        2.704661   -5.390201    0.430356
     85          1           0        2.519363   -6.647184   -0.785035
     86          8           0        6.247031   -6.127876   -1.085716
     87          6           0        4.087009   -7.066462    0.661154
     88          1           0        5.038000   -6.598995    0.932991
     89          1           0        3.546257   -7.228402    1.600860
     90          6           0        4.333816   -8.449424   -0.009596
     91          1           0        4.170824   -8.383544   -1.092317
     92          1           0        3.572902   -9.150020    0.354066
     93          6           0        5.719476   -9.086339    0.226605
     94          1           0        6.127538   -8.766978    1.191902
     95          1           0        5.619636  -10.179628    0.267946
     96          7           0        6.700626   -8.696243   -0.821275
     97          1           0        7.628361   -9.045436   -0.583428
     98          1           0        6.637277   -7.084295   -1.132095
     99          1           0        6.446085   -9.130551   -1.708994
    100          8           0        4.985966   -6.674280   -2.891575
 ---------------------------------------------------------------------

 SCF Done:  E(RB3LYP) =  -2418.45968001     A.U. after    2 cycles

 Alpha  occ. eigenvalues --  -19.27203 -19.25841 -19.22027 -19.21428 -19.20724
 Alpha  occ. eigenvalues --  -19.20477 -19.19627 -19.19175 -19.18424 -19.18418
 Alpha  occ. eigenvalues --  -19.17833 -14.57903 -14.50554 -14.48916 -14.44939
 Alpha  occ. eigenvalues --  -14.44122 -14.42927 -14.42328 -14.42011 -14.41399
 Alpha  occ. eigenvalues --  -10.44800 -10.43011 -10.41112 -10.38486 -10.37206
 Alpha  occ. eigenvalues --  -10.37096 -10.36559 -10.36269 -10.35580 -10.34953
 Alpha  occ. eigenvalues --  -10.33780 -10.31922 -10.30573 -10.30386 -10.30153
 Alpha  occ. eigenvalues --  -10.29825 -10.28783 -10.28643 -10.28577 -10.27852
 Alpha  occ. eigenvalues --  -10.26593 -10.26158 -10.25860 -10.25627 -10.25051
 Alpha  occ. eigenvalues --  -10.25018 -10.24832 -10.23411  -1.19119  -1.18002
 Alpha  occ. eigenvalues --   -1.14407  -1.13386  -1.12460  -1.11777  -1.11476
 Alpha  occ. eigenvalues --   -1.10513  -1.09769  -1.07981  -1.06040  -1.05539
 Alpha  occ. eigenvalues --   -1.05484  -1.05470  -1.01527  -1.00374  -0.99632
 Alpha  occ. eigenvalues --   -0.99112  -0.98106  -0.96812  -0.94297  -0.90361
 Alpha  occ. eigenvalues --   -0.86845  -0.86416  -0.84730  -0.83666  -0.82732
 Alpha  occ. eigenvalues --   -0.81624  -0.81297  -0.78980  -0.78797  -0.76808
 Alpha  occ. eigenvalues --   -0.75870  -0.75117  -0.74273  -0.73258  -0.72586
 Alpha  occ. eigenvalues --   -0.71205  -0.70624  -0.69760  -0.69264  -0.68548
 Alpha  occ. eigenvalues --   -0.68353  -0.67390  -0.66879  -0.66373  -0.65964
 Alpha  occ. eigenvalues --   -0.65527  -0.65073  -0.64683  -0.64069  -0.63588
 Alpha  occ. eigenvalues --   -0.63494  -0.62458  -0.61016  -0.60053  -0.59164
 Alpha  occ. eigenvalues --   -0.58874  -0.58275  -0.57813  -0.57447  -0.57222
 Alpha  occ. eigenvalues --   -0.56879  -0.56502  -0.56122  -0.55551  -0.55457
 Alpha  occ. eigenvalues --   -0.54995  -0.54886  -0.54342  -0.54129  -0.53470
 Alpha  occ. eigenvalues --   -0.53447  -0.52990  -0.52753  -0.52423  -0.52188
 Alpha  occ. eigenvalues --   -0.51845  -0.51448  -0.50687  -0.50671  -0.50637
 Alpha  occ. eigenvalues --   -0.50306  -0.49652  -0.49547  -0.49464  -0.48999
 Alpha  occ. eigenvalues --   -0.48516  -0.48233  -0.48157  -0.47916  -0.47653
 Alpha  occ. eigenvalues --   -0.47135  -0.46868  -0.46586  -0.46369  -0.46272
 Alpha  occ. eigenvalues --   -0.45584  -0.45159  -0.45000  -0.44705  -0.44296
 Alpha  occ. eigenvalues --   -0.44150  -0.44085  -0.43616  -0.43393  -0.43012
 Alpha  occ. eigenvalues --   -0.42815  -0.42514  -0.42348  -0.42313  -0.41798
 Alpha  occ. eigenvalues --   -0.41437  -0.41155  -0.40815  -0.40227  -0.40137
 Alpha  occ. eigenvalues --   -0.39754  -0.39573  -0.38845  -0.38291  -0.37659
 Alpha  occ. eigenvalues --   -0.35791  -0.35424  -0.35400  -0.34928  -0.34710
 Alpha  occ. eigenvalues --   -0.34116  -0.33912  -0.33597  -0.33400  -0.33127
 Alpha  occ. eigenvalues --   -0.32369  -0.31961  -0.31395  -0.31306  -0.29828
 Alpha virt. eigenvalues --   -0.12878  -0.11680  -0.09241  -0.07404  -0.06872
 Alpha virt. eigenvalues --   -0.06626  -0.05209  -0.04825  -0.04698  -0.04324
 Alpha virt. eigenvalues --   -0.03150  -0.02244  -0.01147   0.00160   0.00506

 Mulliken charges:
               1
     1  N   -0.754487
     2  H    0.409452
     3  H    0.443761
     4  H    0.417959
     5  C   -0.124597
     6  H    0.215914
     7  C    0.644650
     8  C   -0.403119
     9  H    0.229967
    10  H    0.207545
    11  O   -0.525888
    12  C    0.646183
    13  N   -0.725859
    14  H    0.382732
    15  H    0.371511
    16  O   -0.533787
    17  N   -0.596011
    18  H    0.360856
    19  C   -0.077722
    20  H    0.186192
    21  C    0.625685
    22  C   -0.072065
    23  H    0.139835
    24  O   -0.563382
    25  C   -0.250142
    26  H    0.117157
    27  H    0.150985
    28  C   -0.478916
    29  H    0.157489
    30  H    0.173328
    31  H    0.164669
    32  C   -0.453833
    33  H    0.155754
    34  H    0.148963
    35  H    0.163453
    36  N   -0.612134
    37  H    0.371567
    38  C   -0.050081
    39  H    0.185398
    40  C    0.632604
    41  C   -0.455382
    42  H    0.158914
    43  H    0.167765
    44  H    0.178081
    45  O   -0.536763
    46  N   -0.631794
    47  H    0.386250
    48  C   -0.095682
    49  H    0.213588
    50  C    0.602840
    51  C    0.104506
    52  H    0.155843
    53  O   -0.541941
    54  C   -0.448149
    55  H    0.156472
    56  H    0.169389
    57  H    0.145788
    58  O   -0.665502
    59  H    0.428817
    60  N   -0.607780
    61  H    0.375475
    62  C   -0.092401
    63  H    0.197854
    64  C    0.611541
    65  C   -0.030016
    66  H    0.135537
    67  H    0.160194
    68  O   -0.535598
    69  O   -0.621946
    70  H    0.415427
    71  N   -0.590496
    72  H    0.371313
    73  C   -0.237741
    74  H    0.179055
    75  H    0.193361
    76  C    0.630736
    77  O   -0.590427
    78  N   -0.585909
    79  H    0.368076
    80  C   -0.015704
    81  H    0.190909
    82  C    0.580947
    83  C   -0.279225
    84  H    0.158317
    85  H    0.150515
    86  O   -0.598764
    87  C   -0.283164
    88  H    0.172763
    89  H    0.143898
    90  C   -0.291439
    91  H    0.163943
    92  H    0.150475
    93  C   -0.143480
    94  H    0.164740
    95  H    0.150769
    96  N   -0.777247
    97  H    0.336285
    98  H    0.459819
    99  H    0.342014
   100  O   -0.497253
 Sum of Mulliken charges =   1.00000

 Dipole moment (field-independent basis, Debye):
    X=            -23.4099    Y=            -15.7750    Z=             13.9424  Tot=             31.4843
 Quadrupole moment (field-independent basis, Debye-Ang):
   XX=            -37.4295   YY=           -176.1430   ZZ=           -250.0831
   XY=            -15.9151   XZ=            -56.2282   YZ=              0.7464

 Normal termination of Gaussian 16 at Fri May 27 02:50:07 2022.
