 Gaussian 16, Revision C.01,
 Gaussian 16:  ES64L-G16RevC.01  3-Jul-2019

 -------------------------------------------------------------------
 # B3LYP/6-31G* guess=read geom=check nosymm integral(ultrafinegrid)
 -------------------------------------------------------------------

 ------------------------------------------------------
 Candidate Structure: Conf:879 Charge calc in gas phase
 ------------------------------------------------------
 Structure from the checkpoint file:  "conf-879.chk"
 Charge =  1 Multiplicity = 1

                          Input orientation:
 ---------------------------------------------------------------------
 Center     Atomic      Atomic             Coordinates (Angstroms)
 Number     Number       Type             X           Y           Z
 ---------------------------------------------------------------------
      1          7           0       -0.330179    0.022965    5.304217
      2          1           0        0.972326    0.342046    4.403279
      3          1           0       -0.055247   -0.655841    6.013737
      4          1           0       -0.582870    0.894079    5.780659
      5          6           0       -1.529303   -0.432753    4.573680
      6          1           0       -1.214291   -1.104761    3.773327
      7          6           0       -2.158319    0.853288    3.980641
      8          6           0       -2.540602   -1.171015    5.469900
      9          1           0       -2.008837   -1.913783    6.082199
     10          1           0       -3.016281   -0.468039    6.165351
     11          8           0       -2.133314    1.886144    4.653791
     12          6           0       -3.591549   -1.921523    4.645432
     13          7           0       -4.656633   -2.387229    5.346228
     14          1           0       -5.369616   -2.906560    4.852073
     15          1           0       -4.779663   -2.217657    6.333313
     16          8           0       -3.462204   -2.111593    3.439442
     17          7           0       -2.649035    0.708678    2.733973
     18          1           0       -2.788760   -0.247163    2.408052
     19          6           0       -3.279801    1.718168    1.864620
     20          1           0       -4.340658    1.801232    2.140982
     21          6           0       -3.271894    1.009089    0.480649
     22          6           0       -2.645893    3.130080    2.009099
     23          1           0       -2.738333    3.342469    3.077735
     24          8           0       -3.513930   -0.194701    0.426042
     25          6           0       -3.424577    4.264120    1.295481
     26          1           0       -3.295043    4.240739    0.204290
     27          1           0       -2.952385    5.202276    1.614094
     28          6           0       -1.137993    3.175497    1.697519
     29          1           0       -0.886708    2.901760    0.666239
     30          1           0       -0.761491    4.189723    1.873906
     31          1           0       -0.583799    2.501636    2.357779
     32          6           0       -4.923367    4.335924    1.613607
     33          1           0       -5.357061    5.256219    1.208421
     34          1           0       -5.482033    3.498689    1.180391
     35          1           0       -5.099346    4.335081    2.695929
     36          7           0       -2.986916    1.728686   -0.641290
     37          1           0       -2.589560    2.649242   -0.521039
     38          6           0       -2.586465    1.025794   -1.867655
     39          1           0       -3.297763    0.211145   -2.017632
     40          6           0       -1.173278    0.468474   -1.596742
     41          6           0       -2.596233    1.981061   -3.058125
     42          1           0       -2.349753    1.443363   -3.979251
     43          1           0       -3.586265    2.431064   -3.175737
     44          1           0       -1.853371    2.773448   -2.920511
     45          8           0       -0.221296    1.250990   -1.431020
     46          7           0       -1.055936   -0.866564   -1.491731
     47          1           0       -1.861446   -1.460105   -1.662059
     48          6           0        0.058870   -1.566185   -0.849120
     49          1           0        0.359368   -0.988492    0.036474
     50          6           0        1.346021   -1.678735   -1.694817
     51          6           0       -0.438032   -2.950291   -0.381414
     52          1           0        0.451802   -3.576333   -0.254837
     53          8           0        2.064540   -2.682864   -1.650183
     54          6           0       -1.227923   -2.882354    0.922423
     55          1           0       -0.589210   -2.511120    1.731454
     56          1           0       -1.575580   -3.882488    1.208686
     57          1           0       -2.103500   -2.232783    0.835661
     58          8           0       -1.234908   -3.453150   -1.462639
     59          1           0       -1.650951   -4.277963   -1.168949
     60          7           0        1.689153   -0.560576   -2.383076
     61          1           0        1.164390    0.296712   -2.175699
     62          6           0        2.950879   -0.489521   -3.109668
     63          1           0        3.129133   -1.469964   -3.560460
     64          6           0        4.097099   -0.196104   -2.120373
     65          6           0        2.884051    0.540326   -4.231512
     66          1           0        2.813099    1.552741   -3.807240
     67          1           0        1.976658    0.343962   -4.820690
     68          8           0        4.576259    0.942808   -1.987754
     69          8           0        4.065747    0.368755   -4.994757
     70          1           0        4.063365    1.016039   -5.715560
     71          7           0        4.486295   -1.258747   -1.387806
     72          1           0        3.934791   -2.111654   -1.500680
     73          6           0        5.564984   -1.190385   -0.418016
     74          1           0        5.758105   -2.206326   -0.059761
     75          1           0        6.480735   -0.825357   -0.890455
     76          6           0        5.317537   -0.273606    0.793005
     77          8           0        6.233450    0.466191    1.187492
     78          7           0        4.107451   -0.334636    1.374483
     79          1           0        3.386520   -0.958719    1.021570
     80          6           0        3.739393    0.402158    2.582261
     81          1           0        4.351611    0.037842    3.418302
     82          6           0        2.286888    0.038153    2.930177
     83          6           0        3.982549    1.925911    2.492099
     84          1           0        3.580742    2.371351    3.407000
     85          1           0        5.064995    2.068803    2.523282
     86          8           0        1.908995    0.633341    4.037374
     87          6           0        3.390143    2.629649    1.255387
     88          1           0        3.399908    1.954421    0.390910
     89          1           0        2.334086    2.858595    1.432432
     90          6           0        4.156693    3.934396    0.913401
     91          1           0        4.794810    4.226962    1.756817
     92          1           0        3.459554    4.767229    0.767443
     93          6           0        5.002296    3.889131   -0.362304
     94          1           0        4.372589    3.815439   -1.251952
     95          1           0        5.614127    4.790102   -0.447171
     96          7           0        5.940842    2.695784   -0.441368
     97          1           0        6.834659    2.948756   -0.869475
     98          1           0        5.510833    1.935983   -1.032316
     99          1           0        6.146962    2.222575    0.458325
    100          8           0        1.622327   -0.733438    2.249617
 ---------------------------------------------------------------------

 SCF Done:  E(RB3LYP) =  -2418.47435804     A.U. after    2 cycles

 Alpha  occ. eigenvalues --  -19.25165 -19.23969 -19.22968 -19.22376 -19.22298
 Alpha  occ. eigenvalues --  -19.22215 -19.21045 -19.20828 -19.19986 -19.19536
 Alpha  occ. eigenvalues --  -19.19155 -14.54389 -14.46721 -14.46495 -14.44786
 Alpha  occ. eigenvalues --  -14.44563 -14.44439 -14.43729 -14.43135 -14.43050
 Alpha  occ. eigenvalues --  -10.40372 -10.39931 -10.39736 -10.37776 -10.37522
 Alpha  occ. eigenvalues --  -10.37395 -10.37117 -10.36305 -10.36001 -10.33448
 Alpha  occ. eigenvalues --  -10.33145 -10.32543 -10.32272 -10.31893 -10.31674
 Alpha  occ. eigenvalues --  -10.31260 -10.31243 -10.31141 -10.30369 -10.28600
 Alpha  occ. eigenvalues --  -10.28565 -10.28139 -10.26334 -10.26295 -10.25650
 Alpha  occ. eigenvalues --  -10.24438 -10.24076 -10.23820  -1.17266  -1.15163
 Alpha  occ. eigenvalues --   -1.13888  -1.13057  -1.12483  -1.11798  -1.11364
 Alpha  occ. eigenvalues --   -1.10743  -1.10368  -1.09547  -1.09414  -1.08934
 Alpha  occ. eigenvalues --   -1.03613  -1.02334  -1.01470  -1.00945  -1.00465
 Alpha  occ. eigenvalues --   -0.99643  -0.99083  -0.98422  -0.91031  -0.88495
 Alpha  occ. eigenvalues --   -0.87811  -0.86903  -0.85407  -0.84917  -0.84133
 Alpha  occ. eigenvalues --   -0.82992  -0.80874  -0.80797  -0.78663  -0.78256
 Alpha  occ. eigenvalues --   -0.75083  -0.74283  -0.73372  -0.72894  -0.70749
 Alpha  occ. eigenvalues --   -0.70490  -0.70165  -0.69836  -0.68980  -0.68279
 Alpha  occ. eigenvalues --   -0.68128  -0.67479  -0.67366  -0.66563  -0.66400
 Alpha  occ. eigenvalues --   -0.66159  -0.65849  -0.63716  -0.62736  -0.61998
 Alpha  occ. eigenvalues --   -0.61883  -0.61330  -0.60918  -0.60695  -0.60196
 Alpha  occ. eigenvalues --   -0.59378  -0.58998  -0.58507  -0.58155  -0.57930
 Alpha  occ. eigenvalues --   -0.56539  -0.56401  -0.56336  -0.56087  -0.55961
 Alpha  occ. eigenvalues --   -0.55464  -0.54799  -0.54636  -0.54498  -0.54162
 Alpha  occ. eigenvalues --   -0.53896  -0.53697  -0.53648  -0.52304  -0.51876
 Alpha  occ. eigenvalues --   -0.51640  -0.51432  -0.51170  -0.51075  -0.50905
 Alpha  occ. eigenvalues --   -0.50736  -0.50338  -0.50075  -0.49653  -0.49408
 Alpha  occ. eigenvalues --   -0.49139  -0.48885  -0.48857  -0.48571  -0.48531
 Alpha  occ. eigenvalues --   -0.48041  -0.47694  -0.47312  -0.47234  -0.46735
 Alpha  occ. eigenvalues --   -0.46532  -0.46328  -0.46085  -0.45592  -0.45167
 Alpha  occ. eigenvalues --   -0.44932  -0.44579  -0.44481  -0.44001  -0.43846
 Alpha  occ. eigenvalues --   -0.43641  -0.43489  -0.43438  -0.43176  -0.43132
 Alpha  occ. eigenvalues --   -0.42552  -0.42203  -0.40497  -0.40133  -0.39848
 Alpha  occ. eigenvalues --   -0.39456  -0.39121  -0.38800  -0.38446  -0.37042
 Alpha  occ. eigenvalues --   -0.36703  -0.36215  -0.35877  -0.35764  -0.35436
 Alpha  occ. eigenvalues --   -0.35071  -0.34937  -0.34460  -0.34359  -0.34121
 Alpha  occ. eigenvalues --   -0.33562  -0.33266  -0.32683  -0.32597  -0.31760
 Alpha virt. eigenvalues --   -0.09748  -0.09289  -0.07905  -0.07192  -0.06862
 Alpha virt. eigenvalues --   -0.06386  -0.06229  -0.05611  -0.04847  -0.01610
 Alpha virt. eigenvalues --   -0.01022  -0.00686  -0.00382   0.00066   0.00146

 Mulliken charges:
               1
     1  N   -0.803611
     2  H    0.478974
     3  H    0.329704
     4  H    0.356854
     5  C   -0.046889
     6  H    0.192609
     7  C    0.623559
     8  C   -0.398347
     9  H    0.176189
    10  H    0.182831
    11  O   -0.542857
    12  C    0.615028
    13  N   -0.743963
    14  H    0.357903
    15  H    0.349690
    16  O   -0.509608
    17  N   -0.654103
    18  H    0.403366
    19  C   -0.014114
    20  H    0.188168
    21  C    0.596464
    22  C   -0.127240
    23  H    0.195360
    24  O   -0.521024
    25  C   -0.273235
    26  H    0.123414
    27  H    0.150905
    28  C   -0.485203
    29  H    0.152709
    30  H    0.147094
    31  H    0.159567
    32  C   -0.456691
    33  H    0.159443
    34  H    0.150171
    35  H    0.158834
    36  N   -0.599028
    37  H    0.349757
    38  C   -0.043380
    39  H    0.182121
    40  C    0.633203
    41  C   -0.473634
    42  H    0.169344
    43  H    0.177220
    44  H    0.168217
    45  O   -0.579859
    46  N   -0.588294
    47  H    0.375270
    48  C   -0.086467
    49  H    0.219113
    50  C    0.634041
    51  C    0.107256
    52  H    0.168491
    53  O   -0.546966
    54  C   -0.509273
    55  H    0.167678
    56  H    0.147713
    57  H    0.203154
    58  O   -0.639717
    59  H    0.409763
    60  N   -0.639132
    61  H    0.390628
    62  C   -0.074797
    63  H    0.206400
    64  C    0.665708
    65  C   -0.035390
    66  H    0.137230
    67  H    0.150766
    68  O   -0.585023
    69  O   -0.617121
    70  H    0.408454
    71  N   -0.599549
    72  H    0.394582
    73  C   -0.231821
    74  H    0.206098
    75  H    0.196534
    76  C    0.608817
    77  O   -0.571994
    78  N   -0.599437
    79  H    0.362135
    80  C   -0.021785
    81  H    0.198448
    82  C    0.596098
    83  C   -0.301064
    84  H    0.188592
    85  H    0.163050
    86  O   -0.609811
    87  C   -0.302983
    88  H    0.155632
    89  H    0.182534
    90  C   -0.292404
    91  H    0.170915
    92  H    0.182718
    93  C   -0.182358
    94  H    0.209853
    95  H    0.195872
    96  N   -0.800324
    97  H    0.396126
    98  H    0.451752
    99  H    0.436897
   100  O   -0.508520
 Sum of Mulliken charges =   1.00000

 Dipole moment (field-independent basis, Debye):
    X=              8.5049    Y=              5.8916    Z=              4.2116  Tot=             11.1706
 Quadrupole moment (field-independent basis, Debye-Ang):
   XX=           -168.4151   YY=           -230.4705   ZZ=           -203.6807
   XY=             46.0005   XZ=            -33.9405   YZ=            -33.1821

 Normal termination of Gaussian 16 at Fri May 27 02:50:32 2022.
