 Gaussian 16, Revision C.01,
 Gaussian 16:  ES64L-G16RevC.01  3-Jul-2019

 -------------------------------------------------------------------
 # B3LYP/6-31G* guess=read geom=check nosymm integral(ultrafinegrid)
 -------------------------------------------------------------------

 ------------------------------------------------------
 Candidate Structure: Conf:962 Charge calc in gas phase
 ------------------------------------------------------
 Structure from the checkpoint file:  "conf-962.chk"
 Charge =  1 Multiplicity = 1

                          Input orientation:
 ---------------------------------------------------------------------
 Center     Atomic      Atomic             Coordinates (Angstroms)
 Number     Number       Type             X           Y           Z
 ---------------------------------------------------------------------
      1          7           0       -6.587033    5.197690    3.717580
      2          1           0       -6.939698    5.105184    4.675177
      3          1           0       -7.161447    5.882954    3.219294
      4          1           0       -5.560124    5.497291    3.761542
      5          6           0       -6.456631    3.868832    2.996973
      6          1           0       -7.120084    3.145491    3.474637
      7          6           0       -4.953387    3.523436    3.236676
      8          6           0       -6.809141    4.062074    1.504685
      9          1           0       -7.895015    4.179717    1.400851
     10          1           0       -6.314121    4.959814    1.122558
     11          8           0       -4.212300    4.475706    3.526407
     12          6           0       -6.263330    2.891758    0.662452
     13          7           0       -7.008084    1.751931    0.704675
     14          1           0       -6.625960    0.934164    0.243035
     15          1           0       -7.995019    1.752966    0.920652
     16          8           0       -5.174500    2.981837    0.125452
     17          7           0       -4.613643    2.246715    3.124553
     18          1           0       -5.280741    1.567172    2.744295
     19          6           0       -3.236405    1.760227    2.958363
     20          1           0       -2.625319    2.599423    2.611932
     21          6           0       -3.350702    0.695004    1.840400
     22          6           0       -2.616223    1.183603    4.263505
     23          1           0       -1.638613    0.781136    3.959893
     24          8           0       -4.452004    0.191519    1.578465
     25          6           0       -3.447147    0.018332    4.840583
     26          1           0       -3.697489   -0.684556    4.036664
     27          1           0       -4.404973    0.412553    5.209658
     28          6           0       -2.365100    2.299548    5.288364
     29          1           0       -3.307991    2.711684    5.666947
     30          1           0       -1.801798    1.918997    6.144914
     31          1           0       -1.792502    3.124597    4.852105
     32          6           0       -2.744723   -0.750407    5.966112
     33          1           0       -3.354831   -1.600999    6.287517
     34          1           0       -1.777362   -1.144537    5.632571
     35          1           0       -2.565443   -0.124947    6.846652
     36          7           0       -2.206747    0.366074    1.231955
     37          1           0       -1.306855    0.760803    1.500292
     38          6           0       -2.107566   -0.643842    0.185551
     39          1           0       -2.737483   -1.495538    0.464791
     40          6           0       -0.624018   -1.061534    0.158563
     41          6           0       -2.559972   -0.094559   -1.179925
     42          1           0       -2.544227   -0.879838   -1.942554
     43          1           0       -3.578191    0.294968   -1.099957
     44          1           0       -1.899917    0.716092   -1.504189
     45          8           0        0.231890   -0.361353    0.707028
     46          7           0       -0.351947   -2.201412   -0.502855
     47          1           0       -1.072269   -2.729163   -0.986573
     48          6           0        1.001624   -2.709599   -0.714187
     49          1           0        1.600888   -2.449411    0.163057
     50          6           0        1.598594   -2.066437   -1.986889
     51          6           0        0.911250   -4.244450   -0.897038
     52          1           0        1.898229   -4.593131   -1.233606
     53          8           0        1.437085   -2.588721   -3.096330
     54          6           0        0.527827   -4.978063    0.380813
     55          1           0        1.286967   -4.833837    1.157215
     56          1           0        0.439670   -6.048087    0.172560
     57          1           0       -0.435018   -4.625473    0.765412
     58          8           0       -0.075332   -4.526498   -1.885128
     59          1           0        0.274022   -4.105475   -2.699536
     60          7           0        2.257302   -0.905936   -1.797171
     61          1           0        2.463062   -0.595235   -0.852577
     62          6           0        2.991828   -0.222684   -2.853809
     63          1           0        3.576381   -0.966331   -3.416004
     64          6           0        4.021580    0.692438   -2.158333
     65          6           0        2.049018    0.459984   -3.879651
     66          1           0        1.450960    1.229451   -3.378045
     67          1           0        1.371308   -0.311369   -4.262568
     68          8           0        4.391135    0.475074   -1.007119
     69          8           0        2.748073    1.102696   -4.933787
     70          1           0        3.332978    0.446179   -5.400594
     71          7           0        4.515766    1.685035   -2.947624
     72          1           0        4.060026    1.781729   -3.863444
     73          6           0        5.782971    2.336077   -2.699510
     74          1           0        5.690655    3.427160   -2.687068
     75          1           0        6.142644    2.019394   -1.715041
     76          6           0        6.816708    1.987128   -3.781966
     77          8           0        7.755917    2.799446   -4.002021
     78          7           0        6.621585    0.841630   -4.417776
     79          1           0        5.726929    0.353902   -4.266740
     80          6           0        7.083892    0.441305   -5.745184
     81          1           0        7.353059    1.339281   -6.310239
     82          6           0        5.821131   -0.194954   -6.472252
     83          6           0        8.235889   -0.574789   -5.708194
     84          1           0        7.881528   -1.439850   -5.134494
     85          1           0        8.384030   -0.928109   -6.735562
     86          8           0        5.965167   -0.414390   -7.673564
     87          6           0        9.564239   -0.091211   -5.094169
     88          1           0        9.362495    0.535711   -4.214848
     89          1           0       10.111216   -0.960217   -4.709005
     90          6           0       10.528509    0.624894   -6.059593
     91          1           0       10.786220   -0.056145   -6.880447
     92          1           0       11.474275    0.840657   -5.540676
     93          6           0       10.030451    1.908876   -6.720195
     94          1           0       10.798405    2.329955   -7.375751
     95          1           0        9.129587    1.743316   -7.313388
     96          7           0        9.687542    2.966261   -5.699227
     97          1           0        9.452928    3.852928   -6.154315
     98          1           0       10.487721    3.147997   -5.085807
     99          1           0        8.828791    2.727406   -5.034550
    100          8           0        4.831646   -0.410009   -5.692193
 ---------------------------------------------------------------------

 SCF Done:  E(RB3LYP) =  -2418.41559616     A.U. after    3 cycles

 Alpha  occ. eigenvalues --  -19.26938 -19.23324 -19.21252 -19.19803 -19.19244
 Alpha  occ. eigenvalues --  -19.18453 -19.17265 -19.17212 -19.16564 -19.11427
 Alpha  occ. eigenvalues --  -19.09873 -14.60839 -14.52073 -14.48993 -14.47527
 Alpha  occ. eigenvalues --  -14.44716 -14.43204 -14.41088 -14.40728 -14.40071
 Alpha  occ. eigenvalues --  -10.43633 -10.42063 -10.41521 -10.38271 -10.36263
 Alpha  occ. eigenvalues --  -10.35580 -10.35258 -10.34101 -10.33649 -10.33581
 Alpha  occ. eigenvalues --  -10.33130 -10.31458 -10.29113 -10.28981 -10.28974
 Alpha  occ. eigenvalues --  -10.28622 -10.28337 -10.27552 -10.27410 -10.27046
 Alpha  occ. eigenvalues --  -10.26291 -10.26166 -10.25703 -10.25463 -10.25013
 Alpha  occ. eigenvalues --  -10.24652 -10.23207 -10.22520  -1.19517  -1.15350
 Alpha  occ. eigenvalues --   -1.14426  -1.13084  -1.11101  -1.10393  -1.09220
 Alpha  occ. eigenvalues --   -1.08290  -1.06821  -1.06012  -1.05747  -1.04735
 Alpha  occ. eigenvalues --   -1.03831  -1.02372  -1.01322  -0.99409  -0.98848
 Alpha  occ. eigenvalues --   -0.97256  -0.96443  -0.95135  -0.94158  -0.90264
 Alpha  occ. eigenvalues --   -0.87666  -0.85914  -0.84269  -0.82930  -0.82449
 Alpha  occ. eigenvalues --   -0.81454  -0.80722  -0.79259  -0.78126  -0.76337
 Alpha  occ. eigenvalues --   -0.75463  -0.74892  -0.74529  -0.73730  -0.72258
 Alpha  occ. eigenvalues --   -0.70766  -0.70755  -0.70540  -0.69238  -0.67940
 Alpha  occ. eigenvalues --   -0.67114  -0.66682  -0.65796  -0.65425  -0.65311
 Alpha  occ. eigenvalues --   -0.64899  -0.64513  -0.64224  -0.63628  -0.63558
 Alpha  occ. eigenvalues --   -0.62906  -0.62121  -0.61724  -0.60262  -0.59537
 Alpha  occ. eigenvalues --   -0.58981  -0.58349  -0.57443  -0.57087  -0.56544
 Alpha  occ. eigenvalues --   -0.55977  -0.55959  -0.55249  -0.54892  -0.54712
 Alpha  occ. eigenvalues --   -0.54303  -0.53677  -0.53444  -0.53373  -0.52653
 Alpha  occ. eigenvalues --   -0.52358  -0.52309  -0.51754  -0.51549  -0.51363
 Alpha  occ. eigenvalues --   -0.51065  -0.51036  -0.50531  -0.50082  -0.49710
 Alpha  occ. eigenvalues --   -0.49363  -0.48887  -0.48654  -0.48146  -0.47879
 Alpha  occ. eigenvalues --   -0.47856  -0.47042  -0.47010  -0.46827  -0.46267
 Alpha  occ. eigenvalues --   -0.46111  -0.45852  -0.45429  -0.45326  -0.45175
 Alpha  occ. eigenvalues --   -0.44750  -0.44216  -0.43876  -0.43737  -0.43640
 Alpha  occ. eigenvalues --   -0.43380  -0.43077  -0.42747  -0.42425  -0.42244
 Alpha  occ. eigenvalues --   -0.41715  -0.41554  -0.41256  -0.41029  -0.40856
 Alpha  occ. eigenvalues --   -0.40693  -0.40403  -0.39691  -0.38946  -0.38722
 Alpha  occ. eigenvalues --   -0.38256  -0.38148  -0.37736  -0.37014  -0.35942
 Alpha  occ. eigenvalues --   -0.35441  -0.34953  -0.34826  -0.33931  -0.33312
 Alpha  occ. eigenvalues --   -0.32460  -0.32321  -0.31878  -0.30487  -0.30192
 Alpha  occ. eigenvalues --   -0.29539  -0.29034  -0.26458  -0.26166  -0.23803
 Alpha virt. eigenvalues --   -0.12895  -0.11710  -0.10838  -0.07050  -0.06674
 Alpha virt. eigenvalues --   -0.05244  -0.05198  -0.04623  -0.04427  -0.03086
 Alpha virt. eigenvalues --   -0.02777  -0.02265  -0.01721  -0.00125   0.00480

 Mulliken charges:
               1
     1  N   -0.754149
     2  H    0.417818
     3  H    0.415229
     4  H    0.436387
     5  C   -0.115505
     6  H    0.217229
     7  C    0.656262
     8  C   -0.378442
     9  H    0.183508
    10  H    0.210918
    11  O   -0.540560
    12  C    0.576083
    13  N   -0.733622
    14  H    0.385674
    15  H    0.348051
    16  O   -0.458964
    17  N   -0.586928
    18  H    0.380018
    19  C   -0.084257
    20  H    0.193621
    21  C    0.662993
    22  C   -0.079637
    23  H    0.151611
    24  O   -0.578724
    25  C   -0.271242
    26  H    0.158165
    27  H    0.124342
    28  C   -0.451586
    29  H    0.133834
    30  H    0.170414
    31  H    0.161609
    32  C   -0.452852
    33  H    0.159452
    34  H    0.156999
    35  H    0.154513
    36  N   -0.613258
    37  H    0.366228
    38  C   -0.050707
    39  H    0.181768
    40  C    0.628794
    41  C   -0.447827
    42  H    0.164748
    43  H    0.179729
    44  H    0.172493
    45  O   -0.546266
    46  N   -0.603016
    47  H    0.352060
    48  C   -0.081727
    49  H    0.176349
    50  C    0.638972
    51  C    0.116385
    52  H    0.147725
    53  O   -0.546289
    54  C   -0.449785
    55  H    0.148240
    56  H    0.174398
    57  H    0.143734
    58  O   -0.653738
    59  H    0.425787
    60  N   -0.615570
    61  H    0.365276
    62  C   -0.072000
    63  H    0.221477
    64  C    0.568138
    65  C   -0.037950
    66  H    0.136825
    67  H    0.172993
    68  O   -0.527697
    69  O   -0.657304
    70  H    0.447733
    71  N   -0.628800
    72  H    0.375761
    73  C   -0.209492
    74  H    0.183141
    75  H    0.215887
    76  C    0.596655
    77  O   -0.623682
    78  N   -0.557499
    79  H    0.374933
    80  C   -0.100511
    81  H    0.118457
    82  C    0.603079
    83  C   -0.262416
    84  H    0.159595
    85  H    0.172949
    86  O   -0.539772
    87  C   -0.283693
    88  H    0.143158
    89  H    0.160915
    90  C   -0.285515
    91  H    0.183867
    92  H    0.146681
    93  C   -0.189411
    94  H    0.188219
    95  H    0.226671
    96  N   -0.772054
    97  H    0.392346
    98  H    0.385941
    99  H    0.466182
   100  O   -0.636574
 Sum of Mulliken charges =   1.00000

 Dipole moment (field-independent basis, Debye):
    X=            -12.1419    Y=             22.9244    Z=             11.9385  Tot=             28.5566
 Quadrupole moment (field-independent basis, Debye-Ang):
   XX=            152.6054   YY=           -182.6301   ZZ=           -238.0535
   XY=            -50.5989   XZ=           -187.2599   YZ=              4.1950

 Normal termination of Gaussian 16 at Fri May 27 02:50:21 2022.
