 Gaussian 16, Revision C.01,
 Gaussian 16:  ES64L-G16RevC.01  3-Jul-2019

 -------------------------------------------------------------------
 # B3LYP/6-31G* guess=read geom=check nosymm integral(ultrafinegrid)
 -------------------------------------------------------------------

 ------------------------------------------------------
 Candidate Structure: Conf:797 Charge calc in gas phase
 ------------------------------------------------------
 Structure from the checkpoint file:  "conf-797.chk"
 Charge =  1 Multiplicity = 1

                          Input orientation:
 ---------------------------------------------------------------------
 Center     Atomic      Atomic             Coordinates (Angstroms)
 Number     Number       Type             X           Y           Z
 ---------------------------------------------------------------------
      1          7           0       -1.904697    2.007405   -3.236343
      2          1           0       -2.451009    2.551242   -3.904720
      3          1           0       -1.128362    1.408749   -3.805931
      4          1           0       -1.374417    2.657010   -2.616004
      5          6           0       -2.769382    1.230181   -2.290325
      6          1           0       -3.822320    1.442401   -2.491412
      7          6           0       -2.388281    1.770831   -0.879896
      8          6           0       -2.510164   -0.274804   -2.476536
      9          1           0       -2.625451   -0.512429   -3.542988
     10          1           0       -1.469197   -0.518753   -2.236799
     11          8           0       -1.457220    2.579318   -0.791803
     12          6           0       -3.510051   -1.136692   -1.711792
     13          7           0       -3.151856   -2.433719   -1.550766
     14          1           0       -3.723293   -2.988844   -0.926189
     15          1           0       -2.188985   -2.717427   -1.668445
     16          8           0       -4.591813   -0.689445   -1.327807
     17          7           0       -3.111480    1.308866    0.151644
     18          1           0       -3.802307    0.588506   -0.051881
     19          6           0       -2.631403    1.404576    1.535895
     20          1           0       -1.942333    2.251926    1.559789
     21          6           0       -1.860698    0.090583    1.799444
     22          6           0       -3.783961    1.680568    2.534363
     23          1           0       -4.220754    2.636266    2.207909
     24          8           0       -2.384119   -1.002420    1.566281
     25          6           0       -3.201599    1.889573    3.949429
     26          1           0       -2.341315    2.570686    3.882303
     27          1           0       -2.806967    0.935470    4.325040
     28          6           0       -4.893949    0.617020    2.508905
     29          1           0       -4.519329   -0.357864    2.832958
     30          1           0       -5.715375    0.912050    3.168938
     31          1           0       -5.321777    0.491020    1.508133
     32          6           0       -4.198007    2.463025    4.963498
     33          1           0       -3.703811    2.653991    5.922156
     34          1           0       -4.619260    3.412869    4.611761
     35          1           0       -5.030556    1.778326    5.155294
     36          7           0       -0.583285    0.235099    2.209220
     37          1           0       -0.186938    1.141384    2.441016
     38          6           0        0.341809   -0.878276    2.356307
     39          1           0       -0.085914   -1.610113    3.055240
     40          6           0        1.624603   -0.284748    2.978823
     41          6           0        0.609721   -1.573266    1.006651
     42          1           0        1.193537   -2.491032    1.138380
     43          1           0       -0.347244   -1.854269    0.562645
     44          1           0        1.153058   -0.909421    0.328708
     45          8           0        1.675576    0.881841    3.354230
     46          7           0        2.659205   -1.161327    3.096633
     47          1           0        2.598986   -2.036792    2.588442
     48          6           0        4.030563   -0.716277    3.239094
     49          1           0        4.094689    0.016491    4.050498
     50          6           0        4.476601   -0.040512    1.914327
     51          6           0        4.894582   -1.970925    3.555007
     52          1           0        5.952487   -1.669431    3.612349
     53          8           0        3.689088    0.225809    1.017206
     54          6           0        4.526615   -2.615804    4.886528
     55          1           0        4.682448   -1.915878    5.714530
     56          1           0        5.152893   -3.497883    5.047926
     57          1           0        3.479023   -2.928860    4.891298
     58          8           0        4.707266   -2.940067    2.533687
     59          1           0        5.127019   -2.621585    1.705738
     60          7           0        5.818987    0.217820    1.777223
     61          1           0        6.471637   -0.247941    2.395692
     62          6           0        6.322397    0.408699    0.431615
     63          1           0        5.871110    1.313544    0.010239
     64          6           0        5.896465   -0.790741   -0.459956
     65          6           0        7.838870    0.606979    0.482370
     66          1           0        8.049876    1.556077    0.996675
     67          1           0        8.232232    0.676347   -0.542854
     68          8           0        5.647183   -1.905884   -0.007203
     69          8           0        8.391920   -0.497623    1.184593
     70          1           0        9.335590   -0.332155    1.329415
     71          7           0        5.793501   -0.506329   -1.781166
     72          1           0        5.942181    0.437286   -2.118448
     73          6           0        5.086823   -1.384526   -2.701482
     74          1           0        5.783121   -2.040606   -3.242263
     75          1           0        4.410347   -2.020461   -2.124816
     76          6           0        4.367523   -0.496351   -3.721022
     77          8           0        4.980566    0.424579   -4.268685
     78          7           0        3.072208   -0.798226   -3.979587
     79          1           0        2.541832   -1.344570   -3.300896
     80          6           0        2.207710    0.116395   -4.720396
     81          1           0        2.616628    1.129000   -4.622877
     82          6           0        0.803411    0.113888   -4.052740
     83          6           0        2.099440   -0.220662   -6.218137
     84          1           0        1.723516   -1.247415   -6.328685
     85          1           0        1.343930    0.449948   -6.642682
     86          8           0       -0.020629    0.928221   -4.594733
     87          6           0        3.428096   -0.070902   -6.969410
     88          1           0        3.829659    0.936745   -6.808436
     89          1           0        4.170366   -0.762197   -6.555107
     90          6           0        3.273349   -0.332190   -8.478560
     91          1           0        2.540391    0.368991   -8.902607
     92          1           0        2.886495   -1.348355   -8.641990
     93          6           0        4.611298   -0.169507   -9.183792
     94          1           0        5.013685    0.841931   -9.089502
     95          1           0        5.360094   -0.883095   -8.831850
     96          7           0        4.470478   -0.423075  -10.692066
     97          1           0        5.362270   -0.318591  -11.191342
     98          1           0        3.798085    0.231411  -11.110351
     99          1           0        4.119694   -1.371915  -10.871180
    100          8           0        0.612683   -0.644088   -3.086673
 ---------------------------------------------------------------------

 SCF Done:  E(RB3LYP) =  -2418.42584071     A.U. after    2 cycles

 Alpha  occ. eigenvalues --  -19.22048 -19.19406 -19.18609 -19.18238 -19.18196
 Alpha  occ. eigenvalues --  -19.17972 -19.17007 -19.16979 -19.16319 -19.16061
 Alpha  occ. eigenvalues --  -19.15511 -14.65114 -14.47775 -14.42645 -14.42228
 Alpha  occ. eigenvalues --  -14.42040 -14.41963 -14.41107 -14.40056 -14.39729
 Alpha  occ. eigenvalues --  -10.41788 -10.36177 -10.36068 -10.35810 -10.35163
 Alpha  occ. eigenvalues --  -10.34452 -10.33991 -10.33687 -10.33087 -10.32851
 Alpha  occ. eigenvalues --  -10.32577 -10.31111 -10.29839 -10.29513 -10.29472
 Alpha  occ. eigenvalues --  -10.29118 -10.29003 -10.27956 -10.27859 -10.27798
 Alpha  occ. eigenvalues --  -10.27158 -10.26862 -10.23891 -10.22304 -10.22111
 Alpha  occ. eigenvalues --  -10.21643 -10.21118 -10.20878  -1.18939  -1.11421
 Alpha  occ. eigenvalues --   -1.10824  -1.10363  -1.09977  -1.09717  -1.09197
 Alpha  occ. eigenvalues --   -1.08909  -1.07928  -1.07155  -1.05711  -1.03343
 Alpha  occ. eigenvalues --   -1.01181  -0.98825  -0.98750  -0.98579  -0.97808
 Alpha  occ. eigenvalues --   -0.96983  -0.96714  -0.96384  -0.95095  -0.87505
 Alpha  occ. eigenvalues --   -0.86317  -0.84581  -0.84125  -0.82604  -0.81817
 Alpha  occ. eigenvalues --   -0.80227  -0.79095  -0.78095  -0.77565  -0.77428
 Alpha  occ. eigenvalues --   -0.75405  -0.75172  -0.73806  -0.73438  -0.70601
 Alpha  occ. eigenvalues --   -0.69849  -0.69075  -0.67770  -0.66293  -0.65896
 Alpha  occ. eigenvalues --   -0.65558  -0.65115  -0.64803  -0.64634  -0.64435
 Alpha  occ. eigenvalues --   -0.63711  -0.63080  -0.62609  -0.62089  -0.61577
 Alpha  occ. eigenvalues --   -0.61219  -0.61006  -0.60224  -0.58760  -0.58433
 Alpha  occ. eigenvalues --   -0.57559  -0.56925  -0.56469  -0.56215  -0.56010
 Alpha  occ. eigenvalues --   -0.55749  -0.54566  -0.54052  -0.53770  -0.53447
 Alpha  occ. eigenvalues --   -0.53164  -0.52777  -0.52423  -0.52099  -0.52003
 Alpha  occ. eigenvalues --   -0.51777  -0.51276  -0.50768  -0.50423  -0.49962
 Alpha  occ. eigenvalues --   -0.49874  -0.49263  -0.48827  -0.48595  -0.48183
 Alpha  occ. eigenvalues --   -0.48043  -0.47819  -0.47693  -0.47190  -0.46981
 Alpha  occ. eigenvalues --   -0.46777  -0.46376  -0.46039  -0.45987  -0.45624
 Alpha  occ. eigenvalues --   -0.45236  -0.45187  -0.44976  -0.44407  -0.44225
 Alpha  occ. eigenvalues --   -0.43788  -0.43583  -0.43304  -0.43059  -0.42863
 Alpha  occ. eigenvalues --   -0.42443  -0.42321  -0.41942  -0.41803  -0.41381
 Alpha  occ. eigenvalues --   -0.41326  -0.41048  -0.40780  -0.40629  -0.40392
 Alpha  occ. eigenvalues --   -0.39710  -0.39063  -0.37319  -0.36875  -0.36591
 Alpha  occ. eigenvalues --   -0.36389  -0.34883  -0.34053  -0.33842  -0.33523
 Alpha  occ. eigenvalues --   -0.33338  -0.32770  -0.32688  -0.32348  -0.32095
 Alpha  occ. eigenvalues --   -0.31840  -0.31479  -0.31294  -0.31089  -0.31000
 Alpha  occ. eigenvalues --   -0.30313  -0.30016  -0.29781  -0.28835  -0.28479
 Alpha virt. eigenvalues --   -0.15575  -0.08860  -0.08811  -0.06282  -0.05782
 Alpha virt. eigenvalues --   -0.05541  -0.04520  -0.03953  -0.02847  -0.02784
 Alpha virt. eigenvalues --   -0.02393  -0.01752  -0.01365  -0.01330  -0.01228

 Mulliken charges:
               1
     1  N   -0.815774
     2  H    0.371490
     3  H    0.467645
     4  H    0.403004
     5  C   -0.078037
     6  H    0.205815
     7  C    0.616839
     8  C   -0.405654
     9  H    0.192356
    10  H    0.235196
    11  O   -0.535113
    12  C    0.615268
    13  N   -0.731109
    14  H    0.361132
    15  H    0.355694
    16  O   -0.529047
    17  N   -0.622213
    18  H    0.404738
    19  C   -0.074312
    20  H    0.175467
    21  C    0.635411
    22  C   -0.077940
    23  H    0.134970
    24  O   -0.559531
    25  C   -0.264915
    26  H    0.134153
    27  H    0.147508
    28  C   -0.473897
    29  H    0.174736
    30  H    0.151447
    31  H    0.151470
    32  C   -0.450367
    33  H    0.152815
    34  H    0.145226
    35  H    0.153911
    36  N   -0.614925
    37  H    0.362268
    38  C   -0.030590
    39  H    0.181500
    40  C    0.636295
    41  C   -0.477001
    42  H    0.143577
    43  H    0.171636
    44  H    0.190321
    45  O   -0.533589
    46  N   -0.607161
    47  H    0.348191
    48  C   -0.070030
    49  H    0.189446
    50  C    0.620611
    51  C    0.089508
    52  H    0.119453
    53  O   -0.517524
    54  C   -0.440174
    55  H    0.145863
    56  H    0.165635
    57  H    0.164771
    58  O   -0.662616
    59  H    0.442767
    60  N   -0.608938
    61  H    0.354449
    62  C   -0.064400
    63  H    0.179882
    64  C    0.654534
    65  C   -0.053934
    66  H    0.154517
    67  H    0.141608
    68  O   -0.537568
    69  O   -0.615541
    70  H    0.410941
    71  N   -0.606678
    72  H    0.347185
    73  C   -0.177075
    74  H    0.175508
    75  H    0.192916
    76  C    0.571127
    77  O   -0.549858
    78  N   -0.599602
    79  H    0.357291
    80  C   -0.051196
    81  H    0.176620
    82  C    0.612276
    83  C   -0.262738
    84  H    0.139786
    85  H    0.166209
    86  O   -0.650291
    87  C   -0.266538
    88  H    0.171000
    89  H    0.166791
    90  C   -0.292637
    91  H    0.164820
    92  H    0.164274
    93  C   -0.206245
    94  H    0.231723
    95  H    0.230602
    96  N   -0.732026
    97  H    0.430387
    98  H    0.426691
    99  H    0.426623
   100  O   -0.559108
 Sum of Mulliken charges =   1.00000

 Dipole moment (field-independent basis, Debye):
    X=             19.9479    Y=              0.1057    Z=            -43.6770  Tot=             48.0167
 Quadrupole moment (field-independent basis, Debye-Ang):
   XX=           -135.7698   YY=           -274.0485   ZZ=            199.2507
   XY=             -6.3612   XZ=           -172.5075   YZ=             15.3911

 Normal termination of Gaussian 16 at Fri May 27 02:50:10 2022.
