 Gaussian 16, Revision C.01,
 Gaussian 16:  ES64L-G16RevC.01  3-Jul-2019

 -------------------------------------------------------------------
 # B3LYP/6-31G* guess=read geom=check nosymm integral(ultrafinegrid)
 -------------------------------------------------------------------

 ------------------------------------------------------
 Candidate Structure: Conf:746 Charge calc in gas phase
 ------------------------------------------------------
 Structure from the checkpoint file:  "conf-746.chk"
 Charge =  1 Multiplicity = 1

                          Input orientation:
 ---------------------------------------------------------------------
 Center     Atomic      Atomic             Coordinates (Angstroms)
 Number     Number       Type             X           Y           Z
 ---------------------------------------------------------------------
      1          7           0       -1.564370    2.051630   -3.092131
      2          1           0       -1.694096    2.013405   -4.101397
      3          1           0       -0.638441    1.687723   -2.874743
      4          6           0       -2.585813    1.285381   -2.414763
      5          1           0       -2.400706    1.357668   -1.340934
      6          6           0       -2.530124   -0.184365   -2.826597
      7          6           0       -4.006403    1.881705   -2.680781
      8          1           0       -4.749172    1.306063   -2.112539
      9          1           0       -3.970604    2.881309   -2.235292
     10          8           0       -2.398913   -0.654603   -3.908487
     11          6           0       -4.414091    1.971468   -4.134876
     12          6           0       -4.004834    3.061254   -4.919039
     13          1           0       -3.406423    3.849751   -4.469952
     14          6           0       -5.213396    0.982695   -4.724184
     15          1           0       -5.565871    0.143893   -4.126142
     16          6           0       -4.372778    3.147523   -6.262303
     17          1           0       -4.052075    3.999754   -6.854426
     18          6           0       -5.585677    1.069000   -6.065485
     19          1           0       -6.211945    0.297300   -6.503827
     20          6           0       -5.161703    2.150780   -6.839044
     21          1           0       -5.454019    2.221973   -7.882543
     22          7           0       -2.692545   -1.309904   -1.687362
     23          6           0       -2.269990   -1.049474   -0.265594
     24          1           0       -2.833976   -0.175526    0.077166
     25          6           0       -0.767755   -0.727482   -0.284352
     26          6           0       -2.756687   -2.312887    0.467579
     27          1           0       -1.999477   -3.100742    0.395402
     28          1           0       -2.925679   -2.117958    1.529487
     29          8           0       -0.238060   -0.455853   -1.366997
     30          6           0       -4.061173   -2.724535   -0.272632
     31          1           0       -4.070668   -3.797207   -0.478579
     32          1           0       -4.949927   -2.500684    0.321736
     33          6           0       -4.083160   -1.902187   -1.582856
     34          1           0       -4.783354   -1.065318   -1.534469
     35          1           0       -4.282313   -2.475824   -2.488558
     36          7           0       -0.144070   -0.747983    0.898717
     37          1           0       -0.613330   -1.046938    1.749908
     38          6           0        1.284882   -0.460694    1.064979
     39          1           0        1.829430   -0.906716    0.228410
     40          6           0        1.679211   -1.158138    2.362829
     41          6           0        1.546017    1.069499    1.100633
     42          1           0        1.029211    1.483408    1.975807
     43          1           0        1.050640    1.477418    0.211652
     44          8           0        0.871304   -1.535085    3.187895
     45          6           0        3.019234    1.509772    1.095670
     46          1           0        3.017608    2.607458    1.129576
     47          1           0        3.517862    1.178330    2.013703
     48          6           0        3.816914    1.046149   -0.130673
     49          1           0        3.268656    1.272584   -1.054529
     50          1           0        3.948536   -0.045448   -0.103461
     51          6           0        5.199153    1.700556   -0.223444
     52          1           0        5.073793    2.787517   -0.307525
     53          1           0        5.750366    1.521546    0.718606
     54          7           0        5.897347    1.240016   -1.426711
     55          1           0        6.195532    0.272805   -1.304796
     56          1           0        6.750380    1.779821   -1.561102
     57          8           0        3.004194   -1.290507    2.491992
     58          1           0        3.177488   -1.711019    3.357471
     59          1           0       -2.059666   -2.026100   -2.063856
 ---------------------------------------------------------------------

 SCF Done:  E(RB3LYP) =  -1300.48714073     A.U. after    1 cycles

 Alpha  occ. eigenvalues --  -19.31722 -19.31409 -19.26604 -19.25992 -14.59340
 Alpha  occ. eigenvalues --  -14.50265 -14.43544 -14.37353 -10.46691 -10.44052
 Alpha  occ. eigenvalues --  -10.44024 -10.40664 -10.39492 -10.36978 -10.35919
 Alpha  occ. eigenvalues --  -10.35317 -10.34681 -10.31429 -10.29604 -10.29137
 Alpha  occ. eigenvalues --  -10.28107 -10.27596 -10.27499 -10.27381 -10.27321
 Alpha  occ. eigenvalues --  -10.27223 -10.27052 -10.25575  -1.23519  -1.22541
 Alpha  occ. eigenvalues --   -1.18673  -1.13999  -1.13657  -1.06728  -1.01946
 Alpha  occ. eigenvalues --   -0.95167  -0.94345  -0.94243  -0.92578  -0.90076
 Alpha  occ. eigenvalues --   -0.88526  -0.85095  -0.83668  -0.83008  -0.81310
 Alpha  occ. eigenvalues --   -0.78766  -0.77908  -0.76087  -0.75317  -0.72552
 Alpha  occ. eigenvalues --   -0.71915  -0.70911  -0.69295  -0.69060  -0.67867
 Alpha  occ. eigenvalues --   -0.65885  -0.65678  -0.63753  -0.62897  -0.62006
 Alpha  occ. eigenvalues --   -0.61583  -0.60955  -0.60476  -0.59810  -0.59242
 Alpha  occ. eigenvalues --   -0.58725  -0.57793  -0.57307  -0.56409  -0.55825
 Alpha  occ. eigenvalues --   -0.55556  -0.55402  -0.54636  -0.54254  -0.53471
 Alpha  occ. eigenvalues --   -0.53112  -0.52783  -0.52451  -0.51741  -0.51488
 Alpha  occ. eigenvalues --   -0.51245  -0.50572  -0.49962  -0.49553  -0.48964
 Alpha  occ. eigenvalues --   -0.48873  -0.48688  -0.48603  -0.46507  -0.44897
 Alpha  occ. eigenvalues --   -0.44711  -0.43675  -0.43198  -0.42829  -0.42554
 Alpha  occ. eigenvalues --   -0.41983  -0.41392  -0.40740  -0.40480  -0.39622
 Alpha  occ. eigenvalues --   -0.38949  -0.36308  -0.33582  -0.33224  -0.29634
 Alpha virt. eigenvalues --   -0.17350  -0.13033  -0.10714  -0.09796  -0.08824
 Alpha virt. eigenvalues --   -0.08590  -0.07625  -0.05004  -0.04716  -0.03985
 Alpha virt. eigenvalues --   -0.02931  -0.02743  -0.01859  -0.01385  -0.01067

 Mulliken charges:
               1
     1  N   -0.689656
     2  H    0.338950
     3  H    0.339433
     4  C   -0.056201
     5  H    0.157083
     6  C    0.590719
     7  C   -0.371966
     8  H    0.144683
     9  H    0.201048
    10  O   -0.360198
    11  C    0.161905
    12  C   -0.194471
    13  H    0.155474
    14  C   -0.177847
    15  H    0.104509
    16  C   -0.124480
    17  H    0.155825
    18  C   -0.123450
    19  H    0.149059
    20  C   -0.123927
    21  H    0.156113
    22  N   -0.576527
    23  C   -0.096573
    24  H    0.220371
    25  C    0.649210
    26  C   -0.313390
    27  H    0.193469
    28  H    0.204562
    29  O   -0.530095
    30  C   -0.310337
    31  H    0.204450
    32  H    0.202953
    33  C   -0.174370
    34  H    0.211581
    35  H    0.229429
    36  N   -0.623059
    37  H    0.368821
    38  C   -0.044638
    39  H    0.213748
    40  C    0.594008
    41  C   -0.276551
    42  H    0.154364
    43  H    0.165640
    44  O   -0.466523
    45  C   -0.270153
    46  H    0.154086
    47  H    0.154907
    48  C   -0.254997
    49  H    0.150403
    50  H    0.131013
    51  C   -0.138913
    52  H    0.145688
    53  H    0.120398
    54  N   -0.717389
    55  H    0.295807
    56  H    0.307226
    57  O   -0.546236
    58  H    0.435092
    59  H    0.399922
 Sum of Mulliken charges =   1.00000

 Dipole moment (field-independent basis, Debye):
    X=             -9.1309    Y=             -4.1790    Z=             -2.4209  Tot=             10.3294
 Quadrupole moment (field-independent basis, Debye-Ang):
   XX=            -86.3525   YY=           -140.5802   ZZ=           -135.3273
   XY=             13.7376   XZ=             37.0963   YZ=             -6.7326

 Normal termination of Gaussian 16 at Wed May 25 20:21:59 2022.
