 Gaussian 16, Revision C.01,
 Gaussian 16:  ES64L-G16RevC.01  3-Jul-2019

 -------------------------------------------------------------------
 # B3LYP/6-31G* guess=read geom=check nosymm integral(ultrafinegrid)
 -------------------------------------------------------------------

 ------------------------------------------------------
 Candidate Structure: Conf:607 Charge calc in gas phase
 ------------------------------------------------------
 Structure from the checkpoint file:  "conf-607.chk"
 Charge =  1 Multiplicity = 1

                          Input orientation:
 ---------------------------------------------------------------------
 Center     Atomic      Atomic             Coordinates (Angstroms)
 Number     Number       Type             X           Y           Z
 ---------------------------------------------------------------------
      1          7           0       -1.549979   -0.763226   -3.952638
      2          1           0       -2.118843   -0.918643   -4.783030
      3          1           0       -0.580262   -0.971335   -4.169845
      4          6           0       -1.713701    0.599714   -3.439766
      5          1           0       -0.730874    1.015887   -3.190342
      6          6           0       -2.429891    0.551096   -2.085405
      7          6           0       -2.427848    1.591785   -4.402600
      8          1           0       -2.553211    2.540314   -3.870608
      9          1           0       -1.739056    1.777276   -5.233529
     10          8           0       -2.806146    1.458936   -1.408787
     11          6           0       -3.756785    1.085801   -4.924477
     12          6           0       -3.825461    0.376418   -6.133387
     13          1           0       -2.927125    0.248898   -6.735011
     14          6           0       -4.942573    1.295811   -4.201726
     15          1           0       -4.918105    1.883129   -3.286730
     16          6           0       -5.041683   -0.129293   -6.599630
     17          1           0       -5.076426   -0.666158   -7.543185
     18          6           0       -6.158788    0.794368   -4.668699
     19          1           0       -7.070436    0.983621   -4.108673
     20          6           0       -6.210180    0.074117   -5.864986
     21          1           0       -7.158565   -0.307205   -6.231736
     22          7           0       -2.657533   -0.879543   -1.589030
     23          6           0       -2.216276   -1.106665   -0.169257
     24          1           0       -2.590364   -0.245018    0.394805
     25          6           0       -0.682122   -1.093859   -0.159867
     26          6           0       -2.939402   -2.408586    0.256804
     27          1           0       -2.247104   -3.255204    0.250663
     28          1           0       -3.329331   -2.306550    1.272842
     29          8           0       -0.080387   -0.736847   -1.173326
     30          6           0       -4.080489   -2.610838   -0.781610
     31          1           0       -3.871065   -3.477249   -1.415427
     32          1           0       -5.051567   -2.778886   -0.310427
     33          6           0       -4.098961   -1.328973   -1.623740
     34          1           0       -4.689597   -0.530849   -1.166808
     35          1           0       -4.410649   -1.457501   -2.661475
     36          7           0       -0.098758   -1.450173    1.000957
     37          1           0       -0.677342   -1.825424    1.742575
     38          6           0        1.347093   -1.614429    1.142707
     39          1           0        1.803522   -1.044227    0.328351
     40          6           0        1.794170   -3.068201    0.949851
     41          6           0        1.857463   -1.075418    2.494270
     42          1           0        2.913610   -1.353742    2.569149
     43          1           0        1.340818   -1.601645    3.310798
     44          8           0        2.949430   -3.411816    0.977447
     45          6           0        1.695385    0.440431    2.654447
     46          1           0        2.233629    0.941797    1.837508
     47          1           0        0.637170    0.718197    2.544505
     48          6           0        2.214009    0.952919    4.004372
     49          1           0        3.270466    0.670490    4.122232
     50          1           0        1.668351    0.451052    4.816974
     51          6           0        2.074686    2.478874    4.183967
     52          1           0        1.017590    2.760259    4.080643
     53          1           0        2.359539    2.737749    5.210528
     54          7           0        2.849641    3.333551    3.285863
     55          1           0        2.600985    3.168391    2.312835
     56          1           0        3.844937    3.134802    3.373687
     57          8           0        0.761087   -3.928361    0.762919
     58          1           0        1.162378   -4.814823    0.671372
     59          1           0       -2.094049   -1.420638   -2.293677
 ---------------------------------------------------------------------

 SCF Done:  E(RB3LYP) =  -1300.50724822     A.U. after    2 cycles

 Alpha  occ. eigenvalues --  -19.31764 -19.30544 -19.26061 -19.24210 -14.57624
 Alpha  occ. eigenvalues --  -14.49997 -14.47032 -14.37551 -10.46695 -10.43440
 Alpha  occ. eigenvalues --  -10.42531 -10.39476 -10.38367 -10.37597 -10.35295
 Alpha  occ. eigenvalues --  -10.34340 -10.33936 -10.31738 -10.30801 -10.29598
 Alpha  occ. eigenvalues --  -10.29530 -10.29333 -10.29246 -10.29178 -10.29018
 Alpha  occ. eigenvalues --  -10.27440 -10.27277 -10.25677  -1.23379  -1.21103
 Alpha  occ. eigenvalues --   -1.18136  -1.13295  -1.12109  -1.06476  -1.04131
 Alpha  occ. eigenvalues --   -0.96062  -0.94695  -0.94387  -0.91930  -0.89808
 Alpha  occ. eigenvalues --   -0.89446  -0.85185  -0.84808  -0.84699  -0.80934
 Alpha  occ. eigenvalues --   -0.78290  -0.77335  -0.75393  -0.73760  -0.73381
 Alpha  occ. eigenvalues --   -0.72257  -0.71613  -0.70957  -0.68967  -0.68083
 Alpha  occ. eigenvalues --   -0.66020  -0.65600  -0.64424  -0.63308  -0.62710
 Alpha  occ. eigenvalues --   -0.61712  -0.61244  -0.59598  -0.59164  -0.58823
 Alpha  occ. eigenvalues --   -0.58635  -0.57704  -0.56808  -0.56565  -0.55838
 Alpha  occ. eigenvalues --   -0.55652  -0.55368  -0.55290  -0.54855  -0.53898
 Alpha  occ. eigenvalues --   -0.53331  -0.52480  -0.52256  -0.51648  -0.50960
 Alpha  occ. eigenvalues --   -0.50806  -0.50707  -0.50158  -0.49829  -0.49582
 Alpha  occ. eigenvalues --   -0.49183  -0.48187  -0.47974  -0.46326  -0.46272
 Alpha  occ. eigenvalues --   -0.44846  -0.44304  -0.44262  -0.44005  -0.43137
 Alpha  occ. eigenvalues --   -0.42135  -0.41754  -0.40755  -0.40429  -0.40100
 Alpha  occ. eigenvalues --   -0.39340  -0.36625  -0.35533  -0.35063  -0.29493
 Alpha virt. eigenvalues --   -0.18179  -0.11978  -0.11000  -0.10949  -0.09512
 Alpha virt. eigenvalues --   -0.07009  -0.05638  -0.04685  -0.03581  -0.02342
 Alpha virt. eigenvalues --   -0.01761  -0.00930  -0.00618  -0.00043   0.00226

 Mulliken charges:
               1
     1  N   -0.791341
     2  H    0.346207
     3  H    0.358161
     4  C   -0.051384
     5  H    0.229939
     6  C    0.620211
     7  C   -0.380057
     8  H    0.198579
     9  H    0.183833
    10  O   -0.390129
    11  C    0.147543
    12  C   -0.207895
    13  H    0.144103
    14  C   -0.207098
    15  H    0.150355
    16  C   -0.124943
    17  H    0.160677
    18  C   -0.132269
    19  H    0.155836
    20  C   -0.128028
    21  H    0.160850
    22  N   -0.582337
    23  C   -0.079447
    24  H    0.233596
    25  C    0.639099
    26  C   -0.325842
    27  H    0.202320
    28  H    0.192061
    29  O   -0.528958
    30  C   -0.303576
    31  H    0.191879
    32  H    0.203718
    33  C   -0.172901
    34  H    0.214377
    35  H    0.221036
    36  N   -0.591421
    37  H    0.350190
    38  C   -0.073192
    39  H    0.221215
    40  C    0.599786
    41  C   -0.286677
    42  H    0.195470
    43  H    0.143908
    44  O   -0.431138
    45  C   -0.258650
    46  H    0.133346
    47  H    0.127465
    48  C   -0.264328
    49  H    0.139702
    50  H    0.133350
    51  C   -0.145671
    52  H    0.138410
    53  H    0.158352
    54  N   -0.700905
    55  H    0.293458
    56  H    0.300589
    57  O   -0.583572
    58  H    0.428143
    59  H    0.423997
 Sum of Mulliken charges =   1.00000

 Dipole moment (field-independent basis, Debye):
    X=            -12.3993    Y=             -7.2510    Z=             -7.7592  Tot=             16.3256
 Quadrupole moment (field-independent basis, Debye-Ang):
   XX=           -109.2435   YY=           -153.0767   ZZ=           -103.4928
   XY=             18.9116   XZ=             33.8270   YZ=             -3.4116

 Normal termination of Gaussian 16 at Wed May 25 20:22:10 2022.
