 Gaussian 16, Revision C.01,
 Gaussian 16:  ES64L-G16RevC.01  3-Jul-2019

 -------------------------------------------------------------------
 # B3LYP/6-31G* guess=read geom=check nosymm integral(ultrafinegrid)
 -------------------------------------------------------------------

 ------------------------------------------------------
 Candidate Structure: Conf:418 Charge calc in gas phase
 ------------------------------------------------------
 Structure from the checkpoint file:  "conf-418.chk"
 Charge =  1 Multiplicity = 1

                          Input orientation:
 ---------------------------------------------------------------------
 Center     Atomic      Atomic             Coordinates (Angstroms)
 Number     Number       Type             X           Y           Z
 ---------------------------------------------------------------------
      1          7           0       -7.074619    2.023035   -0.189580
      2          1           0       -7.284741    1.233687    0.417513
      3          1           0       -7.542565    1.869480   -1.079124
      4          6           0       -5.653357    2.212779   -0.335255
      5          1           0       -5.472372    3.002702   -1.075323
      6          6           0       -4.912723    0.959583   -0.787531
      7          6           0       -5.012078    2.675479    1.023866
      8          1           0       -5.460458    2.051307    1.806612
      9          1           0       -3.935959    2.462366    1.031480
     10          8           0       -5.227745   -0.184288   -0.662195
     11          6           0       -5.220530    4.149546    1.293949
     12          6           0       -4.152406    5.041503    1.126578
     13          1           0       -3.174537    4.664522    0.831820
     14          6           0       -6.466970    4.646523    1.698978
     15          1           0       -7.301864    3.965159    1.827392
     16          6           0       -4.324912    6.406956    1.357165
     17          1           0       -3.486167    7.085992    1.232694
     18          6           0       -6.638305    6.011546    1.928614
     19          1           0       -7.607349    6.385377    2.246651
     20          6           0       -5.569806    6.894469    1.757354
     21          1           0       -5.705498    7.956192    1.942016
     22          7           0       -3.547027    1.252115   -1.475101
     23          6           0       -2.475212    0.213097   -1.205653
     24          1           0       -2.947778   -0.606299   -0.659226
     25          6           0       -1.416453    0.945546   -0.357611
     26          6           0       -1.982555   -0.246049   -2.597532
     27          1           0       -1.104573    0.335434   -2.899325
     28          1           0       -1.700087   -1.301812   -2.590163
     29          8           0       -1.544069    2.160672   -0.165562
     30          6           0       -3.177311    0.038167   -3.519948
     31          1           0       -2.894305    0.111288   -4.573220
     32          1           0       -3.937628   -0.743986   -3.424307
     33          6           0       -3.713954    1.366820   -2.993905
     34          1           0       -4.760933    1.566588   -3.229930
     35          1           0       -3.107657    2.217567   -3.314683
     36          7           0       -0.402183    0.207014    0.109724
     37          1           0       -0.322600   -0.761173   -0.177342
     38          6           0        0.756044    0.808888    0.781130
     39          1           0        0.382141    1.558746    1.482458
     40          6           0        1.664419    1.554040   -0.200864
     41          6           0        1.530572   -0.287141    1.547715
     42          1           0        1.990044   -0.974628    0.822282
     43          1           0        0.786351   -0.864257    2.109335
     44          8           0        2.418549    2.437175    0.121347
     45          6           0        2.603050    0.256738    2.504944
     46          1           0        3.299867    0.892870    1.949780
     47          1           0        2.119537    0.908304    3.246293
     48          6           0        3.389899   -0.847979    3.231896
     49          1           0        4.205144   -0.372059    3.793121
     50          1           0        3.872186   -1.506304    2.493487
     51          6           0        2.559034   -1.701194    4.209333
     52          1           0        2.045393   -1.038225    4.919153
     53          1           0        1.769499   -2.238887    3.667376
     54          7           0        3.299183   -2.693604    4.986316
     55          1           0        4.019116   -2.236180    5.544017
     56          1           0        3.787548   -3.336472    4.364300
     57          8           0        1.568063    1.074674   -1.467934
     58          1           0        2.221101    1.574364   -1.995958
     59          1           0       -3.135032    2.126870   -1.077333
 ---------------------------------------------------------------------

 SCF Done:  E(RB3LYP) =  -1300.49198490     A.U. after    1 cycles

 Alpha  occ. eigenvalues --  -19.33136 -19.30812 -19.27897 -19.24696 -14.59172
 Alpha  occ. eigenvalues --  -14.51261 -14.44767 -14.37385 -10.47540 -10.44707
 Alpha  occ. eigenvalues --  -10.42923 -10.40401 -10.39975 -10.37728 -10.36070
 Alpha  occ. eigenvalues --  -10.35082 -10.34665 -10.31790 -10.30248 -10.28648
 Alpha  occ. eigenvalues --  -10.27563 -10.27387 -10.27229 -10.26937 -10.26888
 Alpha  occ. eigenvalues --  -10.26737 -10.26683 -10.25706  -1.24570  -1.21476
 Alpha  occ. eigenvalues --   -1.19859  -1.13848  -1.12501  -1.07694  -1.02971
 Alpha  occ. eigenvalues --   -0.96103  -0.94380  -0.93927  -0.93035  -0.90466
 Alpha  occ. eigenvalues --   -0.88961  -0.85088  -0.84097  -0.82379  -0.79871
 Alpha  occ. eigenvalues --   -0.78146  -0.77448  -0.76513  -0.74817  -0.74220
 Alpha  occ. eigenvalues --   -0.72459  -0.71528  -0.69778  -0.68652  -0.67802
 Alpha  occ. eigenvalues --   -0.66692  -0.65814  -0.64919  -0.64044  -0.62669
 Alpha  occ. eigenvalues --   -0.62326  -0.61363  -0.60259  -0.59159  -0.58994
 Alpha  occ. eigenvalues --   -0.58570  -0.57753  -0.57488  -0.56936  -0.56420
 Alpha  occ. eigenvalues --   -0.56099  -0.55274  -0.54876  -0.54111  -0.53660
 Alpha  occ. eigenvalues --   -0.53475  -0.52888  -0.51826  -0.51463  -0.51215
 Alpha  occ. eigenvalues --   -0.50335  -0.49994  -0.49889  -0.49767  -0.49376
 Alpha  occ. eigenvalues --   -0.48804  -0.48565  -0.48169  -0.46800  -0.45400
 Alpha  occ. eigenvalues --   -0.44455  -0.43971  -0.43763  -0.42653  -0.42540
 Alpha  occ. eigenvalues --   -0.42368  -0.42132  -0.41862  -0.41054  -0.40332
 Alpha  occ. eigenvalues --   -0.37360  -0.37084  -0.32937  -0.32733  -0.29422
 Alpha virt. eigenvalues --   -0.18888  -0.13214  -0.10076  -0.09010  -0.08317
 Alpha virt. eigenvalues --   -0.07804  -0.07063  -0.06078  -0.04705  -0.04338
 Alpha virt. eigenvalues --   -0.02999  -0.02569  -0.01687  -0.01208   0.00412

 Mulliken charges:
               1
     1  N   -0.674398
     2  H    0.331092
     3  H    0.326719
     4  C   -0.071064
     5  H    0.184014
     6  C    0.543233
     7  C   -0.389314
     8  H    0.183130
     9  H    0.164517
    10  O   -0.363260
    11  C    0.164102
    12  C   -0.201981
    13  H    0.135416
    14  C   -0.157957
    15  H    0.148035
    16  C   -0.127201
    17  H    0.148203
    18  C   -0.130554
    19  H    0.151726
    20  C   -0.123215
    21  H    0.152638
    22  N   -0.603346
    23  C   -0.087344
    24  H    0.234911
    25  C    0.655199
    26  C   -0.311249
    27  H    0.198710
    28  H    0.197513
    29  O   -0.528332
    30  C   -0.290653
    31  H    0.208521
    32  H    0.198499
    33  C   -0.171714
    34  H    0.212145
    35  H    0.219271
    36  N   -0.604127
    37  H    0.354667
    38  C   -0.030631
    39  H    0.216045
    40  C    0.602311
    41  C   -0.314648
    42  H    0.154103
    43  H    0.169249
    44  O   -0.427845
    45  C   -0.276024
    46  H    0.175061
    47  H    0.148446
    48  C   -0.271757
    49  H    0.146988
    50  H    0.129433
    51  C   -0.141631
    52  H    0.145971
    53  H    0.132315
    54  N   -0.700177
    55  H    0.301717
    56  H    0.296939
    57  O   -0.583708
    58  H    0.428393
    59  H    0.422900
 Sum of Mulliken charges =   1.00000

 Dipole moment (field-independent basis, Debye):
    X=            -12.7175    Y=              3.7524    Z=             -7.2646  Tot=             15.1192
 Quadrupole moment (field-independent basis, Debye-Ang):
   XX=            -77.6662   YY=           -148.2794   ZZ=           -138.4906
   XY=            -32.4698   XZ=             24.9840   YZ=             -0.2291

 Normal termination of Gaussian 16 at Wed May 25 20:21:57 2022.
