 Gaussian 16, Revision C.01,
 Gaussian 16:  ES64L-G16RevC.01  3-Jul-2019

 -------------------------------------------------------------------
 # B3LYP/6-31G* guess=read geom=check nosymm integral(ultrafinegrid)
 -------------------------------------------------------------------

 ------------------------------------------------------
 Candidate Structure: Conf:367 Charge calc in gas phase
 ------------------------------------------------------
 Structure from the checkpoint file:  "conf-367.chk"
 Charge =  1 Multiplicity = 1

                          Input orientation:
 ---------------------------------------------------------------------
 Center     Atomic      Atomic             Coordinates (Angstroms)
 Number     Number       Type             X           Y           Z
 ---------------------------------------------------------------------
      1          7           0       -3.364462    4.774529    1.626757
      2          1           0       -4.356140    4.975805    1.732240
      3          1           0       -3.039661    5.137602    0.734551
      4          6           0       -3.060030    3.367776    1.837171
      5          1           0       -2.002311    3.216994    1.599080
      6          6           0       -3.915697    2.504440    0.900783
      7          6           0       -3.319135    2.965779    3.307011
      8          1           0       -2.745415    3.670181    3.917207
      9          1           0       -4.379597    3.126434    3.531076
     10          8           0       -5.100427    2.360512    0.934056
     11          6           0       -2.923509    1.533122    3.600382
     12          6           0       -3.876065    0.502140    3.589561
     13          1           0       -4.923762    0.741619    3.424178
     14          6           0       -1.581406    1.205009    3.847771
     15          1           0       -0.834479    1.995147    3.887998
     16          6           0       -3.495449   -0.824700    3.809534
     17          1           0       -4.248485   -1.607758    3.814929
     18          6           0       -1.199523   -0.119313    4.070993
     19          1           0       -0.160308   -0.351914    4.287969
     20          6           0       -2.155329   -1.139201    4.046710
     21          1           0       -1.861993   -2.167700    4.237182
     22          7           0       -3.148286    1.840768   -0.270641
     23          6           0       -2.352696    0.602552    0.160343
     24          1           0       -2.563762    0.381130    1.209512
     25          6           0       -0.874969    1.015639   -0.027079
     26          6           0       -2.818268   -0.515638   -0.799282
     27          1           0       -2.006739   -1.213743   -1.020749
     28          1           0       -3.636257   -1.076522   -0.336497
     29          8           0       -0.623673    2.113380   -0.540352
     30          6           0       -3.306315    0.237828   -2.046507
     31          1           0       -2.460743    0.540170   -2.673535
     32          1           0       -3.985933   -0.358504   -2.660157
     33          6           0       -4.009672    1.457799   -1.458292
     34          1           0       -4.999328    1.222326   -1.063360
     35          1           0       -4.083341    2.319379   -2.124504
     36          7           0        0.048481    0.138562    0.382620
     37          1           0       -0.253426   -0.752787    0.757189
     38          6           0        1.477133    0.302337    0.095071
     39          1           0        1.714869    1.364668    0.186618
     40          6           0        1.817118   -0.092215   -1.345377
     41          6           0        2.304575   -0.512833    1.114423
     42          1           0        2.087090   -1.582128    0.976875
     43          1           0        1.937220   -0.239883    2.112562
     44          8           0        2.790254    0.302365   -1.936417
     45          6           0        3.819210   -0.276585    1.044688
     46          1           0        4.196249   -0.555320    0.053857
     47          1           0        4.018206    0.797638    1.157784
     48          6           0        4.579048   -1.058559    2.124216
     49          1           0        4.357871   -2.131417    2.022499
     50          1           0        4.216449   -0.760658    3.120058
     51          6           0        6.109264   -0.864975    2.065661
     52          1           0        6.570678   -1.522856    2.811936
     53          1           0        6.478487   -1.203858    1.088873
     54          7           0        6.623783    0.484104    2.286937
     55          1           0        6.306307    0.852862    3.181641
     56          1           0        6.305836    1.127146    1.565518
     57          8           0        0.927039   -0.975169   -1.867578
     58          1           0        1.260367   -1.203190   -2.757564
     59          1           0       -2.366502    2.473077   -0.577401
 ---------------------------------------------------------------------

 SCF Done:  E(RB3LYP) =  -1300.49696478     A.U. after    2 cycles

 Alpha  occ. eigenvalues --  -19.32497 -19.31149 -19.28167 -19.25013 -14.58707
 Alpha  occ. eigenvalues --  -14.51412 -14.45993 -14.37440 -10.47280 -10.44783
 Alpha  occ. eigenvalues --  -10.43235 -10.40508 -10.38206 -10.37778 -10.36381
 Alpha  occ. eigenvalues --  -10.34766 -10.33938 -10.31509 -10.31469 -10.30696
 Alpha  occ. eigenvalues --  -10.30480 -10.30422 -10.30386 -10.30297 -10.30221
 Alpha  occ. eigenvalues --  -10.27521 -10.27210 -10.25967  -1.24007  -1.21777
 Alpha  occ. eigenvalues --   -1.20090  -1.13377  -1.12830  -1.07929  -1.03491
 Alpha  occ. eigenvalues --   -0.97066  -0.95542  -0.94352  -0.92762  -0.90520
 Alpha  occ. eigenvalues --   -0.90095  -0.85735  -0.85298  -0.84823  -0.80732
 Alpha  occ. eigenvalues --   -0.78725  -0.77687  -0.76764  -0.74697  -0.73785
 Alpha  occ. eigenvalues --   -0.72762  -0.71893  -0.71443  -0.69884  -0.68761
 Alpha  occ. eigenvalues --   -0.67336  -0.66205  -0.65108  -0.63728  -0.62907
 Alpha  occ. eigenvalues --   -0.62795  -0.61186  -0.60924  -0.60182  -0.59429
 Alpha  occ. eigenvalues --   -0.58862  -0.58480  -0.57975  -0.57018  -0.56778
 Alpha  occ. eigenvalues --   -0.56388  -0.56068  -0.55770  -0.54967  -0.54215
 Alpha  occ. eigenvalues --   -0.53799  -0.53056  -0.52424  -0.51665  -0.51516
 Alpha  occ. eigenvalues --   -0.51386  -0.51098  -0.50791  -0.50387  -0.49763
 Alpha  occ. eigenvalues --   -0.49333  -0.48985  -0.48877  -0.46917  -0.46785
 Alpha  occ. eigenvalues --   -0.45718  -0.45177  -0.44839  -0.44651  -0.43793
 Alpha  occ. eigenvalues --   -0.42880  -0.42579  -0.42035  -0.41131  -0.40587
 Alpha  occ. eigenvalues --   -0.37659  -0.37575  -0.36486  -0.36002  -0.29336
 Alpha virt. eigenvalues --   -0.18766  -0.13698  -0.12006  -0.11620  -0.10444
 Alpha virt. eigenvalues --   -0.07580  -0.06280  -0.05690  -0.04064  -0.03582
 Alpha virt. eigenvalues --   -0.02656  -0.02460  -0.01724  -0.01114  -0.00223

 Mulliken charges:
               1
     1  N   -0.685761
     2  H    0.337765
     3  H    0.328719
     4  C   -0.062240
     5  H    0.176284
     6  C    0.570032
     7  C   -0.348700
     8  H    0.200728
     9  H    0.181497
    10  O   -0.378349
    11  C    0.132796
    12  C   -0.204066
    13  H    0.158293
    14  C   -0.191022
    15  H    0.148559
    16  C   -0.133907
    17  H    0.161234
    18  C   -0.142641
    19  H    0.154901
    20  C   -0.141037
    21  H    0.159432
    22  N   -0.610237
    23  C   -0.114871
    24  H    0.239501
    25  C    0.655430
    26  C   -0.299241
    27  H    0.203027
    28  H    0.193808
    29  O   -0.532149
    30  C   -0.309446
    31  H    0.192109
    32  H    0.206653
    33  C   -0.157034
    34  H    0.230821
    35  H    0.211801
    36  N   -0.598137
    37  H    0.354904
    38  C   -0.041733
    39  H    0.216035
    40  C    0.602968
    41  C   -0.306736
    42  H    0.154221
    43  H    0.159484
    44  O   -0.426408
    45  C   -0.266697
    46  H    0.171140
    47  H    0.136568
    48  C   -0.266101
    49  H    0.133696
    50  H    0.124979
    51  C   -0.145732
    52  H    0.156111
    53  H    0.150737
    54  N   -0.700636
    55  H    0.295342
    56  H    0.300349
    57  O   -0.583939
    58  H    0.429658
    59  H    0.417240
 Sum of Mulliken charges =   1.00000

 Dipole moment (field-independent basis, Debye):
    X=            -12.1330    Y=              2.9450    Z=              1.9523  Tot=             12.6370
 Quadrupole moment (field-independent basis, Debye-Ang):
   XX=           -134.2287   YY=           -136.9823   ZZ=           -141.5905
   XY=            -24.0941   XZ=              5.1068   YZ=              2.9186

 Normal termination of Gaussian 16 at Wed May 25 20:22:09 2022.
