 Gaussian 16, Revision C.01,
 Gaussian 16:  ES64L-G16RevC.01  3-Jul-2019

 -------------------------------------------------------------------
 # B3LYP/6-31G* guess=read geom=check nosymm integral(ultrafinegrid)
 -------------------------------------------------------------------

 ------------------------------------------------------
 Candidate Structure: Conf:591 Charge calc in gas phase
 ------------------------------------------------------
 Structure from the checkpoint file:  "conf-591.chk"
 Charge =  1 Multiplicity = 1

                          Input orientation:
 ---------------------------------------------------------------------
 Center     Atomic      Atomic             Coordinates (Angstroms)
 Number     Number       Type             X           Y           Z
 ---------------------------------------------------------------------
      1          7           0       -6.620366   -0.819879    1.791258
      2          1           0       -6.552957   -1.682335    1.254910
      3          1           0       -7.268277   -0.202284    1.308346
      4          6           0       -5.321693   -0.220682    1.966554
      5          1           0       -5.435136    0.703683    2.550388
      6          6           0       -4.656527    0.156833    0.641313
      7          6           0       -4.382153   -1.159830    2.799460
      8          1           0       -3.437993   -0.644914    3.015217
      9          1           0       -4.901769   -1.285590    3.754299
     10          8           0       -4.916662   -0.233785   -0.469363
     11          6           0       -4.105564   -2.502380    2.157743
     12          6           0       -5.030598   -3.552593    2.263533
     13          1           0       -5.940429   -3.410489    2.841147
     14          6           0       -2.915470   -2.721483    1.449690
     15          1           0       -2.163810   -1.935279    1.408234
     16          6           0       -4.780367   -4.782787    1.653626
     17          1           0       -5.503275   -5.587740    1.749206
     18          6           0       -2.663031   -3.952743    0.843348
     19          1           0       -1.730285   -4.112274    0.309457
     20          6           0       -3.598772   -4.984108    0.938014
     21          1           0       -3.401339   -5.944323    0.470683
     22          7           0       -3.514339    1.212655    0.776356
     23          6           0       -2.458908    1.132332   -0.310314
     24          1           0       -2.759586    0.334204   -0.992774
     25          6           0       -1.152078    0.784025    0.430508
     26          6           0       -2.462767    2.513421   -1.009332
     27          1           0       -1.663171    3.144386   -0.606266
     28          1           0       -2.301709    2.413720   -2.085717
     29          8           0       -1.179322    0.658617    1.660548
     30          6           0       -3.844144    3.097175   -0.675621
     31          1           0       -3.876406    4.186813   -0.755474
     32          1           0       -4.612170    2.684261   -1.337870
     33          6           0       -4.077118    2.635864    0.759776
     34          1           0       -5.121507    2.619969    1.076343
     35          1           0       -3.494564    3.213705    1.482019
     36          7           0       -0.054959    0.645542   -0.326209
     37          1           0       -0.108732    0.872871   -1.312057
     38          6           0        1.284704    0.487279    0.249937
     39          1           0        1.177242   -0.100150    1.163143
     40          6           0        1.891040    1.828349    0.669184
     41          6           0        2.190983   -0.255999   -0.760247
     42          1           0        2.255854    0.346766   -1.677764
     43          1           0        1.669184   -1.184835   -1.024164
     44          8           0        2.782564    1.937828    1.473301
     45          6           0        3.608030   -0.586643   -0.264247
     46          1           0        4.124945   -1.077251   -1.098936
     47          1           0        4.158872    0.338734   -0.058800
     48          6           0        3.662979   -1.496437    0.969419
     49          1           0        3.046403   -2.392747    0.796429
     50          1           0        3.233060   -0.974687    1.835068
     51          6           0        5.095691   -1.937323    1.342376
     52          1           0        5.704682   -1.046822    1.544411
     53          1           0        5.050726   -2.496006    2.284989
     54          7           0        5.820471   -2.759184    0.376442
     55          1           0        5.991296   -2.255054   -0.490453
     56          1           0        5.290353   -3.595758    0.138925
     57          8           0        1.348821    2.880172    0.002705
     58          1           0        1.838155    3.672184    0.300210
     59          1           0       -2.970836    1.032052    1.651264
 ---------------------------------------------------------------------

 SCF Done:  E(RB3LYP) =  -1300.49281506     A.U. after    1 cycles

 Alpha  occ. eigenvalues --  -19.33067 -19.31026 -19.27905 -19.24894 -14.59239
 Alpha  occ. eigenvalues --  -14.51265 -14.44391 -14.37248 -10.47649 -10.44733
 Alpha  occ. eigenvalues --  -10.43087 -10.40300 -10.40018 -10.37966 -10.36046
 Alpha  occ. eigenvalues --  -10.35059 -10.34689 -10.31990 -10.30385 -10.29964
 Alpha  occ. eigenvalues --  -10.28883 -10.28494 -10.28442 -10.28209 -10.28119
 Alpha  occ. eigenvalues --  -10.27235 -10.26960 -10.25599  -1.23728  -1.21642
 Alpha  occ. eigenvalues --   -1.19853  -1.13778  -1.12684  -1.07738  -1.02889
 Alpha  occ. eigenvalues --   -0.96045  -0.95183  -0.94136  -0.93022  -0.90439
 Alpha  occ. eigenvalues --   -0.89301  -0.84809  -0.84729  -0.83883  -0.80345
 Alpha  occ. eigenvalues --   -0.78711  -0.77822  -0.76467  -0.74777  -0.74238
 Alpha  occ. eigenvalues --   -0.72877  -0.71431  -0.70177  -0.69402  -0.68585
 Alpha  occ. eigenvalues --   -0.66540  -0.65640  -0.65172  -0.63949  -0.63053
 Alpha  occ. eigenvalues --   -0.62247  -0.61202  -0.60583  -0.59741  -0.59144
 Alpha  occ. eigenvalues --   -0.58618  -0.57604  -0.57276  -0.57016  -0.56339
 Alpha  occ. eigenvalues --   -0.55592  -0.55540  -0.55203  -0.54830  -0.53990
 Alpha  occ. eigenvalues --   -0.53552  -0.53235  -0.51834  -0.51576  -0.51370
 Alpha  occ. eigenvalues --   -0.51176  -0.50974  -0.50080  -0.49895  -0.49727
 Alpha  occ. eigenvalues --   -0.49647  -0.49473  -0.48611  -0.46951  -0.45511
 Alpha  occ. eigenvalues --   -0.44782  -0.44452  -0.43706  -0.43437  -0.43343
 Alpha  occ. eigenvalues --   -0.42643  -0.42340  -0.41523  -0.41050  -0.40011
 Alpha  occ. eigenvalues --   -0.37461  -0.37177  -0.34520  -0.34144  -0.29141
 Alpha virt. eigenvalues --   -0.19146  -0.13193  -0.10358  -0.10248  -0.09807
 Alpha virt. eigenvalues --   -0.08116  -0.07120  -0.06224  -0.04777  -0.04325
 Alpha virt. eigenvalues --   -0.02803  -0.02628  -0.01415  -0.01350  -0.00103

 Mulliken charges:
               1
     1  N   -0.680046
     2  H    0.337989
     3  H    0.324575
     4  C   -0.078837
     5  H    0.177747
     6  C    0.560504
     7  C   -0.386492
     8  H    0.174896
     9  H    0.210604
    10  O   -0.364575
    11  C    0.155621
    12  C   -0.197242
    13  H    0.160454
    14  C   -0.206484
    15  H    0.125394
    16  C   -0.124248
    17  H    0.159137
    18  C   -0.124025
    19  H    0.142423
    20  C   -0.123203
    21  H    0.157032
    22  N   -0.609849
    23  C   -0.082012
    24  H    0.241906
    25  C    0.651829
    26  C   -0.315795
    27  H    0.198247
    28  H    0.197866
    29  O   -0.532451
    30  C   -0.291427
    31  H    0.208581
    32  H    0.198232
    33  C   -0.175664
    34  H    0.212085
    35  H    0.218804
    36  N   -0.595432
    37  H    0.354124
    38  C   -0.050125
    39  H    0.222520
    40  C    0.605883
    41  C   -0.302873
    42  H    0.149901
    43  H    0.163575
    44  O   -0.427939
    45  C   -0.264986
    46  H    0.139250
    47  H    0.166476
    48  C   -0.272822
    49  H    0.120243
    50  H    0.145853
    51  C   -0.146712
    52  H    0.154158
    53  H    0.154243
    54  N   -0.700743
    55  H    0.299751
    56  H    0.295269
    57  O   -0.585342
    58  H    0.429159
    59  H    0.424995
 Sum of Mulliken charges =   1.00000

 Dipole moment (field-independent basis, Debye):
    X=            -14.6096    Y=              5.2829    Z=             -0.9312  Tot=             15.5633
 Quadrupole moment (field-independent basis, Debye-Ang):
   XX=           -102.9762   YY=           -121.6864   ZZ=           -160.2916
   XY=             -9.4300   XZ=            -22.8903   YZ=             -1.2034

 Normal termination of Gaussian 16 at Wed May 25 20:21:59 2022.
