 Gaussian 16, Revision C.01,
 Gaussian 16:  ES64L-G16RevC.01  3-Jul-2019

 -------------------------------------------------------------------
 # B3LYP/6-31G* guess=read geom=check nosymm integral(ultrafinegrid)
 -------------------------------------------------------------------

 -----------------------------------------------------
 Candidate Structure: Conf:34 Charge calc in gas phase
 -----------------------------------------------------
 Structure from the checkpoint file:  "conf-34.chk"
 Charge =  1 Multiplicity = 1

                          Input orientation:
 ---------------------------------------------------------------------
 Center     Atomic      Atomic             Coordinates (Angstroms)
 Number     Number       Type             X           Y           Z
 ---------------------------------------------------------------------
      1          7           0       -3.404033    4.263142    0.800355
      2          1           0       -2.704618    5.000848    0.823416
      3          1           0       -4.311668    4.724027    0.856509
      4          6           0       -3.218135    3.356208    1.936143
      5          1           0       -2.131842    3.242510    2.070953
      6          6           0       -3.662308    1.962327    1.510213
      7          6           0       -3.841448    3.780799    3.284160
      8          1           0       -4.923619    3.905857    3.151270
      9          1           0       -3.706297    2.964115    4.002076
     10          8           0       -4.134582    1.077366    2.154151
     11          6           0       -3.211952    5.060924    3.795298
     12          6           0       -1.919119    5.040259    4.337474
     13          1           0       -1.378318    4.101990    4.441455
     14          6           0       -3.884677    6.285346    3.702614
     15          1           0       -4.896297    6.318145    3.302390
     16          6           0       -1.308363    6.215494    4.772471
     17          1           0       -0.305913    6.163688    5.186378
     18          6           0       -3.278673    7.464245    4.143694
     19          1           0       -3.817494    8.405081    4.075494
     20          6           0       -1.988815    7.431921    4.675691
     21          1           0       -1.519313    8.348846    5.020186
     22          7           0       -3.389747    1.705755    0.012494
     23          6           0       -2.495169    0.514121   -0.235055
     24          1           0       -2.762526   -0.248183    0.503214
     25          6           0       -1.044395    0.997929   -0.065224
     26          6           0       -2.890471    0.070116   -1.652523
     27          1           0       -2.406925    0.717123   -2.393741
     28          1           0       -2.585573   -0.959942   -1.853889
     29          8           0       -0.815752    2.208823   -0.022945
     30          6           0       -4.415853    0.255052   -1.659541
     31          1           0       -4.821306    0.360592   -2.668657
     32          1           0       -4.904796   -0.604053   -1.190226
     33          6           0       -4.660789    1.522780   -0.820612
     34          1           0       -5.509813    1.426930   -0.142998
     35          1           0       -4.774641    2.430426   -1.415603
     36          7           0       -0.119624    0.028400    0.021083
     37          1           0       -0.370747   -0.939967   -0.160484
     38          6           0        1.321858    0.285062    0.012524
     39          1           0        1.492096    1.255865   -0.463189
     40          6           0        1.940056   -0.817329   -0.844592
     41          6           0        1.954404    0.289131    1.426009
     42          1           0        3.031335    0.448449    1.298975
     43          1           0        1.831045   -0.706948    1.871842
     44          8           0        1.339954   -1.813023   -1.192609
     45          6           0        1.371298    1.354726    2.361201
     46          1           0        1.443533    2.336674    1.875377
     47          1           0        0.299608    1.159233    2.508783
     48          6           0        2.059370    1.390908    3.733060
     49          1           0        3.118981    1.657737    3.610929
     50          1           0        2.041766    0.384528    4.175486
     51          6           0        1.390724    2.368054    4.719614
     52          1           0        0.337638    2.077161    4.845469
     53          1           0        1.853553    2.259314    5.706610
     54          7           0        1.424076    3.794252    4.378023
     55          1           0        1.091767    3.948230    3.427687
     56          1           0        2.383127    4.137774    4.403564
     57          8           0        3.223590   -0.566083   -1.129419
     58          1           0        3.569051   -1.322449   -1.642845
     59          1           0       -2.893014    2.567586   -0.290953
 ---------------------------------------------------------------------

 SCF Done:  E(RB3LYP) =  -1300.51202351     A.U. after    1 cycles

 Alpha  occ. eigenvalues --  -19.32455 -19.30982 -19.26100 -19.25637 -14.57905
 Alpha  occ. eigenvalues --  -14.49769 -14.46479 -14.39662 -10.47076 -10.43665
 Alpha  occ. eigenvalues --  -10.43484 -10.39533 -10.38502 -10.37290 -10.35753
 Alpha  occ. eigenvalues --  -10.34263 -10.33664 -10.30695 -10.29710 -10.28911
 Alpha  occ. eigenvalues --  -10.28676 -10.28251 -10.27473 -10.27100 -10.27014
 Alpha  occ. eigenvalues --  -10.26805 -10.26734 -10.26641  -1.23883  -1.22131
 Alpha  occ. eigenvalues --   -1.18229  -1.13380  -1.12983  -1.06296  -1.03791
 Alpha  occ. eigenvalues --   -0.96213  -0.95062  -0.93966  -0.92163  -0.89909
 Alpha  occ. eigenvalues --   -0.88768  -0.85829  -0.84208  -0.82459  -0.79954
 Alpha  occ. eigenvalues --   -0.79004  -0.77194  -0.75244  -0.74195  -0.73397
 Alpha  occ. eigenvalues --   -0.72414  -0.71156  -0.69327  -0.68689  -0.67283
 Alpha  occ. eigenvalues --   -0.67060  -0.65460  -0.64332  -0.63010  -0.62168
 Alpha  occ. eigenvalues --   -0.60921  -0.60387  -0.59723  -0.59273  -0.58953
 Alpha  occ. eigenvalues --   -0.58550  -0.57928  -0.57573  -0.57188  -0.56321
 Alpha  occ. eigenvalues --   -0.56096  -0.55649  -0.54504  -0.53980  -0.53686
 Alpha  occ. eigenvalues --   -0.53495  -0.52122  -0.51781  -0.51629  -0.51317
 Alpha  occ. eigenvalues --   -0.50576  -0.50248  -0.49963  -0.49479  -0.49258
 Alpha  occ. eigenvalues --   -0.49153  -0.48501  -0.47751  -0.47238  -0.45274
 Alpha  occ. eigenvalues --   -0.44455  -0.44305  -0.43979  -0.43118  -0.42575
 Alpha  occ. eigenvalues --   -0.42427  -0.42177  -0.41935  -0.40307  -0.39339
 Alpha  occ. eigenvalues --   -0.39281  -0.38708  -0.33122  -0.32828  -0.31664
 Alpha virt. eigenvalues --   -0.18740  -0.12167  -0.10340  -0.09028  -0.08356
 Alpha virt. eigenvalues --   -0.06853  -0.05555  -0.04333  -0.03299  -0.03046
 Alpha virt. eigenvalues --   -0.02654  -0.01978  -0.00622  -0.00150   0.00359

 Mulliken charges:
               1
     1  N   -0.762730
     2  H    0.358517
     3  H    0.332642
     4  C   -0.089555
     5  H    0.224817
     6  C    0.594926
     7  C   -0.367754
     8  H    0.162213
     9  H    0.188777
    10  O   -0.370922
    11  C    0.167160
    12  C   -0.199987
    13  H    0.142671
    14  C   -0.197502
    15  H    0.125490
    16  C   -0.132442
    17  H    0.167170
    18  C   -0.125754
    19  H    0.150295
    20  C   -0.127614
    21  H    0.152215
    22  N   -0.580661
    23  C   -0.092871
    24  H    0.220900
    25  C    0.642545
    26  C   -0.303070
    27  H    0.190208
    28  H    0.204381
    29  O   -0.531752
    30  C   -0.302782
    31  H    0.203697
    32  H    0.193951
    33  C   -0.155578
    34  H    0.217334
    35  H    0.215210
    36  N   -0.601642
    37  H    0.363544
    38  C   -0.061925
    39  H    0.209952
    40  C    0.594876
    41  C   -0.267644
    42  H    0.181646
    43  H    0.155978
    44  O   -0.463768
    45  C   -0.261755
    46  H    0.142753
    47  H    0.121879
    48  C   -0.266254
    49  H    0.142129
    50  H    0.142090
    51  C   -0.152084
    52  H    0.134258
    53  H    0.163676
    54  N   -0.712088
    55  H    0.295967
    56  H    0.308373
    57  O   -0.550061
    58  H    0.435578
    59  H    0.430381
 Sum of Mulliken charges =   1.00000

 Dipole moment (field-independent basis, Debye):
    X=             -9.6260    Y=              8.5107    Z=              0.7930  Tot=             12.8733
 Quadrupole moment (field-independent basis, Debye-Ang):
   XX=            -90.9636   YY=           -118.9111   ZZ=           -150.0671
   XY=            -32.3309   XZ=              8.4085   YZ=             16.7183

 Normal termination of Gaussian 16 at Wed May 25 20:21:56 2022.
