 Gaussian 16, Revision C.01,
 Gaussian 16:  ES64L-G16RevC.01  3-Jul-2019

 -------------------------------------------------------------------
 # B3LYP/6-31G* guess=read geom=check nosymm integral(ultrafinegrid)
 -------------------------------------------------------------------

 ------------------------------------------------------
 Candidate Structure: Conf:669 Charge calc in gas phase
 ------------------------------------------------------
 Structure from the checkpoint file:  "conf-669.chk"
 Charge =  1 Multiplicity = 1

                          Input orientation:
 ---------------------------------------------------------------------
 Center     Atomic      Atomic             Coordinates (Angstroms)
 Number     Number       Type             X           Y           Z
 ---------------------------------------------------------------------
      1          7           0       -4.581657   -3.700290    0.266899
      2          1           0       -4.262255   -4.018623   -0.645491
      3          1           0       -5.549612   -3.402763    0.175611
      4          6           0       -3.729772   -2.663748    0.792446
      5          1           0       -4.173891   -2.269960    1.715650
      6          6           0       -3.515443   -1.498272   -0.167208
      7          6           0       -2.310260   -3.238041    1.147351
      8          1           0       -2.019922   -3.885379    0.310897
      9          1           0       -1.572369   -2.428331    1.190280
     10          8           0       -3.594642   -1.483716   -1.357714
     11          6           0       -2.291053   -3.984604    2.463129
     12          6           0       -1.757072   -3.365522    3.603105
     13          1           0       -1.349296   -2.358581    3.530198
     14          6           0       -2.806479   -5.282870    2.571576
     15          1           0       -3.228550   -5.768625    1.697544
     16          6           0       -1.736220   -4.032427    4.829846
     17          1           0       -1.315287   -3.543424    5.703829
     18          6           0       -2.785710   -5.948043    3.797906
     19          1           0       -3.184596   -6.955858    3.869094
     20          6           0       -2.251406   -5.326220    4.928377
     21          1           0       -2.233104   -5.848627    5.880404
     22          7           0       -3.105512   -0.172281    0.533585
     23          6           0       -2.053259    0.630472   -0.211453
     24          1           0       -1.914356    0.157520   -1.186335
     25          6           0       -0.786023    0.537857    0.666242
     26          6           0       -2.648994    2.048452   -0.358684
     27          1           0       -2.342340    2.679847    0.482502
     28          1           0       -2.311314    2.528360   -1.280504
     29          8           0       -0.885624    0.020517    1.787396
     30          6           0       -4.165636    1.808476   -0.332995
     31          1           0       -4.734993    2.707677   -0.083824
     32          1           0       -4.518015    1.437181   -1.300857
     33          6           0       -4.326005    0.732596    0.738306
     34          1           0       -5.236816    0.136166    0.658213
     35          1           0       -4.252063    1.137988    1.750408
     36          7           0        0.334840    1.046234    0.144451
     37          1           0        0.298739    1.497350   -0.762242
     38          6           0        1.605200    1.143199    0.875990
     39          1           0        1.404770    0.834242    1.902902
     40          6           0        2.104455    2.586154    0.926504
     41          6           0        2.708281    0.247820    0.261339
     42          1           0        3.626263    0.452904    0.823547
     43          1           0        2.889618    0.578981   -0.770294
     44          8           0        2.936202    2.976840    1.704330
     45          6           0        2.407994   -1.258395    0.281121
     46          1           0        1.492438   -1.462418   -0.293378
     47          1           0        3.218611   -1.753966   -0.269194
     48          6           0        2.300322   -1.877187    1.681538
     49          1           0        1.431178   -1.465367    2.213933
     50          1           0        3.182893   -1.619682    2.280163
     51          6           0        2.177268   -3.405147    1.644554
     52          1           0        1.336139   -3.686402    0.979441
     53          1           0        3.081855   -3.823214    1.185673
     54          7           0        2.074800   -3.944113    3.000981
     55          1           0        2.191336   -4.955272    2.985407
     56          1           0        1.143265   -3.773925    3.377972
     57          8           0        1.553037    3.359043   -0.044893
     58          1           0        1.974401    4.238171    0.021397
     59          1           0       -2.637086   -0.383625    1.443717
 ---------------------------------------------------------------------

 SCF Done:  E(RB3LYP) =  -1300.49336059     A.U. after    1 cycles

 Alpha  occ. eigenvalues --  -19.33302 -19.30993 -19.27902 -19.24686 -14.59324
 Alpha  occ. eigenvalues --  -14.51387 -14.45029 -14.37729 -10.47750 -10.44909
 Alpha  occ. eigenvalues --  -10.43074 -10.40640 -10.40086 -10.38017 -10.35839
 Alpha  occ. eigenvalues --  -10.35266 -10.34750 -10.32154 -10.29615 -10.29295
 Alpha  occ. eigenvalues --  -10.28085 -10.28065 -10.27800 -10.27589 -10.27575
 Alpha  occ. eigenvalues --  -10.27372 -10.27317 -10.25897  -1.24752  -1.21576
 Alpha  occ. eigenvalues --   -1.19871  -1.13956  -1.12657  -1.07743  -1.03241
 Alpha  occ. eigenvalues --   -0.96272  -0.94725  -0.94528  -0.93099  -0.90401
 Alpha  occ. eigenvalues --   -0.89374  -0.85551  -0.84515  -0.83032  -0.80204
 Alpha  occ. eigenvalues --   -0.78856  -0.77440  -0.76661  -0.75085  -0.73702
 Alpha  occ. eigenvalues --   -0.73236  -0.71414  -0.69656  -0.69219  -0.68168
 Alpha  occ. eigenvalues --   -0.67009  -0.66583  -0.64727  -0.64227  -0.62887
 Alpha  occ. eigenvalues --   -0.62590  -0.61579  -0.59689  -0.59622  -0.59143
 Alpha  occ. eigenvalues --   -0.58635  -0.57929  -0.57647  -0.57100  -0.56424
 Alpha  occ. eigenvalues --   -0.56018  -0.55456  -0.55208  -0.54544  -0.54130
 Alpha  occ. eigenvalues --   -0.53379  -0.53242  -0.52492  -0.51902  -0.51272
 Alpha  occ. eigenvalues --   -0.51009  -0.50586  -0.50216  -0.50153  -0.49799
 Alpha  occ. eigenvalues --   -0.49629  -0.48992  -0.48951  -0.46839  -0.45628
 Alpha  occ. eigenvalues --   -0.44770  -0.44379  -0.43152  -0.42996  -0.42740
 Alpha  occ. eigenvalues --   -0.42598  -0.42022  -0.41752  -0.41205  -0.40714
 Alpha  occ. eigenvalues --   -0.37422  -0.37368  -0.33650  -0.33374  -0.30007
 Alpha virt. eigenvalues --   -0.19139  -0.13245  -0.09926  -0.09606  -0.08982
 Alpha virt. eigenvalues --   -0.08056  -0.07400  -0.06030  -0.04779  -0.04364
 Alpha virt. eigenvalues --   -0.03150  -0.02710  -0.01910  -0.01557  -0.00440

 Mulliken charges:
               1
     1  N   -0.675135
     2  H    0.331028
     3  H    0.327826
     4  C   -0.072138
     5  H    0.184198
     6  C    0.544649
     7  C   -0.392664
     8  H    0.182315
     9  H    0.167715
    10  O   -0.364039
    11  C    0.166029
    12  C   -0.217537
    13  H    0.143887
    14  C   -0.157315
    15  H    0.148661
    16  C   -0.131651
    17  H    0.153704
    18  C   -0.130623
    19  H    0.154465
    20  C   -0.123293
    21  H    0.155963
    22  N   -0.601139
    23  C   -0.086213
    24  H    0.231806
    25  C    0.647635
    26  C   -0.306456
    27  H    0.193593
    28  H    0.200939
    29  O   -0.529697
    30  C   -0.290165
    31  H    0.209363
    32  H    0.199768
    33  C   -0.171444
    34  H    0.212783
    35  H    0.219594
    36  N   -0.584327
    37  H    0.362230
    38  C   -0.083906
    39  H    0.229850
    40  C    0.600147
    41  C   -0.279411
    42  H    0.193834
    43  H    0.149012
    44  O   -0.424105
    45  C   -0.266390
    46  H    0.115815
    47  H    0.161873
    48  C   -0.262910
    49  H    0.136239
    50  H    0.164264
    51  C   -0.136610
    52  H    0.097968
    53  H    0.150131
    54  N   -0.718745
    55  H    0.306265
    56  H    0.297143
    57  O   -0.589383
    58  H    0.433385
    59  H    0.421221
 Sum of Mulliken charges =   1.00000

 Dipole moment (field-independent basis, Debye):
    X=            -13.1726    Y=             -0.3359    Z=              0.0232  Tot=             13.1769
 Quadrupole moment (field-independent basis, Debye-Ang):
   XX=           -107.8315   YY=           -120.5782   ZZ=           -158.8193
   XY=              6.6432   XZ=            -16.7543   YZ=            -14.5120

 Normal termination of Gaussian 16 at Wed May 25 20:22:01 2022.
