 Gaussian 16, Revision C.01,
 Gaussian 16:  ES64L-G16RevC.01  3-Jul-2019

 -------------------------------------------------------------------
 # B3LYP/6-31G* guess=read geom=check nosymm integral(ultrafinegrid)
 -------------------------------------------------------------------

 ------------------------------------------------------
 Candidate Structure: Conf:197 Charge calc in gas phase
 ------------------------------------------------------
 Structure from the checkpoint file:  "conf-197.chk"
 Charge =  1 Multiplicity = 1

                          Input orientation:
 ---------------------------------------------------------------------
 Center     Atomic      Atomic             Coordinates (Angstroms)
 Number     Number       Type             X           Y           Z
 ---------------------------------------------------------------------
      1          7           0       -6.360480   -1.127640    3.202687
      2          1           0       -7.125905   -1.343666    2.568802
      3          1           0       -6.749232   -0.717315    4.047562
      4          6           0       -5.386849   -0.235911    2.609899
      5          1           0       -5.795198    0.749886    2.296459
      6          6           0       -4.883155   -0.871681    1.328698
      7          6           0       -4.223206    0.061833    3.603347
      8          1           0       -3.724346    0.990649    3.303702
      9          1           0       -4.708753    0.294511    4.560963
     10          8           0       -5.212250   -1.906194    0.834242
     11          6           0       -3.176134   -1.027195    3.785234
     12          6           0       -3.497591   -2.394446    3.802377
     13          1           0       -4.530914   -2.703223    3.681094
     14          6           0       -1.839596   -0.646267    3.984644
     15          1           0       -1.577389    0.408962    3.985526
     16          6           0       -2.498288   -3.351614    3.995565
     17          1           0       -2.763745   -4.404985    4.009106
     18          6           0       -0.846541   -1.604450    4.193071
     19          1           0        0.179099   -1.288293    4.363992
     20          6           0       -1.172534   -2.962175    4.193715
     21          1           0       -0.402408   -3.709977    4.360260
     22          7           0       -3.896841   -0.001015    0.536355
     23          6           0       -2.594461   -0.713015    0.183173
     24          1           0       -2.579722   -1.667992    0.711720
     25          6           0       -1.488858    0.232157    0.701466
     26          6           0       -2.599245   -0.878111   -1.360008
     27          1           0       -1.906112   -0.160841   -1.811731
     28          1           0       -2.278426   -1.882209   -1.647746
     29          8           0       -1.811891    1.315834    1.200579
     30          6           0       -4.047625   -0.587688   -1.791238
     31          1           0       -4.112294   -0.210174   -2.815093
     32          1           0       -4.665783   -1.485692   -1.714810
     33          6           0       -4.514066    0.459391   -0.785987
     34          1           0       -5.596057    0.542668   -0.670173
     35          1           0       -4.093322    1.448295   -0.986546
     36          7           0       -0.227090   -0.186449    0.543103
     37          1           0       -0.051587   -1.053937    0.050798
     38          6           0        0.925665    0.669970    0.833419
     39          1           0        0.703674    1.223418    1.747381
     40          6           0        1.155195    1.719958   -0.255695
     41          6           0        2.176085   -0.217185    1.038225
     42          1           0        2.360158   -0.777039    0.109886
     43          1           0        1.914301   -0.952798    1.810090
     44          8           0        1.751809    2.751877   -0.073631
     45          6           0        3.457313    0.525825    1.449541
     46          1           0        4.251232   -0.229241    1.513337
     47          1           0        3.755936    1.223609    0.658234
     48          6           0        3.367139    1.278475    2.782978
     49          1           0        2.997348    0.598758    3.567444
     50          1           0        2.639336    2.096811    2.699236
     51          6           0        4.713813    1.883384    3.237950
     52          1           0        5.068848    2.585134    2.472343
     53          1           0        4.536901    2.480899    4.140380
     54          7           0        5.804680    0.956804    3.528995
     55          1           0        6.091233    0.442835    2.699233
     56          1           0        5.524406    0.270333    4.227161
     57          8           0        0.660030    1.342966   -1.462245
     58          1           0        0.905670    2.050708   -2.089844
     59          1           0       -3.569327    0.827340    1.082185
 ---------------------------------------------------------------------

 SCF Done:  E(RB3LYP) =  -1300.48979066     A.U. after    3 cycles

 Alpha  occ. eigenvalues --  -19.32528 -19.30842 -19.27505 -19.24722 -14.59078
 Alpha  occ. eigenvalues --  -14.50911 -14.44856 -14.37354 -10.47693 -10.44350
 Alpha  occ. eigenvalues --  -10.42905 -10.40316 -10.39416 -10.38262 -10.35896
 Alpha  occ. eigenvalues --  -10.34555 -10.33924 -10.32599 -10.30582 -10.30402
 Alpha  occ. eigenvalues --  -10.29153 -10.28986 -10.28756 -10.28694 -10.28602
 Alpha  occ. eigenvalues --  -10.27323 -10.27080 -10.25752  -1.24277  -1.21468
 Alpha  occ. eigenvalues --   -1.19547  -1.13607  -1.12502  -1.07440  -1.03246
 Alpha  occ. eigenvalues --   -0.95882  -0.95485  -0.94237  -0.92679  -0.90212
 Alpha  occ. eigenvalues --   -0.89872  -0.85174  -0.84723  -0.84234  -0.80563
 Alpha  occ. eigenvalues --   -0.78807  -0.77973  -0.76069  -0.74998  -0.74340
 Alpha  occ. eigenvalues --   -0.72489  -0.71259  -0.70439  -0.69587  -0.68832
 Alpha  occ. eigenvalues --   -0.65826  -0.65770  -0.65129  -0.63771  -0.62933
 Alpha  occ. eigenvalues --   -0.62052  -0.61173  -0.60039  -0.59432  -0.59106
 Alpha  occ. eigenvalues --   -0.58533  -0.58150  -0.57409  -0.56905  -0.55709
 Alpha  occ. eigenvalues --   -0.55662  -0.55391  -0.55112  -0.54978  -0.54628
 Alpha  occ. eigenvalues --   -0.53494  -0.53348  -0.52555  -0.51640  -0.51363
 Alpha  occ. eigenvalues --   -0.51146  -0.50951  -0.50601  -0.49885  -0.49770
 Alpha  occ. eigenvalues --   -0.49553  -0.49134  -0.48535  -0.47008  -0.45894
 Alpha  occ. eigenvalues --   -0.44743  -0.44475  -0.43937  -0.43783  -0.43289
 Alpha  occ. eigenvalues --   -0.42495  -0.41984  -0.41487  -0.41018  -0.40120
 Alpha  occ. eigenvalues --   -0.37323  -0.37085  -0.34973  -0.34612  -0.29243
 Alpha virt. eigenvalues --   -0.18741  -0.12929  -0.10715  -0.10155  -0.10055
 Alpha virt. eigenvalues --   -0.07682  -0.06921  -0.06148  -0.04280  -0.04016
 Alpha virt. eigenvalues --   -0.02845  -0.02085  -0.01596  -0.01283  -0.00112

 Mulliken charges:
               1
     1  N   -0.704788
     2  H    0.331988
     3  H    0.334777
     4  C   -0.078415
     5  H    0.167072
     6  C    0.600471
     7  C   -0.370312
     8  H    0.172896
     9  H    0.199612
    10  O   -0.366370
    11  C    0.110474
    12  C   -0.192840
    13  H    0.187399
    14  C   -0.198991
    15  H    0.149404
    16  C   -0.135181
    17  H    0.157258
    18  C   -0.136412
    19  H    0.146786
    20  C   -0.130124
    21  H    0.154026
    22  N   -0.604878
    23  C   -0.088881
    24  H    0.239970
    25  C    0.663986
    26  C   -0.315134
    27  H    0.201244
    28  H    0.198530
    29  O   -0.539017
    30  C   -0.288283
    31  H    0.203425
    32  H    0.208388
    33  C   -0.178635
    34  H    0.213484
    35  H    0.217647
    36  N   -0.600304
    37  H    0.353499
    38  C   -0.035954
    39  H    0.216888
    40  C    0.605119
    41  C   -0.312871
    42  H    0.152304
    43  H    0.163787
    44  O   -0.430963
    45  C   -0.264925
    46  H    0.139324
    47  H    0.166679
    48  C   -0.272883
    49  H    0.117630
    50  H    0.145876
    51  C   -0.146504
    52  H    0.154883
    53  H    0.153966
    54  N   -0.700546
    55  H    0.300110
    56  H    0.295165
    57  O   -0.582923
    58  H    0.428419
    59  H    0.423645
 Sum of Mulliken charges =   1.00000

 Dipole moment (field-independent basis, Debye):
    X=            -15.2316    Y=             -2.6899    Z=              2.0316  Tot=             15.6001
 Quadrupole moment (field-independent basis, Debye-Ang):
   XX=            -81.9559   YY=           -163.0674   ZZ=           -137.6267
   XY=            -13.4862   XZ=            -20.0647   YZ=             -8.8949

 Normal termination of Gaussian 16 at Wed May 25 20:22:21 2022.
