 Gaussian 16, Revision C.01,
 Gaussian 16:  ES64L-G16RevC.01  3-Jul-2019

 -------------------------------------------------------------------
 # B3LYP/6-31G* guess=read geom=check nosymm integral(ultrafinegrid)
 -------------------------------------------------------------------

 ------------------------------------------------------
 Candidate Structure: Conf:308 Charge calc in gas phase
 ------------------------------------------------------
 Structure from the checkpoint file:  "conf-308.chk"
 Charge =  1 Multiplicity = 1

                          Input orientation:
 ---------------------------------------------------------------------
 Center     Atomic      Atomic             Coordinates (Angstroms)
 Number     Number       Type             X           Y           Z
 ---------------------------------------------------------------------
      1          7           0       -2.109157   -2.043900    3.887226
      2          1           0       -1.372559   -1.402784    3.604245
      3          1           0       -2.074447   -2.910167    3.359426
      4          6           0       -3.428671   -1.441068    3.959112
      5          1           0       -4.133498   -2.207541    4.294343
      6          6           0       -3.912880   -1.099176    2.547053
      7          6           0       -3.417082   -0.261321    4.948456
      8          1           0       -3.270301   -0.704472    5.940965
      9          1           0       -2.520881    0.348818    4.772062
     10          8           0       -4.626237   -1.743904    1.838393
     11          6           0       -4.650755    0.622138    4.915393
     12          6           0       -4.510525    2.016675    4.988554
     13          1           0       -3.516985    2.451720    5.079202
     14          6           0       -5.943690    0.083178    4.829740
     15          1           0       -6.089041   -0.993908    4.797109
     16          6           0       -5.629887    2.851605    4.972903
     17          1           0       -5.501056    3.928033    5.042839
     18          6           0       -7.063734    0.917108    4.807907
     19          1           0       -8.056497    0.480969    4.745416
     20          6           0       -6.910586    2.302697    4.877069
     21          1           0       -7.782756    2.949593    4.866572
     22          7           0       -3.251558    0.146074    1.887632
     23          6           0       -2.374669   -0.189814    0.684895
     24          1           0       -2.523273   -1.242326    0.435143
     25          6           0       -0.922920    0.047313    1.165660
     26          6           0       -2.857958    0.744411   -0.451241
     27          1           0       -2.028961    1.089870   -1.074087
     28          1           0       -3.558358    0.202241   -1.093487
     29          8           0       -0.725916    0.436040    2.327122
     30          6           0       -3.575914    1.889200    0.280121
     31          1           0       -2.860842    2.626155    0.662973
     32          1           0       -4.288780    2.415067   -0.359972
     33          6           0       -4.280524    1.173154    1.426550
     34          1           0       -5.147520    0.606319    1.080753
     35          1           0       -4.557508    1.791993    2.280302
     36          7           0        0.036396   -0.199205    0.272818
     37          1           0       -0.186352   -0.433530   -0.692202
     38          6           0        1.459284    0.063165    0.513150
     39          1           0        1.547503    1.003988    1.067431
     40          6           0        2.074174    0.254273   -0.871353
     41          6           0        2.167738   -1.049212    1.320505
     42          1           0        1.677654   -1.102432    2.299715
     43          1           0        3.193602   -0.710027    1.502812
     44          8           0        1.469531    0.061950   -1.906648
     45          6           0        2.182116   -2.428870    0.650528
     46          1           0        1.151838   -2.757469    0.450962
     47          1           0        2.677316   -2.361160   -0.328660
     48          6           0        2.903395   -3.480130    1.503756
     49          1           0        2.409717   -3.557252    2.484605
     50          1           0        3.934401   -3.163525    1.702894
     51          6           0        2.946337   -4.864517    0.849202
     52          1           0        1.912626   -5.194772    0.627640
     53          1           0        3.458893   -4.786500   -0.118117
     54          7           0        3.712272   -5.793231    1.681067
     55          1           0        3.855660   -6.671941    1.187460
     56          1           0        3.189214   -6.023201    2.524863
     57          8           0        3.351466    0.640205   -0.797364
     58          1           0        3.693343    0.725733   -1.708869
     59          1           0       -2.579968    0.572664    2.557577
 ---------------------------------------------------------------------

 SCF Done:  E(RB3LYP) =  -1300.50297416     A.U. after    1 cycles

 Alpha  occ. eigenvalues --  -19.31692 -19.31487 -19.27705 -19.26247 -14.58347
 Alpha  occ. eigenvalues --  -14.50804 -14.45871 -14.37733 -10.46594 -10.44619
 Alpha  occ. eigenvalues --  -10.44253 -10.40303 -10.37885 -10.37261 -10.36369
 Alpha  occ. eigenvalues --  -10.34435 -10.33745 -10.31629 -10.30893 -10.29674
 Alpha  occ. eigenvalues --  -10.29547 -10.29536 -10.29273 -10.29166 -10.28950
 Alpha  occ. eigenvalues --  -10.28040 -10.27983 -10.26107  -1.23292  -1.22716
 Alpha  occ. eigenvalues --   -1.19536  -1.13974  -1.12933  -1.07340  -1.03389
 Alpha  occ. eigenvalues --   -0.96179  -0.95181  -0.94703  -0.92514  -0.90125
 Alpha  occ. eigenvalues --   -0.89669  -0.85774  -0.84835  -0.84053  -0.80079
 Alpha  occ. eigenvalues --   -0.78940  -0.77817  -0.76561  -0.74906  -0.73892
 Alpha  occ. eigenvalues --   -0.73289  -0.71029  -0.70512  -0.69364  -0.68712
 Alpha  occ. eigenvalues --   -0.66692  -0.65200  -0.64380  -0.63773  -0.62521
 Alpha  occ. eigenvalues --   -0.61461  -0.61081  -0.60527  -0.59846  -0.59740
 Alpha  occ. eigenvalues --   -0.59487  -0.58016  -0.57785  -0.57041  -0.56559
 Alpha  occ. eigenvalues --   -0.56078  -0.55602  -0.55437  -0.54375  -0.54039
 Alpha  occ. eigenvalues --   -0.53756  -0.52792  -0.52447  -0.52068  -0.51878
 Alpha  occ. eigenvalues --   -0.51313  -0.51127  -0.50870  -0.50671  -0.49793
 Alpha  occ. eigenvalues --   -0.49132  -0.48993  -0.48595  -0.46561  -0.45992
 Alpha  occ. eigenvalues --   -0.44861  -0.44746  -0.44285  -0.44047  -0.43751
 Alpha  occ. eigenvalues --   -0.43128  -0.42161  -0.41727  -0.41072  -0.39920
 Alpha  occ. eigenvalues --   -0.39756  -0.37050  -0.35464  -0.34983  -0.29959
 Alpha virt. eigenvalues --   -0.18236  -0.13464  -0.10964  -0.10829  -0.10628
 Alpha virt. eigenvalues --   -0.07476  -0.05570  -0.04523  -0.03680  -0.02889
 Alpha virt. eigenvalues --   -0.02836  -0.01781  -0.01215  -0.00244   0.00755

 Mulliken charges:
               1
     1  N   -0.723055
     2  H    0.341675
     3  H    0.333519
     4  C   -0.056769
     5  H    0.207389
     6  C    0.566683
     7  C   -0.376554
     8  H    0.215544
     9  H    0.164276
    10  O   -0.377178
    11  C    0.138133
    12  C   -0.216879
    13  H    0.143144
    14  C   -0.190270
    15  H    0.146075
    16  C   -0.127298
    17  H    0.158692
    18  C   -0.127874
    19  H    0.161439
    20  C   -0.128399
    21  H    0.161739
    22  N   -0.596668
    23  C   -0.081849
    24  H    0.226774
    25  C    0.628449
    26  C   -0.307033
    27  H    0.199009
    28  H    0.198468
    29  O   -0.540387
    30  C   -0.307444
    31  H    0.186506
    32  H    0.208678
    33  C   -0.170289
    34  H    0.221877
    35  H    0.230171
    36  N   -0.600215
    37  H    0.372541
    38  C   -0.052964
    39  H    0.211755
    40  C    0.597812
    41  C   -0.273681
    42  H    0.164416
    43  H    0.185299
    44  O   -0.467285
    45  C   -0.276922
    46  H    0.122234
    47  H    0.151122
    48  C   -0.248559
    49  H    0.126065
    50  H    0.164775
    51  C   -0.134314
    52  H    0.106955
    53  H    0.146655
    54  N   -0.712362
    55  H    0.307975
    56  H    0.296237
    57  O   -0.549189
    58  H    0.437754
    59  H    0.413598
 Sum of Mulliken charges =   1.00000

 Dipole moment (field-independent basis, Debye):
    X=            -11.1622    Y=              0.3936    Z=              6.6884  Tot=             13.0186
 Quadrupole moment (field-independent basis, Debye-Ang):
   XX=            -96.1586   YY=           -134.1575   ZZ=           -138.2226
   XY=            -13.6180   XZ=            -41.7741   YZ=             -0.0440

 Normal termination of Gaussian 16 at Wed May 25 20:21:56 2022.
