 Gaussian 16, Revision C.01,
 Gaussian 16:  ES64L-G16RevC.01  3-Jul-2019

 -------------------------------------------------------------------
 # B3LYP/6-31G* guess=read geom=check nosymm integral(ultrafinegrid)
 -------------------------------------------------------------------

 ------------------------------------------------------
 Candidate Structure: Conf:961 Charge calc in gas phase
 ------------------------------------------------------
 Structure from the checkpoint file:  "conf-961.chk"
 Charge =  1 Multiplicity = 1

                          Input orientation:
 ---------------------------------------------------------------------
 Center     Atomic      Atomic             Coordinates (Angstroms)
 Number     Number       Type             X           Y           Z
 ---------------------------------------------------------------------
      1          7           0       -3.064242    2.393879    3.268444
      2          1           0       -2.346792    2.572786    3.964422
      3          1           0       -3.789936    3.101539    3.372448
      4          6           0       -3.624258    1.053159    3.396373
      5          1           0       -2.886096    0.412237    3.900818
      6          6           0       -3.758968    0.403044    2.015642
      7          6           0       -4.963318    0.935804    4.185008
      8          1           0       -5.275235   -0.113139    4.170569
      9          1           0       -4.738649    1.193263    5.225508
     10          8           0       -4.299112   -0.626544    1.742637
     11          6           0       -6.057947    1.830843    3.642730
     12          6           0       -6.210125    3.142864    4.117797
     13          1           0       -5.582162    3.497200    4.933252
     14          6           0       -6.927629    1.376118    2.637783
     15          1           0       -6.854162    0.349359    2.287712
     16          6           0       -7.190709    3.986678    3.589827
     17          1           0       -7.300460    4.995068    3.978238
     18          6           0       -7.910411    2.217163    2.113296
     19          1           0       -8.588700    1.843376    1.351249
     20          6           0       -8.039505    3.526810    2.582541
     21          1           0       -8.810312    4.177159    2.179705
     22          7           0       -3.068250    1.182059    0.899573
     23          6           0       -2.345208    0.330896   -0.122930
     24          1           0       -2.597735   -0.715299    0.062542
     25          6           0       -0.840650    0.591006    0.131246
     26          6           0       -2.862967    0.819157   -1.497614
     27          1           0       -2.076513    0.797180   -2.255970
     28          1           0       -3.675933    0.168437   -1.835057
     29          8           0       -0.506396    1.445360    0.955184
     30          6           0       -3.386577    2.236974   -1.220743
     31          1           0       -2.565316    2.961021   -1.187420
     32          1           0       -4.107592    2.576397   -1.968762
     33          6           0       -4.032538    2.102640    0.155180
     34          1           0       -5.001059    1.598908    0.110023
     35          1           0       -4.125605    3.027701    0.724467
     36          7           0        0.005641   -0.150073   -0.599831
     37          1           0       -0.350555   -0.850204   -1.239328
     38          6           0        1.467474   -0.019341   -0.514435
     39          1           0        1.678671    0.974428   -0.118397
     40          6           0        2.077228   -0.094966   -1.908474
     41          6           0        2.070802   -1.099275    0.421209
     42          1           0        1.770617   -2.085775    0.044207
     43          1           0        1.584267   -0.966650    1.396010
     44          8           0        3.082512    0.474932   -2.250485
     45          6           0        3.596163   -1.048662    0.591803
     46          1           0        3.885038   -1.857305    1.271518
     47          1           0        4.087413   -1.258823   -0.367074
     48          6           0        4.140526    0.269919    1.157809
     49          1           0        3.547414    0.571075    2.035929
     50          1           0        4.043600    1.075036    0.418495
     51          6           0        5.615893    0.163448    1.568696
     52          1           0        6.201242   -0.185196    0.708659
     53          1           0        5.991629    1.171414    1.815050
     54          7           0        5.787409   -0.815114    2.649906
     55          1           0        5.472095   -0.412732    3.531863
     56          1           0        6.775166   -1.027147    2.775666
     57          8           0        1.379609   -0.937786   -2.715943
     58          1           0        1.856185   -0.979410   -3.567598
     59          1           0       -2.343848    1.777390    1.372450
 ---------------------------------------------------------------------

 SCF Done:  E(RB3LYP) =  -1300.50843019     A.U. after    1 cycles

 Alpha  occ. eigenvalues --  -19.32133 -19.30234 -19.25818 -19.24134 -14.57434
 Alpha  occ. eigenvalues --  -14.49615 -14.46358 -14.37155 -10.46987 -10.43026
 Alpha  occ. eigenvalues --  -10.42328 -10.39085 -10.38138 -10.37987 -10.34617
 Alpha  occ. eigenvalues --  -10.33883 -10.33439 -10.31702 -10.30680 -10.29486
 Alpha  occ. eigenvalues --  -10.29359 -10.29158 -10.29114 -10.28876 -10.28424
 Alpha  occ. eigenvalues --  -10.26760 -10.25241 -10.24735  -1.23655  -1.20830
 Alpha  occ. eigenvalues --   -1.17996  -1.12626  -1.11934  -1.06007  -1.03926
 Alpha  occ. eigenvalues --   -0.95916  -0.94748  -0.93878  -0.91515  -0.89716
 Alpha  occ. eigenvalues --   -0.88835  -0.85104  -0.84590  -0.83727  -0.80187
 Alpha  occ. eigenvalues --   -0.78075  -0.76650  -0.75824  -0.73340  -0.72992
 Alpha  occ. eigenvalues --   -0.72089  -0.70811  -0.70027  -0.68744  -0.67994
 Alpha  occ. eigenvalues --   -0.66080  -0.64410  -0.64315  -0.63719  -0.61876
 Alpha  occ. eigenvalues --   -0.61414  -0.61257  -0.59675  -0.58488  -0.58254
 Alpha  occ. eigenvalues --   -0.58058  -0.57443  -0.56544  -0.56448  -0.55834
 Alpha  occ. eigenvalues --   -0.55541  -0.54915  -0.54521  -0.54000  -0.53618
 Alpha  occ. eigenvalues --   -0.52714  -0.52295  -0.51936  -0.51642  -0.50687
 Alpha  occ. eigenvalues --   -0.50538  -0.50273  -0.49956  -0.49668  -0.49174
 Alpha  occ. eigenvalues --   -0.48710  -0.48267  -0.47528  -0.46166  -0.45958
 Alpha  occ. eigenvalues --   -0.44947  -0.44184  -0.43800  -0.43477  -0.42331
 Alpha  occ. eigenvalues --   -0.40929  -0.40715  -0.39977  -0.39750  -0.39109
 Alpha  occ. eigenvalues --   -0.38745  -0.36477  -0.35381  -0.34925  -0.29385
 Alpha virt. eigenvalues --   -0.18678  -0.11644  -0.11004  -0.10811  -0.09331
 Alpha virt. eigenvalues --   -0.06380  -0.04587  -0.04246  -0.03690  -0.02619
 Alpha virt. eigenvalues --   -0.01549  -0.00731  -0.00113   0.00249   0.00826

 Mulliken charges:
               1
     1  N   -0.768961
     2  H    0.350096
     3  H    0.340325
     4  C   -0.079203
     5  H    0.215009
     6  C    0.600583
     7  C   -0.368387
     8  H    0.194805
     9  H    0.181736
    10  O   -0.376079
    11  C    0.146903
    12  C   -0.208484
    13  H    0.142872
    14  C   -0.203941
    15  H    0.152243
    16  C   -0.125460
    17  H    0.160286
    18  C   -0.131895
    19  H    0.155878
    20  C   -0.127337
    21  H    0.160537
    22  N   -0.596693
    23  C   -0.080985
    24  H    0.225445
    25  C    0.631448
    26  C   -0.306209
    27  H    0.195940
    28  H    0.191505
    29  O   -0.519996
    30  C   -0.302308
    31  H    0.195197
    32  H    0.204264
    33  C   -0.167559
    34  H    0.213505
    35  H    0.219030
    36  N   -0.607955
    37  H    0.362024
    38  C   -0.058048
    39  H    0.218381
    40  C    0.599525
    41  C   -0.275992
    42  H    0.148964
    43  H    0.156227
    44  O   -0.432644
    45  C   -0.266346
    46  H    0.184165
    47  H    0.148959
    48  C   -0.262901
    49  H    0.121889
    50  H    0.148416
    51  C   -0.146495
    52  H    0.149254
    53  H    0.127073
    54  N   -0.716974
    55  H    0.295412
    56  H    0.308633
    57  O   -0.589970
    58  H    0.431886
    59  H    0.442408
 Sum of Mulliken charges =   1.00000

 Dipole moment (field-independent basis, Debye):
    X=            -13.3946    Y=              5.7381    Z=              4.6779  Tot=             15.3044
 Quadrupole moment (field-independent basis, Debye-Ang):
   XX=            -76.5488   YY=           -144.5816   ZZ=           -117.7261
   XY=            -38.3330   XZ=            -15.2588   YZ=             20.9551

 Normal termination of Gaussian 16 at Wed May 25 20:29:45 2022.
