 Gaussian 16, Revision C.01,
 Gaussian 16:  ES64L-G16RevC.01  3-Jul-2019

 -------------------------------------------------------------------
 # B3LYP/6-31G* guess=read geom=check nosymm integral(ultrafinegrid)
 -------------------------------------------------------------------

 ------------------------------------------------------
 Candidate Structure: Conf:879 Charge calc in gas phase
 ------------------------------------------------------
 Structure from the checkpoint file:  "conf-879.chk"
 Charge =  1 Multiplicity = 1

                          Input orientation:
 ---------------------------------------------------------------------
 Center     Atomic      Atomic             Coordinates (Angstroms)
 Number     Number       Type             X           Y           Z
 ---------------------------------------------------------------------
      1          7           0       -1.753571    2.571290    3.284058
      2          1           0       -0.749394    2.559932    3.116733
      3          1           0       -1.988174    3.405751    3.816348
      4          6           0       -2.173201    1.355727    3.987327
      5          1           0       -1.411249    0.950105    4.664035
      6          6           0       -2.423031    0.253527    2.965935
      7          6           0       -3.467214    1.633423    4.815686
      8          1           0       -3.196110    2.434196    5.516328
      9          1           0       -4.230085    2.051509    4.147017
     10          8           0       -2.519351   -0.921261    3.129411
     11          6           0       -4.018381    0.445863    5.572303
     12          6           0       -5.217565   -0.158822    5.177847
     13          1           0       -5.769163    0.239373    4.327876
     14          6           0       -3.342214   -0.061072    6.690795
     15          1           0       -2.418436    0.407314    7.024880
     16          6           0       -5.729971   -1.251610    5.879202
     17          1           0       -6.666265   -1.704318    5.565757
     18          6           0       -3.849198   -1.154257    7.390977
     19          1           0       -3.316556   -1.533505    8.258188
     20          6           0       -5.044218   -1.753410    6.985213
     21          1           0       -5.441917   -2.601639    7.534502
     22          7           0       -2.650689    0.816598    1.542646
     23          6           0       -1.898349    0.054329    0.486024
     24          1           0       -2.118479   -1.003967    0.673191
     25          6           0       -0.400547    0.301449    0.708769
     26          6           0       -2.562717    0.530241   -0.810683
     27          1           0       -2.158675    1.505602   -1.103757
     28          1           0       -2.390444   -0.163647   -1.637729
     29          8           0       -0.029284    0.792419    1.779768
     30          6           0       -4.060683    0.631067   -0.439417
     31          1           0       -4.551007    1.453700   -0.964316
     32          1           0       -4.589008   -0.288408   -0.704088
     33          6           0       -4.101616    0.830195    1.097170
     34          1           0       -4.609259    0.010700    1.609531
     35          1           0       -4.539257    1.778419    1.414000
     36          7           0        0.414117   -0.065973   -0.290974
     37          1           0        0.036782   -0.469762   -1.139554
     38          6           0        1.878831    0.046300   -0.211483
     39          1           0        2.105928    0.843697    0.498113
     40          6           0        2.431838    0.469072   -1.567832
     41          6           0        2.522821   -1.278818    0.264832
     42          1           0        2.291680   -2.060574   -0.467562
     43          1           0        2.028953   -1.548270    1.207542
     44          8           0        3.401022    1.165377   -1.729344
     45          6           0        4.040202   -1.184266    0.468988
     46          1           0        4.519899   -0.952839   -0.486115
     47          1           0        4.265696   -0.349992    1.146708
     48          6           0        4.659746   -2.470144    1.040945
     49          1           0        4.283537   -2.654728    2.056604
     50          1           0        5.741432   -2.307251    1.144495
     51          6           0        4.421810   -3.732477    0.199712
     52          1           0        4.982851   -4.564340    0.659392
     53          1           0        3.362567   -4.016754    0.247512
     54          7           0        4.747338   -3.497919   -1.213191
     55          1           0        4.576682   -4.346682   -1.750432
     56          1           0        5.745536   -3.308858   -1.306099
     57          8           0        1.722076   -0.084550   -2.586959
     58          1           0        2.167490    0.169735   -3.418099
     59          1           0       -2.291499    1.794745    1.657144
 ---------------------------------------------------------------------

 SCF Done:  E(RB3LYP) =  -1300.50546536     A.U. after    1 cycles

 Alpha  occ. eigenvalues --  -19.31065 -19.30003 -19.25846 -19.23883 -14.57463
 Alpha  occ. eigenvalues --  -14.49755 -14.46620 -14.37990 -10.46123 -10.43295
 Alpha  occ. eigenvalues --  -10.42138 -10.39334 -10.38528 -10.37233 -10.34638
 Alpha  occ. eigenvalues --  -10.34426 -10.33831 -10.32203 -10.29454 -10.28281
 Alpha  occ. eigenvalues --  -10.28086 -10.28021 -10.27679 -10.27592 -10.27458
 Alpha  occ. eigenvalues --  -10.27435 -10.25638 -10.25232  -1.22765  -1.20609
 Alpha  occ. eigenvalues --   -1.17813  -1.12921  -1.11736  -1.06083  -1.03804
 Alpha  occ. eigenvalues --   -0.94846  -0.94759  -0.94640  -0.91535  -0.89340
 Alpha  occ. eigenvalues --   -0.88876  -0.84173  -0.83869  -0.83284  -0.80317
 Alpha  occ. eigenvalues --   -0.78000  -0.77089  -0.75122  -0.73351  -0.72974
 Alpha  occ. eigenvalues --   -0.72529  -0.70830  -0.69593  -0.68765  -0.68109
 Alpha  occ. eigenvalues --   -0.64453  -0.64001  -0.63594  -0.62998  -0.62362
 Alpha  occ. eigenvalues --   -0.61026  -0.60547  -0.59827  -0.58962  -0.58125
 Alpha  occ. eigenvalues --   -0.57604  -0.57449  -0.56567  -0.56520  -0.55875
 Alpha  occ. eigenvalues --   -0.55371  -0.54637  -0.54296  -0.54107  -0.53731
 Alpha  occ. eigenvalues --   -0.52394  -0.51821  -0.51448  -0.51024  -0.50945
 Alpha  occ. eigenvalues --   -0.50873  -0.50460  -0.50096  -0.49859  -0.48814
 Alpha  occ. eigenvalues --   -0.48360  -0.48263  -0.47268  -0.45358  -0.44976
 Alpha  occ. eigenvalues --   -0.44511  -0.43461  -0.43144  -0.42875  -0.42407
 Alpha  occ. eigenvalues --   -0.41604  -0.40664  -0.40097  -0.39709  -0.39401
 Alpha  occ. eigenvalues --   -0.38903  -0.36365  -0.33814  -0.33461  -0.30305
 Alpha virt. eigenvalues --   -0.17274  -0.11875  -0.09558  -0.09133  -0.09028
 Alpha virt. eigenvalues --   -0.07245  -0.05650  -0.03924  -0.03599  -0.02431
 Alpha virt. eigenvalues --   -0.01996  -0.01910  -0.00403   0.00062   0.00683

 Mulliken charges:
               1
     1  N   -0.788284
     2  H    0.368174
     3  H    0.345199
     4  C   -0.043095
     5  H    0.211141
     6  C    0.612773
     7  C   -0.398895
     8  H    0.189222
     9  H    0.160380
    10  O   -0.373073
    11  C    0.183201
    12  C   -0.190009
    13  H    0.116135
    14  C   -0.178659
    15  H    0.133121
    16  C   -0.122312
    17  H    0.149781
    18  C   -0.124187
    19  H    0.154943
    20  C   -0.123538
    21  H    0.156083
    22  N   -0.586968
    23  C   -0.089729
    24  H    0.233801
    25  C    0.658891
    26  C   -0.306232
    27  H    0.187700
    28  H    0.195049
    29  O   -0.543291
    30  C   -0.310025
    31  H    0.200358
    32  H    0.197009
    33  C   -0.162266
    34  H    0.221534
    35  H    0.209765
    36  N   -0.620201
    37  H    0.365227
    38  C   -0.056212
    39  H    0.208361
    40  C    0.600222
    41  C   -0.271595
    42  H    0.168754
    43  H    0.154091
    44  O   -0.431239
    45  C   -0.254756
    46  H    0.175435
    47  H    0.140507
    48  C   -0.276769
    49  H    0.137974
    50  H    0.146494
    51  C   -0.138779
    52  H    0.133162
    53  H    0.133713
    54  N   -0.725642
    55  H    0.305564
    56  H    0.302756
    57  O   -0.588766
    58  H    0.432519
    59  H    0.415483
 Sum of Mulliken charges =   1.00000

 Dipole moment (field-independent basis, Debye):
    X=             -9.7572    Y=              1.2047    Z=              6.0865  Tot=             11.5629
 Quadrupole moment (field-independent basis, Debye-Ang):
   XX=           -102.7742   YY=           -141.2600   ZZ=           -108.5846
   XY=            -24.4700   XZ=            -25.5014   YZ=             12.8873

 Normal termination of Gaussian 16 at Wed May 25 20:29:40 2022.
