 Gaussian 16, Revision C.01,
 Gaussian 16:  ES64L-G16RevC.01  3-Jul-2019

 -------------------------------------------------------------------
 # B3LYP/6-31G* guess=read geom=check nosymm integral(ultrafinegrid)
 -------------------------------------------------------------------

 ------------------------------------------------------
 Candidate Structure: Conf:883 Charge calc in gas phase
 ------------------------------------------------------
 Structure from the checkpoint file:  "conf-883.chk"
 Charge =  1 Multiplicity = 1

                          Input orientation:
 ---------------------------------------------------------------------
 Center     Atomic      Atomic             Coordinates (Angstroms)
 Number     Number       Type             X           Y           Z
 ---------------------------------------------------------------------
      1          7           0       -4.610321    2.039819    2.009684
      2          1           0       -5.602029    2.223623    2.139771
      3          1           0       -4.348350    1.341684    2.705023
      4          6           0       -3.838033    3.262073    2.204485
      5          1           0       -4.474772    4.120457    1.951194
      6          6           0       -2.671897    3.394940    1.218908
      7          6           0       -3.308132    3.501095    3.656329
      8          1           0       -2.754210    4.444434    3.667370
      9          1           0       -4.190129    3.632713    4.292325
     10          8           0       -1.895726    4.303198    1.195706
     11          6           0       -2.450446    2.363617    4.168614
     12          6           0       -3.027205    1.282982    4.855707
     13          1           0       -4.089413    1.300482    5.092327
     14          6           0       -1.064289    2.347606    3.937997
     15          1           0       -0.590622    3.192629    3.444428
     16          6           0       -2.246435    0.206010    5.284118
     17          1           0       -2.709305   -0.614177    5.825240
     18          6           0       -0.283276    1.273761    4.369605
     19          1           0        0.790023    1.289253    4.202034
     20          6           0       -0.872975    0.196862    5.037099
     21          1           0       -0.262754   -0.632697    5.382020
     22          7           0       -2.476254    2.332335    0.135818
     23          6           0       -2.144631    0.911949    0.583978
     24          1           0       -2.270519    0.826395    1.663852
     25          6           0       -0.653793    0.734072    0.195907
     26          6           0       -3.101184    0.009462   -0.225296
     27          1           0       -2.639768   -0.953090   -0.459857
     28          1           0       -4.007555   -0.170466    0.357219
     29          8           0       -0.115572    1.589167   -0.516185
     30          6           0       -3.423111    0.840011   -1.478630
     31          1           0       -2.604753    0.790901   -2.204701
     32          1           0       -4.338746    0.512319   -1.977094
     33          6           0       -3.568048    2.258783   -0.930202
     34          1           0       -4.522137    2.398358   -0.425436
     35          1           0       -3.389032    3.057608   -1.652144
     36          7           0       -0.059026   -0.372978    0.647646
     37          1           0       -0.548524   -1.041749    1.236412
     38          6           0        1.321013   -0.742943    0.316959
     39          1           0        1.495788   -0.537715   -0.743851
     40          6           0        1.396483   -2.246357    0.565359
     41          6           0        2.345122    0.057577    1.163906
     42          1           0        2.227838   -0.229855    2.217523
     43          1           0        2.047931    1.109233    1.081321
     44          8           0        0.593011   -2.849135    1.248622
     45          6           0        3.808265   -0.080094    0.723055
     46          1           0        4.143146   -1.119047    0.830466
     47          1           0        3.883064    0.171519   -0.343009
     48          6           0        4.732814    0.848754    1.522048
     49          1           0        4.652313    0.615507    2.593726
     50          1           0        4.406850    1.888147    1.387315
     51          6           0        6.206297    0.750448    1.106666
     52          1           0        6.783990    1.444435    1.727280
     53          1           0        6.583025   -0.262765    1.337062
     54          7           0        6.391000    1.145324   -0.295727
     55          1           0        6.197925    0.358979   -0.912919
     56          1           0        7.364596    1.391609   -0.460729
     57          8           0        2.447483   -2.815850   -0.036002
     58          1           0        2.443284   -3.764708    0.199289
     59          1           0       -1.578339    2.613442   -0.332680
 ---------------------------------------------------------------------

 SCF Done:  E(RB3LYP) =  -1300.50364247     A.U. after    2 cycles

 Alpha  occ. eigenvalues --  -19.31588 -19.30975 -19.26204 -19.25552 -14.57571
 Alpha  occ. eigenvalues --  -14.49533 -14.46386 -14.37273 -10.46823 -10.43590
 Alpha  occ. eigenvalues --  -10.43076 -10.39271 -10.38054 -10.37649 -10.35475
 Alpha  occ. eigenvalues --  -10.33445 -10.33069 -10.31906 -10.31289 -10.30159
 Alpha  occ. eigenvalues --  -10.29979 -10.29867 -10.29826 -10.29609 -10.28986
 Alpha  occ. eigenvalues --  -10.27076 -10.26413 -10.25040  -1.23304  -1.22118
 Alpha  occ. eigenvalues --   -1.18317  -1.13269  -1.12200  -1.06091  -1.03957
 Alpha  occ. eigenvalues --   -0.96546  -0.94366  -0.94063  -0.91575  -0.90022
 Alpha  occ. eigenvalues --   -0.89161  -0.85491  -0.85141  -0.84554  -0.79979
 Alpha  occ. eigenvalues --   -0.78594  -0.77766  -0.75263  -0.74320  -0.72887
 Alpha  occ. eigenvalues --   -0.71952  -0.71434  -0.69955  -0.69026  -0.68394
 Alpha  occ. eigenvalues --   -0.65491  -0.64820  -0.64325  -0.63131  -0.61999
 Alpha  occ. eigenvalues --   -0.61726  -0.60451  -0.60239  -0.59763  -0.58700
 Alpha  occ. eigenvalues --   -0.58420  -0.57579  -0.56918  -0.56465  -0.56343
 Alpha  occ. eigenvalues --   -0.55491  -0.55300  -0.55193  -0.54841  -0.54512
 Alpha  occ. eigenvalues --   -0.53897  -0.52812  -0.52151  -0.51651  -0.51186
 Alpha  occ. eigenvalues --   -0.50640  -0.50091  -0.49966  -0.49636  -0.49559
 Alpha  occ. eigenvalues --   -0.48821  -0.48576  -0.47388  -0.46781  -0.45698
 Alpha  occ. eigenvalues --   -0.44989  -0.44795  -0.44706  -0.43652  -0.43065
 Alpha  occ. eigenvalues --   -0.41627  -0.40929  -0.40385  -0.40251  -0.39246
 Alpha  occ. eigenvalues --   -0.38885  -0.38134  -0.36068  -0.35583  -0.29584
 Alpha virt. eigenvalues --   -0.18352  -0.12301  -0.11628  -0.11173  -0.10210
 Alpha virt. eigenvalues --   -0.07185  -0.04535  -0.03969  -0.03623  -0.02535
 Alpha virt. eigenvalues --   -0.02066  -0.01326  -0.00702  -0.00371   0.01036

 Mulliken charges:
               1
     1  N   -0.756886
     2  H    0.340899
     3  H    0.331915
     4  C   -0.082193
     5  H    0.212796
     6  C    0.595623
     7  C   -0.370362
     8  H    0.200258
     9  H    0.180480
    10  O   -0.357031
    11  C    0.143190
    12  C   -0.209168
    13  H    0.145264
    14  C   -0.207489
    15  H    0.160576
    16  C   -0.126980
    17  H    0.162258
    18  C   -0.134992
    19  H    0.158417
    20  C   -0.133136
    21  H    0.161069
    22  N   -0.598552
    23  C   -0.083781
    24  H    0.211790
    25  C    0.643146
    26  C   -0.288290
    27  H    0.193916
    28  H    0.193942
    29  O   -0.525064
    30  C   -0.313757
    31  H    0.194989
    32  H    0.202234
    33  C   -0.148667
    34  H    0.216982
    35  H    0.215385
    36  N   -0.616358
    37  H    0.366730
    38  C   -0.039673
    39  H    0.206699
    40  C    0.589729
    41  C   -0.275919
    42  H    0.147012
    43  H    0.176455
    44  O   -0.467087
    45  C   -0.275191
    46  H    0.148460
    47  H    0.155890
    48  C   -0.237506
    49  H    0.125302
    50  H    0.147099
    51  C   -0.150645
    52  H    0.150382
    53  H    0.121272
    54  N   -0.717924
    55  H    0.297928
    56  H    0.309355
    57  O   -0.545552
    58  H    0.433120
    59  H    0.421641
 Sum of Mulliken charges =   1.00000

 Dipole moment (field-independent basis, Debye):
    X=             -9.9812    Y=              3.3115    Z=              5.7477  Tot=             11.9845
 Quadrupole moment (field-independent basis, Debye-Ang):
   XX=            -76.7826   YY=           -141.9662   ZZ=           -135.7843
   XY=            -40.6643   XZ=            -13.6631   YZ=              9.8712

 Normal termination of Gaussian 16 at Wed May 25 20:30:01 2022.
