 Gaussian 16, Revision C.01,
 Gaussian 16:  ES64L-G16RevC.01  3-Jul-2019

 -------------------------------------------------------------------
 # B3LYP/6-31G* guess=read geom=check nosymm integral(ultrafinegrid)
 -------------------------------------------------------------------

 ------------------------------------------------------
 Candidate Structure: Conf:215 Charge calc in gas phase
 ------------------------------------------------------
 Structure from the checkpoint file:  "conf-215.chk"
 Charge =  1 Multiplicity = 1

                          Input orientation:
 ---------------------------------------------------------------------
 Center     Atomic      Atomic             Coordinates (Angstroms)
 Number     Number       Type             X           Y           Z
 ---------------------------------------------------------------------
      1          7           0       -4.819854    1.823329    4.070315
      2          1           0       -5.490353    2.567672    3.895808
      3          1           0       -4.458005    1.940350    5.013992
      4          6           0       -3.730555    1.831824    3.125598
      5          1           0       -3.247273    2.814519    2.962677
      6          6           0       -4.236723    1.352091    1.776322
      7          6           0       -2.617249    0.837056    3.602093
      8          1           0       -3.111916   -0.122281    3.786112
      9          1           0       -1.878151    0.692907    2.809503
     10          8           0       -5.184924    0.688982    1.501107
     11          6           0       -1.906715    1.324996    4.846867
     12          6           0       -0.865458    2.262269    4.744147
     13          1           0       -0.567755    2.637444    3.766693
     14          6           0       -2.272444    0.852300    6.114596
     15          1           0       -3.062797    0.110636    6.206119
     16          6           0       -0.206322    2.716130    5.887341
     17          1           0        0.601029    3.436611    5.793199
     18          6           0       -1.614264    1.310457    7.258791
     19          1           0       -1.905005    0.932166    8.234488
     20          6           0       -0.581482    2.241839    7.147361
     21          1           0       -0.066914    2.593905    8.036481
     22          7           0       -3.339296    1.807529    0.581827
     23          6           0       -2.501939    0.688759   -0.036534
     24          1           0       -2.763362   -0.257088    0.443379
     25          6           0       -1.039274    1.087277    0.284150
     26          6           0       -2.851653    0.707427   -1.542268
     27          1           0       -1.992369    0.429992   -2.158125
     28          1           0       -3.655979   -0.008233   -1.738668
     29          8           0       -0.821272    2.201207    0.775591
     30          6           0       -3.332475    2.144883   -1.793706
     31          1           0       -2.486527    2.834034   -1.887835
     32          1           0       -3.943483    2.232766   -2.695448
     33          6           0       -4.144358    2.450896   -0.538903
     34          1           0       -5.115724    1.952448   -0.549154
     35          1           0       -4.272183    3.510880   -0.310806
     36          7           0       -0.089728    0.184267    0.014789
     37          1           0       -0.361572   -0.732773   -0.315026
     38          6           0        1.336094    0.411608    0.334463
     39          1           0        1.806651   -0.574871    0.243074
     40          6           0        1.488691    0.820903    1.810628
     41          6           0        2.014044    1.389455   -0.640580
     42          1           0        1.686165    2.407810   -0.408178
     43          1           0        1.646048    1.148176   -1.646516
     44          8           0        2.253600    1.654717    2.222824
     45          6           0        3.548509    1.313916   -0.632827
     46          1           0        3.915250    1.603755    0.356152
     47          1           0        3.863996    0.273709   -0.811098
     48          6           0        4.170720    2.225001   -1.699742
     49          1           0        3.859957    3.261410   -1.516842
     50          1           0        3.792806    1.938668   -2.692109
     51          6           0        5.703632    2.183477   -1.726514
     52          1           0        6.035102    1.160116   -1.984100
     53          1           0        6.049781    2.834193   -2.537444
     54          7           0        6.271726    2.696542   -0.474769
     55          1           0        7.257155    2.915182   -0.605793
     56          1           0        6.240756    1.981388    0.249198
     57          8           0        0.683342    0.081207    2.612896
     58          1           0        0.834474    0.391039    3.528290
     59          1           0       -2.600285    2.469881    0.912036
 ---------------------------------------------------------------------

 SCF Done:  E(RB3LYP) =  -1300.49088066     A.U. after    1 cycles

 Alpha  occ. eigenvalues --  -19.32363 -19.30302 -19.28139 -19.24697 -14.58700
 Alpha  occ. eigenvalues --  -14.51695 -14.43918 -14.36911 -10.47160 -10.44893
 Alpha  occ. eigenvalues --  -10.42982 -10.41010 -10.38782 -10.37597 -10.36403
 Alpha  occ. eigenvalues --  -10.35039 -10.34217 -10.32221 -10.30377 -10.28920
 Alpha  occ. eigenvalues --  -10.28875 -10.28587 -10.28587 -10.28487 -10.28298
 Alpha  occ. eigenvalues --  -10.26799 -10.26165 -10.24779  -1.23923  -1.21315
 Alpha  occ. eigenvalues --   -1.20033  -1.13424  -1.12344  -1.07808  -1.02620
 Alpha  occ. eigenvalues --   -0.95817  -0.95424  -0.93773  -0.92643  -0.89749
 Alpha  occ. eigenvalues --   -0.89382  -0.85092  -0.84535  -0.84079  -0.80027
 Alpha  occ. eigenvalues --   -0.78288  -0.77480  -0.76904  -0.74789  -0.73974
 Alpha  occ. eigenvalues --   -0.72154  -0.70521  -0.70335  -0.68217  -0.67943
 Alpha  occ. eigenvalues --   -0.66110  -0.65473  -0.64435  -0.63162  -0.62705
 Alpha  occ. eigenvalues --   -0.62526  -0.61083  -0.60231  -0.59565  -0.59403
 Alpha  occ. eigenvalues --   -0.58721  -0.58305  -0.57717  -0.56802  -0.55678
 Alpha  occ. eigenvalues --   -0.55098  -0.54840  -0.54678  -0.54554  -0.54467
 Alpha  occ. eigenvalues --   -0.53564  -0.52459  -0.51719  -0.51536  -0.51507
 Alpha  occ. eigenvalues --   -0.51155  -0.50789  -0.50620  -0.49908  -0.49741
 Alpha  occ. eigenvalues --   -0.49137  -0.48900  -0.47021  -0.45626  -0.45486
 Alpha  occ. eigenvalues --   -0.44989  -0.44692  -0.43692  -0.43170  -0.42692
 Alpha  occ. eigenvalues --   -0.42086  -0.41839  -0.40817  -0.40490  -0.39467
 Alpha  occ. eigenvalues --   -0.37409  -0.36624  -0.34785  -0.34397  -0.29195
 Alpha virt. eigenvalues --   -0.18771  -0.13949  -0.10562  -0.10388  -0.10092
 Alpha virt. eigenvalues --   -0.07539  -0.07015  -0.05974  -0.03719  -0.02874
 Alpha virt. eigenvalues --   -0.02205  -0.01628  -0.00853  -0.00070   0.00224

 Mulliken charges:
               1
     1  N   -0.709211
     2  H    0.325476
     3  H    0.339044
     4  C   -0.055950
     5  H    0.160253
     6  C    0.580863
     7  C   -0.394880
     8  H    0.193905
     9  H    0.169579
    10  O   -0.347451
    11  C    0.148506
    12  C   -0.226282
    13  H    0.154591
    14  C   -0.193401
    15  H    0.153330
    16  C   -0.129233
    17  H    0.163103
    18  C   -0.126199
    19  H    0.160818
    20  C   -0.123570
    21  H    0.161418
    22  N   -0.602127
    23  C   -0.095288
    24  H    0.222120
    25  C    0.656684
    26  C   -0.297119
    27  H    0.196570
    28  H    0.200300
    29  O   -0.531537
    30  C   -0.309631
    31  H    0.196024
    32  H    0.210800
    33  C   -0.164020
    34  H    0.229596
    35  H    0.214999
    36  N   -0.600355
    37  H    0.356820
    38  C   -0.055253
    39  H    0.193932
    40  C    0.610744
    41  C   -0.256946
    42  H    0.180907
    43  H    0.136782
    44  O   -0.429217
    45  C   -0.286977
    46  H    0.184745
    47  H    0.124457
    48  C   -0.238916
    49  H    0.151589
    50  H    0.122765
    51  C   -0.147639
    52  H    0.117289
    53  H    0.149657
    54  N   -0.715717
    55  H    0.307802
    56  H    0.297804
    57  O   -0.584056
    58  H    0.430434
    59  H    0.417268
 Sum of Mulliken charges =   1.00000

 Dipole moment (field-independent basis, Debye):
    X=             -9.6042    Y=              5.2670    Z=              3.7539  Tot=             11.5790
 Quadrupole moment (field-independent basis, Debye-Ang):
   XX=           -108.8561   YY=           -149.9081   ZZ=           -108.8373
   XY=            -32.8615   XZ=            -11.5659   YZ=             10.1093

 Normal termination of Gaussian 16 at Wed May 25 20:21:56 2022.
