 Gaussian 16, Revision C.01,
 Gaussian 16:  ES64L-G16RevC.01  3-Jul-2019

 -------------------------------------------------------------------
 # B3LYP/6-31G* guess=read geom=check nosymm integral(ultrafinegrid)
 -------------------------------------------------------------------

 ------------------------------------------------------
 Candidate Structure: Conf:495 Charge calc in gas phase
 ------------------------------------------------------
 Structure from the checkpoint file:  "conf-495.chk"
 Charge =  1 Multiplicity = 1

                          Input orientation:
 ---------------------------------------------------------------------
 Center     Atomic      Atomic             Coordinates (Angstroms)
 Number     Number       Type             X           Y           Z
 ---------------------------------------------------------------------
      1          7           0       -2.702971    3.367311   -2.685492
      2          1           0       -2.250635    3.485221   -3.591063
      3          1           0       -1.968070    3.203197   -1.998709
      4          6           0       -3.631478    2.249420   -2.730889
      5          1           0       -4.097035    2.148810   -1.745824
      6          6           0       -2.893476    0.962098   -3.090697
      7          6           0       -4.756951    2.502400   -3.776766
      8          1           0       -4.274689    2.804342   -4.714386
      9          1           0       -5.272430    1.557162   -3.989745
     10          8           0       -2.318433    0.699466   -4.099099
     11          6           0       -5.765384    3.528802   -3.309133
     12          6           0       -7.005803    3.110363   -2.808769
     13          1           0       -7.248650    2.048953   -2.787120
     14          6           0       -5.484520    4.901336   -3.354482
     15          1           0       -4.527897    5.241979   -3.737172
     16          6           0       -7.946176    4.038035   -2.359419
     17          1           0       -8.906853    3.696683   -1.984176
     18          6           0       -6.423036    5.830113   -2.905499
     19          1           0       -6.193235    6.890812   -2.950582
     20          6           0       -7.654712    5.401933   -2.405884
     21          1           0       -8.386166    6.127771   -2.062510
     22          7           0       -2.888127   -0.209888   -2.020485
     23          6           0       -2.550557    0.121456   -0.563331
     24          1           0       -3.094941    1.030957   -0.301691
     25          6           0       -1.050695    0.453964   -0.590029
     26          6           0       -3.130201   -1.077258    0.188128
     27          1           0       -2.493097   -1.962176    0.069162
     28          1           0       -3.239466   -0.872317    1.256185
     29          8           0       -0.704768    1.462049   -1.197476
     30          6           0       -4.478579   -1.307662   -0.518454
     31          1           0       -4.852470   -2.325234   -0.384846
     32          1           0       -5.235347   -0.622645   -0.124666
     33          6           0       -4.200940   -0.998899   -2.003725
     34          1           0       -4.978894   -0.388024   -2.464922
     35          1           0       -4.048268   -1.887769   -2.617397
     36          7           0       -0.186985   -0.451291   -0.066624
     37          1           0       -0.578525   -1.292109    0.336756
     38          6           0        1.117797   -0.615885   -0.702386
     39          1           0        1.528242    0.382942   -0.876939
     40          6           0        0.870720   -1.243226   -2.088678
     41          6           0        2.101799   -1.421073    0.167215
     42          1           0        2.237676   -0.862384    1.098970
     43          1           0        3.067909   -1.419213   -0.348484
     44          8           0       -0.229548   -1.513234   -2.543511
     45          6           0        1.682357   -2.872239    0.455941
     46          1           0        0.729768   -2.895429    1.009510
     47          1           0        1.503058   -3.394135   -0.494277
     48          6           0        2.726774   -3.661564    1.267043
     49          1           0        3.696087   -3.619189    0.749658
     50          1           0        2.430573   -4.719173    1.278035
     51          6           0        2.900073   -3.188535    2.724318
     52          1           0        3.238403   -2.144995    2.747562
     53          1           0        1.921118   -3.204283    3.224298
     54          7           0        3.828888   -3.961684    3.542579
     55          1           0        4.766428   -3.930378    3.145547
     56          1           0        3.555736   -4.943012    3.562607
     57          8           0        2.007933   -1.451491   -2.750398
     58          1           0        1.791235   -1.822887   -3.628382
     59          1           0       -2.121011   -0.816725   -2.365683
 ---------------------------------------------------------------------

 SCF Done:  E(RB3LYP) =  -1300.48507368     A.U. after    1 cycles

 Alpha  occ. eigenvalues --  -19.32994 -19.31503 -19.28183 -19.26938 -14.58791
 Alpha  occ. eigenvalues --  -14.50510 -14.43695 -14.38257 -10.46416 -10.45842
 Alpha  occ. eigenvalues --  -10.44271 -10.40497 -10.39504 -10.36992 -10.36616
 Alpha  occ. eigenvalues --  -10.35420 -10.34777 -10.30707 -10.30656 -10.29612
 Alpha  occ. eigenvalues --  -10.28641 -10.28220 -10.27205 -10.27179 -10.26654
 Alpha  occ. eigenvalues --  -10.26619 -10.26440 -10.26377  -1.24310  -1.23153
 Alpha  occ. eigenvalues --   -1.19091  -1.15244  -1.13308  -1.07354  -1.01810
 Alpha  occ. eigenvalues --   -0.95665  -0.95347  -0.93533  -0.92950  -0.90827
 Alpha  occ. eigenvalues --   -0.88065  -0.86320  -0.83174  -0.82105  -0.80713
 Alpha  occ. eigenvalues --   -0.79259  -0.77616  -0.76184  -0.75836  -0.73738
 Alpha  occ. eigenvalues --   -0.72160  -0.71570  -0.70286  -0.68373  -0.67376
 Alpha  occ. eigenvalues --   -0.67087  -0.66074  -0.64257  -0.63192  -0.62657
 Alpha  occ. eigenvalues --   -0.61594  -0.61410  -0.60519  -0.60418  -0.59717
 Alpha  occ. eigenvalues --   -0.58789  -0.58559  -0.57594  -0.57359  -0.56729
 Alpha  occ. eigenvalues --   -0.56022  -0.55271  -0.54727  -0.54246  -0.53480
 Alpha  occ. eigenvalues --   -0.53353  -0.53168  -0.52956  -0.52121  -0.51976
 Alpha  occ. eigenvalues --   -0.51552  -0.49943  -0.49768  -0.49650  -0.49546
 Alpha  occ. eigenvalues --   -0.48914  -0.48680  -0.47804  -0.47622  -0.45848
 Alpha  occ. eigenvalues --   -0.45436  -0.45003  -0.44075  -0.43300  -0.43083
 Alpha  occ. eigenvalues --   -0.42227  -0.42067  -0.41808  -0.41423  -0.41039
 Alpha  occ. eigenvalues --   -0.39881  -0.35941  -0.32628  -0.32374  -0.30297
 Alpha virt. eigenvalues --   -0.17739  -0.14426  -0.12749  -0.09107  -0.07989
 Alpha virt. eigenvalues --   -0.07726  -0.07171  -0.05502  -0.04263  -0.04160
 Alpha virt. eigenvalues --   -0.03172  -0.02316  -0.02138  -0.00362   0.00236

 Mulliken charges:
               1
     1  N   -0.685295
     2  H    0.325529
     3  H    0.346467
     4  C   -0.056215
     5  H    0.159604
     6  C    0.574763
     7  C   -0.371634
     8  H    0.184902
     9  H    0.152363
    10  O   -0.367858
    11  C    0.170376
    12  C   -0.189758
    13  H    0.109403
    14  C   -0.151316
    15  H    0.141023
    16  C   -0.126836
    17  H    0.144944
    18  C   -0.130761
    19  H    0.150663
    20  C   -0.124684
    21  H    0.151254
    22  N   -0.620734
    23  C   -0.075602
    24  H    0.221218
    25  C    0.617939
    26  C   -0.313429
    27  H    0.171551
    28  H    0.212533
    29  O   -0.497968
    30  C   -0.308891
    31  H    0.206982
    32  H    0.195131
    33  C   -0.163669
    34  H    0.215869
    35  H    0.224537
    36  N   -0.583586
    37  H    0.353455
    38  C   -0.084700
    39  H    0.233313
    40  C    0.623984
    41  C   -0.284769
    42  H    0.182591
    43  H    0.187399
    44  O   -0.500298
    45  C   -0.293221
    46  H    0.121257
    47  H    0.148356
    48  C   -0.268978
    49  H    0.142267
    50  H    0.142580
    51  C   -0.141582
    52  H    0.147188
    53  H    0.139102
    54  N   -0.697760
    55  H    0.302262
    56  H    0.300699
    57  O   -0.537549
    58  H    0.438678
    59  H    0.436911
 Sum of Mulliken charges =   1.00000

 Dipole moment (field-independent basis, Debye):
    X=            -10.8029    Y=             -4.0185    Z=             -6.5437  Tot=             13.2541
 Quadrupole moment (field-independent basis, Debye-Ang):
   XX=            -87.3223   YY=           -132.0691   ZZ=           -153.9171
   XY=            -15.3309   XZ=             11.7242   YZ=             -2.7608

 Normal termination of Gaussian 16 at Wed May 25 20:21:58 2022.
