 Gaussian 16, Revision C.01,
 Gaussian 16:  ES64L-G16RevC.01  3-Jul-2019

 -------------------------------------------------------------------
 # B3LYP/6-31G* guess=read geom=check nosymm integral(ultrafinegrid)
 -------------------------------------------------------------------

 ------------------------------------------------------
 Candidate Structure: Conf:472 Charge calc in gas phase
 ------------------------------------------------------
 Structure from the checkpoint file:  "conf-472.chk"
 Charge =  1 Multiplicity = 1

                          Input orientation:
 ---------------------------------------------------------------------
 Center     Atomic      Atomic             Coordinates (Angstroms)
 Number     Number       Type             X           Y           Z
 ---------------------------------------------------------------------
      1          7           0       -4.041945    2.139224   -1.613824
      2          1           0       -3.597139    3.024381   -1.390368
      3          1           0       -4.819022    2.324872   -2.246694
      4          6           0       -4.500425    1.445192   -0.415812
      5          1           0       -3.882733    1.774214    0.432916
      6          6           0       -4.171301   -0.048220   -0.515886
      7          6           0       -5.993243    1.653199   -0.020324
      8          1           0       -6.200487    1.036948    0.860181
      9          1           0       -6.094578    2.699822    0.285429
     10          8           0       -4.526072   -0.928252    0.208786
     11          6           0       -6.960379    1.335872   -1.141338
     12          6           0       -7.360242    2.333723   -2.043729
     13          1           0       -7.024670    3.358563   -1.896722
     14          6           0       -7.458976    0.033891   -1.316478
     15          1           0       -7.197042   -0.742784   -0.601938
     16          6           0       -8.221036    2.037978   -3.103768
     17          1           0       -8.528433    2.826395   -3.784649
     18          6           0       -8.321177   -0.261474   -2.374481
     19          1           0       -8.714491   -1.268357   -2.483805
     20          6           0       -8.698947    0.738371   -3.274384
     21          1           0       -9.377179    0.509257   -4.090961
     22          7           0       -3.236329   -0.381575   -1.678837
     23          6           0       -2.194407   -1.425537   -1.357455
     24          1           0       -2.542604   -1.969698   -0.475106
     25          6           0       -0.889616   -0.655022   -1.084161
     26          6           0       -2.164778   -2.343637   -2.596127
     27          1           0       -1.473117   -1.944773   -3.346298
     28          1           0       -1.833925   -3.352921   -2.338143
     29          8           0       -0.847695    0.554976   -1.305550
     30          6           0       -3.615242   -2.302860   -3.096436
     31          1           0       -3.716542   -2.619589   -4.137830
     32          1           0       -4.253253   -2.947421   -2.482482
     33          6           0       -4.016201   -0.837729   -2.921556
     34          1           0       -5.084141   -0.676708   -2.760215
     35          1           0       -3.679268   -0.203388   -3.743810
     36          7           0        0.137407   -1.391159   -0.619349
     37          1           0        0.028552   -2.396516   -0.560547
     38          6           0        1.496697   -0.862101   -0.512354
     39          1           0        1.398331    0.218256   -0.368670
     40          6           0        2.306249   -1.042864   -1.803121
     41          6           0        2.255311   -1.469117    0.683230
     42          1           0        3.286973   -1.115095    0.607441
     43          1           0        2.294553   -2.563256    0.569164
     44          8           0        3.445521   -0.666878   -1.922754
     45          6           0        1.648709   -1.102232    2.044725
     46          1           0        1.638084   -0.007305    2.147737
     47          1           0        0.598637   -1.422638    2.074024
     48          6           0        2.395880   -1.718435    3.240620
     49          1           0        2.441808   -2.811865    3.124038
     50          1           0        1.807772   -1.533222    4.150175
     51          6           0        3.819286   -1.169672    3.462266
     52          1           0        4.447934   -1.379241    2.587889
     53          1           0        3.772148   -0.075494    3.549189
     54          7           0        4.525604   -1.679207    4.635467
     55          1           0        4.627831   -2.691229    4.576519
     56          1           0        3.987716   -1.493480    5.480789
     57          8           0        1.618224   -1.672807   -2.787975
     58          1           0        2.230723   -1.730222   -3.547420
     59          1           0       -2.750250    0.519861   -1.887593
 ---------------------------------------------------------------------

 SCF Done:  E(RB3LYP) =  -1300.50613643     A.U. after    2 cycles

 Alpha  occ. eigenvalues --  -19.32411 -19.30214 -19.25983 -19.23894 -14.57678
 Alpha  occ. eigenvalues --  -14.49829 -14.46580 -14.37027 -10.47212 -10.43209
 Alpha  occ. eigenvalues --  -10.42217 -10.39150 -10.38442 -10.38183 -10.35086
 Alpha  occ. eigenvalues --  -10.34078 -10.33663 -10.31891 -10.30939 -10.29693
 Alpha  occ. eigenvalues --  -10.29653 -10.29449 -10.29336 -10.29116 -10.28960
 Alpha  occ. eigenvalues --  -10.27412 -10.27097 -10.25683  -1.23914  -1.20804
 Alpha  occ. eigenvalues --   -1.18163  -1.12849  -1.11791  -1.06303  -1.04131
 Alpha  occ. eigenvalues --   -0.96172  -0.95045  -0.94010  -0.91841  -0.89935
 Alpha  occ. eigenvalues --   -0.89378  -0.85342  -0.84850  -0.84709  -0.80452
 Alpha  occ. eigenvalues --   -0.77899  -0.76968  -0.75532  -0.73822  -0.73152
 Alpha  occ. eigenvalues --   -0.71808  -0.71504  -0.71051  -0.69281  -0.68224
 Alpha  occ. eigenvalues --   -0.66043  -0.65900  -0.64917  -0.63156  -0.62823
 Alpha  occ. eigenvalues --   -0.61603  -0.61382  -0.59438  -0.59032  -0.58834
 Alpha  occ. eigenvalues --   -0.57952  -0.57482  -0.57111  -0.56559  -0.56212
 Alpha  occ. eigenvalues --   -0.55726  -0.55269  -0.55194  -0.54409  -0.53881
 Alpha  occ. eigenvalues --   -0.53074  -0.52534  -0.52151  -0.51777  -0.50749
 Alpha  occ. eigenvalues --   -0.50716  -0.50410  -0.50157  -0.49903  -0.49517
 Alpha  occ. eigenvalues --   -0.48714  -0.48156  -0.47666  -0.46401  -0.46224
 Alpha  occ. eigenvalues --   -0.45119  -0.44421  -0.44035  -0.43978  -0.43382
 Alpha  occ. eigenvalues --   -0.42044  -0.41515  -0.40831  -0.40079  -0.39948
 Alpha  occ. eigenvalues --   -0.39275  -0.36365  -0.35645  -0.35190  -0.29036
 Alpha virt. eigenvalues --   -0.18733  -0.11676  -0.11238  -0.11072  -0.09197
 Alpha virt. eigenvalues --   -0.07055  -0.05301  -0.04886  -0.03906  -0.02803
 Alpha virt. eigenvalues --   -0.02108  -0.01170  -0.00709  -0.00277   0.00601

 Mulliken charges:
               1
     1  N   -0.771340
     2  H    0.351705
     3  H    0.340986
     4  C   -0.077937
     5  H    0.218826
     6  C    0.592610
     7  C   -0.367283
     8  H    0.194861
     9  H    0.182404
    10  O   -0.374496
    11  C    0.147143
    12  C   -0.205605
    13  H    0.144110
    14  C   -0.208301
    15  H    0.152909
    16  C   -0.124401
    17  H    0.161564
    18  C   -0.131316
    19  H    0.156882
    20  C   -0.126810
    21  H    0.161679
    22  N   -0.592196
    23  C   -0.088503
    24  H    0.225056
    25  C    0.642935
    26  C   -0.306060
    27  H    0.196287
    28  H    0.191589
    29  O   -0.518648
    30  C   -0.291934
    31  H    0.202808
    32  H    0.190251
    33  C   -0.172394
    34  H    0.218837
    35  H    0.213850
    36  N   -0.590079
    37  H    0.347446
    38  C   -0.067932
    39  H    0.223395
    40  C    0.602689
    41  C   -0.294764
    42  H    0.203387
    43  H    0.141308
    44  O   -0.431329
    45  C   -0.264887
    46  H    0.145665
    47  H    0.126215
    48  C   -0.267962
    49  H    0.127766
    50  H    0.136518
    51  C   -0.143446
    52  H    0.148685
    53  H    0.146516
    54  N   -0.698400
    55  H    0.297394
    56  H    0.297758
    57  O   -0.583584
    58  H    0.427771
    59  H    0.439803
 Sum of Mulliken charges =   1.00000

 Dipole moment (field-independent basis, Debye):
    X=            -17.4600    Y=             -3.4591    Z=             -7.9950  Tot=             19.5125
 Quadrupole moment (field-independent basis, Debye-Ang):
   XX=            -87.3100   YY=           -131.0737   ZZ=           -126.6550
   XY=            -17.3333   XZ=             37.9997   YZ=              5.3406

 Normal termination of Gaussian 16 at Wed May 25 20:22:10 2022.
