 Gaussian 16, Revision C.01,
 Gaussian 16:  ES64L-G16RevC.01  3-Jul-2019

 -------------------------------------------------------------------
 # B3LYP/6-31G* guess=read geom=check nosymm integral(ultrafinegrid)
 -------------------------------------------------------------------

 ------------------------------------------------------
 Candidate Structure: Conf:448 Charge calc in gas phase
 ------------------------------------------------------
 Structure from the checkpoint file:  "conf-448.chk"
 Charge =  1 Multiplicity = 1

                          Input orientation:
 ---------------------------------------------------------------------
 Center     Atomic      Atomic             Coordinates (Angstroms)
 Number     Number       Type             X           Y           Z
 ---------------------------------------------------------------------
      1          7           0       -6.066691    2.275846   -1.596704
      2          1           0       -6.795361    1.785907   -2.109098
      3          1           0       -6.133307    3.267477   -1.813264
      4          6           0       -4.747070    1.793199   -1.913532
      5          1           0       -4.502048    1.733220   -2.993723
      6          6           0       -4.580682    0.399189   -1.346634
      7          6           0       -3.668163    2.724032   -1.251962
      8          1           0       -3.879427    2.743610   -0.177906
      9          1           0       -2.669209    2.296024   -1.393703
     10          8           0       -5.203191   -0.174614   -0.509874
     11          6           0       -3.712883    4.122865   -1.829651
     12          6           0       -3.045233    4.419168   -3.026490
     13          1           0       -2.462574    3.647829   -3.526720
     14          6           0       -4.433891    5.138601   -1.185828
     15          1           0       -4.940016    4.927239   -0.246679
     16          6           0       -3.100339    5.701407   -3.571012
     17          1           0       -2.569973    5.919654   -4.493434
     18          6           0       -4.490166    6.423115   -1.731488
     19          1           0       -5.046583    7.202085   -1.218411
     20          6           0       -3.825765    6.705817   -2.925205
     21          1           0       -3.864882    7.705696   -3.347213
     22          7           0       -3.403922   -0.382316   -1.998395
     23          6           0       -2.596446   -1.230396   -1.031069
     24          1           0       -3.102334   -1.225124   -0.064068
     25          6           0       -1.218750   -0.534836   -0.966936
     26          6           0       -2.541432   -2.642662   -1.666286
     27          1           0       -1.571133   -3.118547   -1.502368
     28          1           0       -3.314475   -3.275100   -1.219093
     29          8           0       -0.963306    0.359776   -1.781896
     30          6           0       -2.832751   -2.398297   -3.155886
     31          1           0       -1.934785   -2.055993   -3.681226
     32          1           0       -3.205858   -3.289775   -3.666257
     33          6           0       -3.884938   -1.293828   -3.122760
     34          1           0       -4.865189   -1.676693   -2.827294
     35          1           0       -3.976877   -0.705668   -4.037646
     36          7           0       -0.375454   -0.965923   -0.019548
     37          1           0       -0.638934   -1.764781    0.545287
     38          6           0        1.027879   -0.542809    0.033351
     39          1           0        1.060344    0.511715   -0.246291
     40          6           0        1.888601   -1.289830   -0.987533
     41          6           0        1.567464   -0.732438    1.470852
     42          1           0        1.550414   -1.804764    1.712314
     43          1           0        0.850934   -0.245590    2.142933
     44          8           0        2.948969   -0.887156   -1.395099
     45          6           0        2.984714   -0.182465    1.716566
     46          1           0        3.248256   -0.429093    2.753307
     47          1           0        3.697180   -0.720183    1.082607
     48          6           0        3.158734    1.327686    1.488975
     49          1           0        2.911193    1.598841    0.455642
     50          1           0        4.225527    1.562231    1.606312
     51          6           0        2.355951    2.218399    2.442771
     52          1           0        1.282908    1.997307    2.356441
     53          1           0        2.639107    1.973079    3.483947
     54          7           0        2.533473    3.627191    2.082109
     55          1           0        3.511039    3.890866    2.202637
     56          1           0        2.004520    4.219891    2.719830
     57          8           0        1.351977   -2.485155   -1.349576
     58          1           0        1.998828   -2.901158   -1.952546
     59          1           0       -2.682496    0.279043   -2.369901
 ---------------------------------------------------------------------

 SCF Done:  E(RB3LYP) =  -1300.49296713     A.U. after    3 cycles

 Alpha  occ. eigenvalues --  -19.32186 -19.30727 -19.27600 -19.24573 -14.58669
 Alpha  occ. eigenvalues --  -14.50955 -14.43601 -14.37700 -10.46999 -10.44364
 Alpha  occ. eigenvalues --  -10.42758 -10.40095 -10.39340 -10.37387 -10.35676
 Alpha  occ. eigenvalues --  -10.34604 -10.34267 -10.31764 -10.29964 -10.29566
 Alpha  occ. eigenvalues --  -10.28233 -10.28097 -10.27829 -10.27785 -10.27697
 Alpha  occ. eigenvalues --  -10.27547 -10.27010 -10.25410  -1.23779  -1.21320
 Alpha  occ. eigenvalues --   -1.19574  -1.13422  -1.12365  -1.07420  -1.02366
 Alpha  occ. eigenvalues --   -0.95613  -0.94668  -0.94621  -0.92620  -0.90094
 Alpha  occ. eigenvalues --   -0.88894  -0.84717  -0.84611  -0.83330  -0.79528
 Alpha  occ. eigenvalues --   -0.78377  -0.77821  -0.76416  -0.74048  -0.73924
 Alpha  occ. eigenvalues --   -0.72476  -0.71118  -0.69617  -0.69216  -0.67593
 Alpha  occ. eigenvalues --   -0.65890  -0.65078  -0.64476  -0.63057  -0.62749
 Alpha  occ. eigenvalues --   -0.62292  -0.60527  -0.59913  -0.59724  -0.58705
 Alpha  occ. eigenvalues --   -0.58416  -0.58189  -0.57432  -0.56560  -0.55877
 Alpha  occ. eigenvalues --   -0.55180  -0.54700  -0.54383  -0.54125  -0.54025
 Alpha  occ. eigenvalues --   -0.53643  -0.52706  -0.51846  -0.51232  -0.50934
 Alpha  occ. eigenvalues --   -0.50878  -0.50285  -0.50202  -0.50106  -0.49738
 Alpha  occ. eigenvalues --   -0.49488  -0.48597  -0.47852  -0.46371  -0.45882
 Alpha  occ. eigenvalues --   -0.44996  -0.44275  -0.43004  -0.42885  -0.42729
 Alpha  occ. eigenvalues --   -0.42079  -0.41662  -0.41316  -0.40917  -0.40031
 Alpha  occ. eigenvalues --   -0.37112  -0.36302  -0.33939  -0.33593  -0.30002
 Alpha virt. eigenvalues --   -0.18405  -0.13146  -0.09900  -0.09552  -0.09222
 Alpha virt. eigenvalues --   -0.07524  -0.06432  -0.05724  -0.03935  -0.03617
 Alpha virt. eigenvalues --   -0.02076  -0.01466  -0.00646   0.00101   0.00507

 Mulliken charges:
               1
     1  N   -0.711192
     2  H    0.323439
     3  H    0.341112
     4  C   -0.056164
     5  H    0.150882
     6  C    0.587838
     7  C   -0.396078
     8  H    0.190922
     9  H    0.178149
    10  O   -0.353339
    11  C    0.153890
    12  C   -0.179051
    13  H    0.126620
    14  C   -0.194088
    15  H    0.151373
    16  C   -0.125272
    17  H    0.154008
    18  C   -0.125927
    19  H    0.157204
    20  C   -0.123651
    21  H    0.157888
    22  N   -0.606365
    23  C   -0.090639
    24  H    0.231985
    25  C    0.647893
    26  C   -0.310151
    27  H    0.206344
    28  H    0.196677
    29  O   -0.524392
    30  C   -0.303549
    31  H    0.196582
    32  H    0.208933
    33  C   -0.168248
    34  H    0.218924
    35  H    0.215425
    36  N   -0.597008
    37  H    0.353358
    38  C   -0.047349
    39  H    0.227137
    40  C    0.605596
    41  C   -0.310757
    42  H    0.152556
    43  H    0.168389
    44  O   -0.427580
    45  C   -0.275967
    46  H    0.153729
    47  H    0.170281
    48  C   -0.267577
    49  H    0.160505
    50  H    0.149123
    51  C   -0.131289
    52  H    0.121899
    53  H    0.122271
    54  N   -0.717867
    55  H    0.302238
    56  H    0.302211
    57  O   -0.586983
    58  H    0.428506
    59  H    0.416596
 Sum of Mulliken charges =   1.00000

 Dipole moment (field-independent basis, Debye):
    X=            -12.5413    Y=             -1.6086    Z=             -7.0557  Tot=             14.4794
 Quadrupole moment (field-independent basis, Debye-Ang):
   XX=           -105.7923   YY=           -113.3976   ZZ=           -123.9070
   XY=            -12.3339   XZ=             49.2776   YZ=              4.9806

 Normal termination of Gaussian 16 at Wed May 25 20:22:20 2022.
