 Gaussian 16, Revision C.01,
 Gaussian 16:  ES64L-G16RevC.01  3-Jul-2019

 -------------------------------------------------------------------
 # B3LYP/6-31G* guess=read geom=check nosymm integral(ultrafinegrid)
 -------------------------------------------------------------------

 ------------------------------------------------------
 Candidate Structure: Conf:966 Charge calc in gas phase
 ------------------------------------------------------
 Structure from the checkpoint file:  "conf-966.chk"
 Charge =  1 Multiplicity = 1

                          Input orientation:
 ---------------------------------------------------------------------
 Center     Atomic      Atomic             Coordinates (Angstroms)
 Number     Number       Type             X           Y           Z
 ---------------------------------------------------------------------
      1          7           0       -5.708178    2.290366   -3.030637
      2          1           0       -6.721669    2.198678   -3.030072
      3          1           0       -5.385714    2.393152   -3.989082
      4          6           0       -5.066162    1.198383   -2.322575
      5          1           0       -3.986364    1.272083   -2.487261
      6          6           0       -5.565096   -0.152426   -2.841140
      7          6           0       -5.352558    1.296531   -0.793882
      8          1           0       -6.438716    1.374722   -0.665700
      9          1           0       -5.051548    0.358827   -0.307146
     10          8           0       -6.693805   -0.532419   -2.912799
     11          6           0       -4.632306    2.456977   -0.145688
     12          6           0       -5.198615    3.737641   -0.121442
     13          1           0       -6.175646    3.901742   -0.565621
     14          6           0       -3.370201    2.264921    0.432008
     15          1           0       -2.922807    1.271497    0.431780
     16          6           0       -4.516063    4.802180    0.467252
     17          1           0       -4.969263    5.789093    0.482861
     18          6           0       -2.685006    3.327967    1.019981
     19          1           0       -1.710660    3.162563    1.471303
     20          6           0       -3.258108    4.600738    1.037947
     21          1           0       -2.729817    5.429688    1.499816
     22          7           0       -4.457639   -1.112653   -3.371158
     23          6           0       -3.668617   -1.807156   -2.258420
     24          1           0       -4.129117   -1.583448   -1.293104
     25          6           0       -2.249987   -1.192615   -2.344989
     26          6           0       -3.723659   -3.312642   -2.611033
     27          1           0       -2.796845   -3.820784   -2.332324
     28          1           0       -4.550739   -3.786243   -2.073164
     29          8           0       -1.995106   -0.425972   -3.280082
     30          6           0       -3.975354   -3.333004   -4.127211
     31          1           0       -3.045076   -3.159593   -4.678498
     32          1           0       -4.399345   -4.280323   -4.468928
     33          6           0       -4.951005   -2.177695   -4.330566
     34          1           0       -5.968731   -2.426972   -4.025050
     35          1           0       -4.969876   -1.755018   -5.336795
     36          7           0       -1.391578   -1.542651   -1.377724
     37          1           0       -1.678844   -2.240073   -0.701969
     38          6           0        0.037245   -1.221224   -1.431367
     39          1           0        0.131784   -0.365914   -2.106848
     40          6           0        0.865260   -2.350004   -2.060856
     41          6           0        0.599778   -0.835137   -0.049067
     42          1           0        0.085974    0.074836    0.283407
     43          1           0        1.651405   -0.573858   -0.204292
     44          8           0        2.067046   -2.317373   -2.138792
     45          6           0        0.495566   -1.927571    1.024812
     46          1           0       -0.559845   -2.183562    1.212914
     47          1           0        0.981929   -2.845790    0.666386
     48          6           0        1.136035   -1.511049    2.357214
     49          1           0        0.669643   -0.581428    2.715720
     50          1           0        2.198276   -1.282206    2.191582
     51          6           0        1.012569   -2.592338    3.447599
     52          1           0       -0.050014   -2.817351    3.614939
     53          1           0        1.468905   -3.523798    3.086920
     54          7           0        1.608891   -2.279721    4.742243
     55          1           0        1.208867   -1.423953    5.123650
     56          1           0        2.608948   -2.113187    4.643430
     57          8           0        0.109720   -3.378441   -2.522854
     58          1           0        0.735966   -4.023677   -2.906571
     59          1           0       -3.699591   -0.541354   -3.819567
 ---------------------------------------------------------------------

 SCF Done:  E(RB3LYP) =  -1300.49072895     A.U. after    2 cycles

 Alpha  occ. eigenvalues --  -19.32766 -19.31577 -19.28538 -19.25232 -14.59036
 Alpha  occ. eigenvalues --  -14.51816 -14.45383 -14.37817 -10.47369 -10.45306
 Alpha  occ. eigenvalues --  -10.43587 -10.41483 -10.38508 -10.37568 -10.36559
 Alpha  occ. eigenvalues --  -10.35244 -10.34269 -10.31737 -10.30103 -10.29084
 Alpha  occ. eigenvalues --  -10.28956 -10.28154 -10.28086 -10.27580 -10.27514
 Alpha  occ. eigenvalues --  -10.27260 -10.27181 -10.26706  -1.24236  -1.22139
 Alpha  occ. eigenvalues --   -1.20497  -1.13743  -1.13159  -1.08326  -1.03122
 Alpha  occ. eigenvalues --   -0.95912  -0.94871  -0.94454  -0.93141  -0.90707
 Alpha  occ. eigenvalues --   -0.89030  -0.86069  -0.84186  -0.82998  -0.80304
 Alpha  occ. eigenvalues --   -0.78936  -0.77318  -0.77082  -0.74421  -0.74268
 Alpha  occ. eigenvalues --   -0.73653  -0.71329  -0.69312  -0.68966  -0.67985
 Alpha  occ. eigenvalues --   -0.67472  -0.66692  -0.65648  -0.63663  -0.63321
 Alpha  occ. eigenvalues --   -0.62694  -0.61164  -0.60112  -0.59840  -0.59413
 Alpha  occ. eigenvalues --   -0.59093  -0.58422  -0.57749  -0.57399  -0.56835
 Alpha  occ. eigenvalues --   -0.56099  -0.55600  -0.54822  -0.54503  -0.54264
 Alpha  occ. eigenvalues --   -0.53590  -0.52796  -0.51955  -0.51604  -0.51400
 Alpha  occ. eigenvalues --   -0.51005  -0.50654  -0.50474  -0.50252  -0.50101
 Alpha  occ. eigenvalues --   -0.49748  -0.48502  -0.48370  -0.47013  -0.45262
 Alpha  occ. eigenvalues --   -0.44991  -0.44256  -0.44247  -0.43243  -0.43091
 Alpha  occ. eigenvalues --   -0.43035  -0.42786  -0.42685  -0.42400  -0.41346
 Alpha  occ. eigenvalues --   -0.37910  -0.37178  -0.33467  -0.33219  -0.29854
 Alpha virt. eigenvalues --   -0.19005  -0.14126  -0.10582  -0.09687  -0.08625
 Alpha virt. eigenvalues --   -0.07930  -0.06940  -0.06816  -0.04136  -0.03946
 Alpha virt. eigenvalues --   -0.03204  -0.02464  -0.01594  -0.01307  -0.00788

 Mulliken charges:
               1
     1  N   -0.675833
     2  H    0.333588
     3  H    0.328639
     4  C   -0.069507
     5  H    0.185534
     6  C    0.556842
     7  C   -0.372687
     8  H    0.185693
     9  H    0.145489
    10  O   -0.369911
    11  C    0.180658
    12  C   -0.151071
    13  H    0.138123
    14  C   -0.182458
    15  H    0.099143
    16  C   -0.130051
    17  H    0.154015
    18  C   -0.125755
    19  H    0.139578
    20  C   -0.123557
    21  H    0.153591
    22  N   -0.605157
    23  C   -0.104882
    24  H    0.216440
    25  C    0.653460
    26  C   -0.301627
    27  H    0.207088
    28  H    0.196019
    29  O   -0.522631
    30  C   -0.309996
    31  H    0.194944
    32  H    0.209208
    33  C   -0.158403
    34  H    0.231968
    35  H    0.214319
    36  N   -0.591542
    37  H    0.357098
    38  C   -0.086905
    39  H    0.231765
    40  C    0.608475
    41  C   -0.275321
    42  H    0.159144
    43  H    0.196127
    44  O   -0.426965
    45  C   -0.289023
    46  H    0.114178
    47  H    0.157278
    48  C   -0.266578
    49  H    0.131549
    50  H    0.146665
    51  C   -0.139935
    52  H    0.137916
    53  H    0.148479
    54  N   -0.698078
    55  H    0.297934
    56  H    0.302106
    57  O   -0.585699
    58  H    0.431376
    59  H    0.419143
 Sum of Mulliken charges =   1.00000

 Dipole moment (field-independent basis, Debye):
    X=            -17.1459    Y=             -5.6033    Z=            -11.3509  Tot=             21.3124
 Quadrupole moment (field-independent basis, Debye-Ang):
   XX=            -84.2380   YY=           -125.6342   ZZ=           -121.8144
   XY=             12.9597   XZ=             58.3683   YZ=             31.2846

 Normal termination of Gaussian 16 at Wed May 25 20:30:00 2022.
