 Gaussian 16, Revision C.01,
 Gaussian 16:  ES64L-G16RevC.01  3-Jul-2019

 -------------------------------------------------------------------
 # B3LYP/6-31G* guess=read geom=check nosymm integral(ultrafinegrid)
 -------------------------------------------------------------------

 ------------------------------------------------------
 Candidate Structure: Conf:684 Charge calc in gas phase
 ------------------------------------------------------
 Structure from the checkpoint file:  "conf-684.chk"
 Charge =  1 Multiplicity = 1

                          Input orientation:
 ---------------------------------------------------------------------
 Center     Atomic      Atomic             Coordinates (Angstroms)
 Number     Number       Type             X           Y           Z
 ---------------------------------------------------------------------
      1          7           0       -3.012789    3.129253    2.532915
      2          1           0       -3.550948    3.982449    2.446082
      3          1           0       -2.078521    3.180745    2.146828
      4          6           0       -3.728898    1.884785    2.368584
      5          1           0       -2.983294    1.080214    2.379293
      6          6           0       -4.428999    1.867637    1.003123
      7          6           0       -4.750671    1.628073    3.498889
      8          1           0       -5.431064    2.485942    3.552996
      9          1           0       -5.364297    0.763437    3.221495
     10          8           0       -5.591871    1.869896    0.741952
     11          6           0       -4.075714    1.389114    4.833040
     12          6           0       -3.653741    0.100782    5.188037
     13          1           0       -3.838533   -0.733464    4.513444
     14          6           0       -3.849554    2.442489    5.727494
     15          1           0       -4.176161    3.446315    5.469386
     16          6           0       -3.017243   -0.131860    6.407945
     17          1           0       -2.703514   -1.137847    6.670750
     18          6           0       -3.218212    2.213939    6.950482
     19          1           0       -3.061392    3.039630    7.638810
     20          6           0       -2.800358    0.926018    7.293937
     21          1           0       -2.324147    0.744554    8.253628
     22          7           0       -3.430315    1.986730   -0.190703
     23          6           0       -2.755213    0.666603   -0.549736
     24          1           0       -3.225183   -0.143188    0.015324
     25          6           0       -1.284102    0.839725   -0.088922
     26          6           0       -2.958729    0.514477   -2.075030
     27          1           0       -2.103942    0.026008   -2.550547
     28          1           0       -3.844926   -0.098283   -2.266652
     29          8           0       -0.939690    1.925528    0.400062
     30          6           0       -3.178292    1.953922   -2.569311
     31          1           0       -2.224227    2.480889   -2.679482
     32          1           0       -3.696126    1.992410   -3.530658
     33          6           0       -4.015966    2.576755   -1.455233
     34          1           0       -5.062252    2.267260   -1.491373
     35          1           0       -3.965184    3.665096   -1.386988
     36          7           0       -0.498934   -0.226739   -0.239779
     37          1           0       -0.822518   -1.024646   -0.779921
     38          6           0        0.933370   -0.256908    0.071617
     39          1           0        1.289193    0.773942    0.136439
     40          6           0        1.599993   -0.960017   -1.108055
     41          6           0        1.232283   -1.015330    1.390406
     42          1           0        2.321752   -1.044022    1.508144
     43          1           0        0.901468   -2.054684    1.263031
     44          8           0        0.985794   -1.595201   -1.940648
     45          6           0        0.580309   -0.414731    2.643024
     46          1           0       -0.505670   -0.326649    2.487772
     47          1           0        0.697831   -1.123437    3.468549
     48          6           0        1.148577    0.937725    3.090536
     49          1           0        1.031054    1.694511    2.303573
     50          1           0        2.229794    0.834821    3.265848
     51          6           0        0.477306    1.465255    4.367447
     52          1           0        0.881513    2.468187    4.590635
     53          1           0       -0.596487    1.600058    4.181396
     54          7           0        0.610995    0.509545    5.471401
     55          1           0       -0.025211    0.760887    6.224938
     56          1           0        1.552660    0.552927    5.858876
     57          8           0        2.930273   -0.823521   -1.083224
     58          1           0        3.298316   -1.332257   -1.832178
     59          1           0       -2.619800    2.554975    0.144991
 ---------------------------------------------------------------------

 SCF Done:  E(RB3LYP) =  -1300.50097780     A.U. after    2 cycles

 Alpha  occ. eigenvalues --  -19.32538 -19.31251 -19.28144 -19.25903 -14.58477
 Alpha  occ. eigenvalues --  -14.51132 -14.45875 -14.38268 -10.46972 -10.44965
 Alpha  occ. eigenvalues --  -10.43950 -10.40996 -10.38233 -10.37673 -10.36126
 Alpha  occ. eigenvalues --  -10.34893 -10.34025 -10.30318 -10.29600 -10.28506
 Alpha  occ. eigenvalues --  -10.28322 -10.27397 -10.27156 -10.27118 -10.27055
 Alpha  occ. eigenvalues --  -10.26977 -10.26894 -10.26278  -1.23909  -1.22408
 Alpha  occ. eigenvalues --   -1.20003  -1.13701  -1.13374  -1.07692  -1.03414
 Alpha  occ. eigenvalues --   -0.95422  -0.95139  -0.93924  -0.92754  -0.90127
 Alpha  occ. eigenvalues --   -0.88576  -0.85449  -0.83779  -0.82502  -0.80222
 Alpha  occ. eigenvalues --   -0.78952  -0.77182  -0.76768  -0.74723  -0.73288
 Alpha  occ. eigenvalues --   -0.72344  -0.71404  -0.69516  -0.68833  -0.67884
 Alpha  occ. eigenvalues --   -0.66202  -0.66030  -0.64994  -0.63900  -0.62987
 Alpha  occ. eigenvalues --   -0.61423  -0.60736  -0.60481  -0.59780  -0.59413
 Alpha  occ. eigenvalues --   -0.59058  -0.58797  -0.57530  -0.56924  -0.56385
 Alpha  occ. eigenvalues --   -0.55741  -0.55394  -0.54473  -0.54158  -0.53644
 Alpha  occ. eigenvalues --   -0.53449  -0.52659  -0.52187  -0.51746  -0.50957
 Alpha  occ. eigenvalues --   -0.50754  -0.50449  -0.50065  -0.49755  -0.49640
 Alpha  occ. eigenvalues --   -0.49074  -0.48984  -0.47715  -0.47525  -0.45109
 Alpha  occ. eigenvalues --   -0.44834  -0.43894  -0.43369  -0.42629  -0.42562
 Alpha  occ. eigenvalues --   -0.42231  -0.42210  -0.41886  -0.41237  -0.40367
 Alpha  occ. eigenvalues --   -0.39235  -0.36875  -0.33025  -0.32808  -0.30561
 Alpha virt. eigenvalues --   -0.18366  -0.13678  -0.10616  -0.09131  -0.08312
 Alpha virt. eigenvalues --   -0.07803  -0.05980  -0.05231  -0.04419  -0.03596
 Alpha virt. eigenvalues --   -0.03117  -0.02123  -0.00854   0.00243   0.00270

 Mulliken charges:
               1
     1  N   -0.732563
     2  H    0.334439
     3  H    0.358995
     4  C   -0.052140
     5  H    0.192667
     6  C    0.562529
     7  C   -0.359424
     8  H    0.172603
     9  H    0.173101
    10  O   -0.361767
    11  C    0.176939
    12  C   -0.183605
    13  H    0.120462
    14  C   -0.161236
    15  H    0.128948
    16  C   -0.118332
    17  H    0.151211
    18  C   -0.130672
    19  H    0.149676
    20  C   -0.143993
    21  H    0.150409
    22  N   -0.600907
    23  C   -0.095981
    24  H    0.219018
    25  C    0.643407
    26  C   -0.304340
    27  H    0.206929
    28  H    0.197497
    29  O   -0.540005
    30  C   -0.308393
    31  H    0.190140
    32  H    0.210148
    33  C   -0.158243
    34  H    0.230547
    35  H    0.211039
    36  N   -0.583550
    37  H    0.365567
    38  C   -0.072607
    39  H    0.216751
    40  C    0.599127
    41  C   -0.275465
    42  H    0.182694
    43  H    0.152445
    44  O   -0.466798
    45  C   -0.252424
    46  H    0.107344
    47  H    0.189881
    48  C   -0.268952
    49  H    0.136584
    50  H    0.139762
    51  C   -0.148186
    52  H    0.127208
    53  H    0.138230
    54  N   -0.723768
    55  H    0.310659
    56  H    0.301018
    57  O   -0.547553
    58  H    0.436206
    59  H    0.406725
 Sum of Mulliken charges =   1.00000

 Dipole moment (field-independent basis, Debye):
    X=             -9.6601    Y=              6.2985    Z=              1.4662  Tot=             11.6249
 Quadrupole moment (field-independent basis, Debye-Ang):
   XX=           -115.0580   YY=           -137.8065   ZZ=           -120.2918
   XY=            -28.1075   XZ=              1.1197   YZ=              5.8457

 Normal termination of Gaussian 16 at Wed May 25 20:22:17 2022.
