 Gaussian 16, Revision C.01,
 Gaussian 16:  ES64L-G16RevC.01  3-Jul-2019

 -------------------------------------------------------------------
 # B3LYP/6-31G* guess=read geom=check nosymm integral(ultrafinegrid)
 -------------------------------------------------------------------

 ------------------------------------------------------
 Candidate Structure: Conf:234 Charge calc in gas phase
 ------------------------------------------------------
 Structure from the checkpoint file:  "conf-234.chk"
 Charge =  1 Multiplicity = 1

                          Input orientation:
 ---------------------------------------------------------------------
 Center     Atomic      Atomic             Coordinates (Angstroms)
 Number     Number       Type             X           Y           Z
 ---------------------------------------------------------------------
      1          7           0       -3.604248    4.329256    0.506704
      2          1           0       -2.906913    4.891561    0.984907
      3          1           0       -4.358650    4.942543    0.200826
      4          6           0       -4.114811    3.257774    1.356337
      5          1           0       -3.354519    3.025950    2.116241
      6          6           0       -4.201698    1.956528    0.552721
      7          6           0       -5.458547    3.540198    2.090620
      8          1           0       -5.744303    2.635629    2.636659
      9          1           0       -5.254666    4.317201    2.834796
     10          8           0       -4.717985    0.937803    0.860434
     11          6           0       -6.567819    3.980738    1.158232
     12          6           0       -6.776077    5.342299    0.889651
     13          1           0       -6.178840    6.090760    1.407072
     14          6           0       -7.394032    3.037578    0.523970
     15          1           0       -7.279614    1.981160    0.754464
     16          6           0       -7.770737    5.752869   -0.001732
     17          1           0       -7.924232    6.811927   -0.187617
     18          6           0       -8.389656    3.447692   -0.364929
     19          1           0       -9.034151    2.707313   -0.830718
     20          6           0       -8.575932    4.805906   -0.635024
     21          1           0       -9.356922    5.123815   -1.319346
     22          7           0       -3.469191    2.035580   -0.786862
     23          6           0       -2.636921    0.816264   -1.097986
     24          1           0       -3.105839   -0.026826   -0.580673
     25          6           0       -1.229296    1.099959   -0.543406
     26          6           0       -2.769676    0.656777   -2.622039
     27          1           0       -2.076132    1.332622   -3.135890
     28          1           0       -2.549482   -0.363912   -2.944852
     29          8           0       -0.977061    2.214669   -0.085017
     30          6           0       -4.227497    1.067447   -2.874080
     31          1           0       -4.431680    1.311419   -3.919769
     32          1           0       -4.907561    0.263017   -2.574542
     33          6           0       -4.418439    2.287789   -1.968034
     34          1           0       -5.435695    2.422396   -1.595382
     35          1           0       -4.084892    3.217586   -2.433090
     36          7           0       -0.352203    0.083347   -0.615359
     37          1           0       -0.683910   -0.825299   -0.909372
     38          6           0        1.016774    0.176996   -0.080120
     39          1           0        1.411432   -0.846151   -0.126258
     40          6           0        1.017294    0.543628    1.412456
     41          6           0        1.936173    1.095709   -0.898386
     42          1           0        2.875689    1.178314   -0.343010
     43          1           0        1.501820    2.100943   -0.922305
     44          8           0        1.905858    1.142261    1.964414
     45          6           0        2.209806    0.584005   -2.317697
     46          1           0        2.656822   -0.418471   -2.260339
     47          1           0        1.263173    0.480330   -2.870709
     48          6           0        3.157627    1.507331   -3.094047
     49          1           0        4.099314    1.601779   -2.539336
     50          1           0        2.717036    2.512559   -3.159252
     51          6           0        3.482190    1.016968   -4.510555
     52          1           0        2.558702    1.019909   -5.119992
     53          1           0        4.160599    1.740726   -4.975639
     54          7           0        4.167128   -0.281259   -4.483231
     55          1           0        4.665568   -0.431846   -5.357446
     56          1           0        3.492285   -1.040031   -4.414221
     57          8           0       -0.060735    0.040790    2.062345
     58          1           0        0.069260    0.260005    3.005138
     59          1           0       -2.845878    2.864457   -0.659249
 ---------------------------------------------------------------------

 SCF Done:  E(RB3LYP) =  -1300.50346361     A.U. after    1 cycles

 Alpha  occ. eigenvalues --  -19.32320 -19.29374 -19.25919 -19.23539 -14.57565
 Alpha  occ. eigenvalues --  -14.49899 -14.46591 -14.37535 -10.46968 -10.43147
 Alpha  occ. eigenvalues --  -10.41851 -10.39253 -10.38489 -10.37988 -10.35164
 Alpha  occ. eigenvalues --  -10.34337 -10.33786 -10.31793 -10.30829 -10.29584
 Alpha  occ. eigenvalues --  -10.29541 -10.29342 -10.29233 -10.29007 -10.27385
 Alpha  occ. eigenvalues --  -10.27320 -10.26557 -10.24924  -1.24435  -1.20283
 Alpha  occ. eigenvalues --   -1.18044  -1.12919  -1.11280  -1.06096  -1.04079
 Alpha  occ. eigenvalues --   -0.96064  -0.95176  -0.94298  -0.91666  -0.89825
 Alpha  occ. eigenvalues --   -0.88882  -0.85243  -0.84736  -0.84330  -0.80426
 Alpha  occ. eigenvalues --   -0.78107  -0.77028  -0.75624  -0.73903  -0.73453
 Alpha  occ. eigenvalues --   -0.71597  -0.70962  -0.70663  -0.68587  -0.67200
 Alpha  occ. eigenvalues --   -0.65982  -0.64939  -0.64744  -0.63538  -0.62916
 Alpha  occ. eigenvalues --   -0.61513  -0.61225  -0.59422  -0.59041  -0.58610
 Alpha  occ. eigenvalues --   -0.58187  -0.57635  -0.56788  -0.56464  -0.55656
 Alpha  occ. eigenvalues --   -0.55560  -0.55490  -0.54760  -0.54354  -0.53862
 Alpha  occ. eigenvalues --   -0.52944  -0.52446  -0.52094  -0.51819  -0.51315
 Alpha  occ. eigenvalues --   -0.50740  -0.50099  -0.49993  -0.49821  -0.49524
 Alpha  occ. eigenvalues --   -0.48969  -0.48575  -0.46737  -0.46302  -0.45262
 Alpha  occ. eigenvalues --   -0.45078  -0.44399  -0.44313  -0.43920  -0.41566
 Alpha  occ. eigenvalues --   -0.41283  -0.41077  -0.40190  -0.39759  -0.39540
 Alpha  occ. eigenvalues --   -0.39154  -0.36305  -0.35536  -0.35079  -0.29774
 Alpha virt. eigenvalues --   -0.18434  -0.11893  -0.11131  -0.10955  -0.09026
 Alpha virt. eigenvalues --   -0.06977  -0.05408  -0.04639  -0.03759  -0.02756
 Alpha virt. eigenvalues --   -0.01857  -0.01151  -0.00598  -0.00210   0.00236

 Mulliken charges:
               1
     1  N   -0.777193
     2  H    0.354122
     3  H    0.342014
     4  C   -0.075383
     5  H    0.220936
     6  C    0.599012
     7  C   -0.368708
     8  H    0.194385
     9  H    0.182305
    10  O   -0.370402
    11  C    0.146273
    12  C   -0.205921
    13  H    0.144078
    14  C   -0.207228
    15  H    0.152915
    16  C   -0.124253
    17  H    0.161127
    18  C   -0.132027
    19  H    0.156410
    20  C   -0.126553
    21  H    0.161199
    22  N   -0.592897
    23  C   -0.092069
    24  H    0.225212
    25  C    0.657482
    26  C   -0.303903
    27  H    0.189171
    28  H    0.192235
    29  O   -0.527317
    30  C   -0.293490
    31  H    0.202780
    32  H    0.190325
    33  C   -0.165917
    34  H    0.218398
    35  H    0.212352
    36  N   -0.597384
    37  H    0.351714
    38  C   -0.070969
    39  H    0.193723
    40  C    0.615302
    41  C   -0.263497
    42  H    0.189675
    43  H    0.170566
    44  O   -0.436117
    45  C   -0.276055
    46  H    0.145953
    47  H    0.108175
    48  C   -0.233807
    49  H    0.157875
    50  H    0.125609
    51  C   -0.149345
    52  H    0.108239
    53  H    0.152747
    54  N   -0.713434
    55  H    0.309505
    56  H    0.292841
    57  O   -0.583838
    58  H    0.423825
    59  H    0.439225
 Sum of Mulliken charges =   1.00000

 Dipole moment (field-independent basis, Debye):
    X=            -17.7573    Y=              9.0539    Z=             -5.5019  Tot=             20.6777
 Quadrupole moment (field-independent basis, Debye-Ang):
   XX=            -78.8393   YY=           -113.6692   ZZ=           -127.3552
   XY=            -59.7931   XZ=              6.7833   YZ=              1.3847

 Normal termination of Gaussian 16 at Wed May 25 20:21:56 2022.
