 Gaussian 16, Revision C.01,
 Gaussian 16:  ES64L-G16RevC.01  3-Jul-2019

 -------------------------------------------------------------------
 # B3LYP/6-31G* guess=read geom=check nosymm integral(ultrafinegrid)
 -------------------------------------------------------------------

 ------------------------------------------------------
 Candidate Structure: Conf:549 Charge calc in gas phase
 ------------------------------------------------------
 Structure from the checkpoint file:  "conf-549.chk"
 Charge =  1 Multiplicity = 1

                          Input orientation:
 ---------------------------------------------------------------------
 Center     Atomic      Atomic             Coordinates (Angstroms)
 Number     Number       Type             X           Y           Z
 ---------------------------------------------------------------------
      1          7           0       -3.208885    3.942026    1.367834
      2          1           0       -2.350477    3.794888    1.895290
      3          1           0       -3.515628    4.900500    1.526254
      4          6           0       -4.249334    3.003682    1.775528
      5          1           0       -4.176991    2.684075    2.824489
      6          6           0       -4.135699    1.719767    0.962397
      7          6           0       -5.678657    3.599306    1.565812
      8          1           0       -5.799479    3.865625    0.508642
      9          1           0       -6.401867    2.809069    1.792766
     10          8           0       -4.663478    0.677809    1.162168
     11          6           0       -5.914366    4.817083    2.433077
     12          6           0       -5.845867    6.106853    1.888650
     13          1           0       -5.664437    6.234808    0.823063
     14          6           0       -6.185062    4.672495    3.801679
     15          1           0       -6.258397    3.677972    4.237166
     16          6           0       -6.039921    7.231067    2.695429
     17          1           0       -5.992537    8.223931    2.257740
     18          6           0       -6.380045    5.793207    4.606920
     19          1           0       -6.598547    5.666800    5.663274
     20          6           0       -6.305032    7.075503    4.055638
     21          1           0       -6.461196    7.947545    4.683662
     22          7           0       -3.235180    1.867680   -0.271342
     23          6           0       -2.343570    0.673351   -0.507236
     24          1           0       -2.903342   -0.205652   -0.170356
     25          6           0       -1.080036    0.876935    0.340895
     26          6           0       -2.153980    0.652354   -2.032853
     27          1           0       -1.369005    1.357477   -2.327011
     28          1           0       -1.861988   -0.339231   -2.389289
     29          8           0       -0.976882    1.874122    1.053302
     30          6           0       -3.537934    1.070077   -2.551284
     31          1           0       -3.513440    1.447653   -3.576481
     32          1           0       -4.225751    0.218948   -2.522278
     33          6           0       -4.003237    2.154397   -1.568291
     34          1           0       -5.074898    2.128213   -1.366037
     35          1           0       -3.721822    3.163477   -1.875394
     36          7           0       -0.149273   -0.098056    0.248608
     37          1           0       -0.260487   -0.783623   -0.489513
     38          6           0        1.224601    0.139519    0.686044
     39          1           0        1.176763    0.708092    1.619423
     40          6           0        1.915600    1.028519   -0.359874
     41          6           0        1.978734   -1.182030    0.925625
     42          1           0        3.022910   -0.929834    1.136340
     43          1           0        1.986918   -1.767851   -0.005805
     44          8           0        1.409733    1.385654   -1.401725
     45          6           0        1.401939   -2.019394    2.074519
     46          1           0        1.393883   -1.411836    2.991323
     47          1           0        0.353712   -2.268170    1.860223
     48          6           0        2.196786   -3.307396    2.325960
     49          1           0        3.243101   -3.049898    2.544291
     50          1           0        2.213758   -3.914914    1.408355
     51          6           0        1.645469   -4.161447    3.486352
     52          1           0        2.332895   -4.996992    3.662867
     53          1           0        1.647386   -3.564515    4.408077
     54          7           0        0.304410   -4.723198    3.326586
     55          1           0        0.257763   -5.307575    2.493418
     56          1           0       -0.391552   -3.989091    3.215117
     57          8           0        3.156725    1.360765    0.028630
     58          1           0        3.546846    1.918842   -0.671742
     59          1           0       -2.667449    2.707570   -0.014668
 ---------------------------------------------------------------------

 SCF Done:  E(RB3LYP) =  -1300.50952610     A.U. after    1 cycles

 Alpha  occ. eigenvalues --  -19.32018 -19.30279 -19.26091 -19.24890 -14.57540
 Alpha  occ. eigenvalues --  -14.49542 -14.45937 -14.37855 -10.46681 -10.43299
 Alpha  occ. eigenvalues --  -10.42844 -10.39117 -10.38663 -10.37384 -10.35293
 Alpha  occ. eigenvalues --  -10.33855 -10.33603 -10.32258 -10.30000 -10.29522
 Alpha  occ. eigenvalues --  -10.28751 -10.28524 -10.28192 -10.28141 -10.27948
 Alpha  occ. eigenvalues --  -10.27566 -10.27348 -10.25811  -1.23974  -1.21346
 Alpha  occ. eigenvalues --   -1.18194  -1.12905  -1.12418  -1.06199  -1.03616
 Alpha  occ. eigenvalues --   -0.95239  -0.94869  -0.94621  -0.91910  -0.89739
 Alpha  occ. eigenvalues --   -0.89329  -0.84831  -0.84650  -0.83766  -0.80076
 Alpha  occ. eigenvalues --   -0.78119  -0.77201  -0.75341  -0.74028  -0.73274
 Alpha  occ. eigenvalues --   -0.71620  -0.71100  -0.70035  -0.68977  -0.67974
 Alpha  occ. eigenvalues --   -0.66128  -0.64811  -0.63927  -0.62996  -0.62139
 Alpha  occ. eigenvalues --   -0.61065  -0.60746  -0.60315  -0.60262  -0.58967
 Alpha  occ. eigenvalues --   -0.58330  -0.57949  -0.56890  -0.56264  -0.56099
 Alpha  occ. eigenvalues --   -0.55703  -0.55328  -0.54854  -0.54629  -0.53639
 Alpha  occ. eigenvalues --   -0.53387  -0.51836  -0.51343  -0.51055  -0.50975
 Alpha  occ. eigenvalues --   -0.50636  -0.50510  -0.50411  -0.49530  -0.49356
 Alpha  occ. eigenvalues --   -0.48842  -0.48334  -0.47928  -0.46691  -0.45367
 Alpha  occ. eigenvalues --   -0.44494  -0.44277  -0.43650  -0.43443  -0.43178
 Alpha  occ. eigenvalues --   -0.42497  -0.41455  -0.40661  -0.40320  -0.39563
 Alpha  occ. eigenvalues --   -0.38968  -0.37943  -0.34412  -0.34073  -0.29731
 Alpha virt. eigenvalues --   -0.18262  -0.11915  -0.09966  -0.09773  -0.09740
 Alpha virt. eigenvalues --   -0.07215  -0.05067  -0.04753  -0.03663  -0.02245
 Alpha virt. eigenvalues --   -0.02041  -0.01568  -0.00769   0.00030   0.00462

 Mulliken charges:
               1
     1  N   -0.793736
     2  H    0.362579
     3  H    0.349758
     4  C   -0.044261
     5  H    0.205441
     6  C    0.582147
     7  C   -0.386554
     8  H    0.160607
     9  H    0.197345
    10  O   -0.369203
    11  C    0.158774
    12  C   -0.199210
    13  H    0.134310
    14  C   -0.179530
    15  H    0.139926
    16  C   -0.124752
    17  H    0.156564
    18  C   -0.124889
    19  H    0.158462
    20  C   -0.123633
    21  H    0.159891
    22  N   -0.593690
    23  C   -0.092749
    24  H    0.229936
    25  C    0.654920
    26  C   -0.312800
    27  H    0.211162
    28  H    0.189206
    29  O   -0.532244
    30  C   -0.298989
    31  H    0.204281
    32  H    0.190661
    33  C   -0.156256
    34  H    0.212630
    35  H    0.214969
    36  N   -0.583534
    37  H    0.345994
    38  C   -0.068217
    39  H    0.215293
    40  C    0.602585
    41  C   -0.295005
    42  H    0.190795
    43  H    0.144934
    44  O   -0.471756
    45  C   -0.256905
    46  H    0.145653
    47  H    0.121551
    48  C   -0.265035
    49  H    0.142367
    50  H    0.129410
    51  C   -0.147520
    52  H    0.159233
    53  H    0.147260
    54  N   -0.700196
    55  H    0.295753
    56  H    0.291529
    57  O   -0.551368
    58  H    0.431267
    59  H    0.434839
 Sum of Mulliken charges =   1.00000

 Dipole moment (field-independent basis, Debye):
    X=            -11.8775    Y=              9.9096    Z=             -0.3071  Tot=             15.4715
 Quadrupole moment (field-independent basis, Debye-Ang):
   XX=            -89.5486   YY=           -111.5332   ZZ=           -144.3022
   XY=            -53.2036   XZ=             -6.5841   YZ=             23.8605

 Normal termination of Gaussian 16 at Wed May 25 20:21:57 2022.
