 Gaussian 16, Revision C.01,
 Gaussian 16:  ES64L-G16RevC.01  3-Jul-2019

 -------------------------------------------------------------------
 # B3LYP/6-31G* guess=read geom=check nosymm integral(ultrafinegrid)
 -------------------------------------------------------------------

 ------------------------------------------------------
 Candidate Structure: Conf:172 Charge calc in gas phase
 ------------------------------------------------------
 Structure from the checkpoint file:  "conf-172.chk"
 Charge =  1 Multiplicity = 1

                          Input orientation:
 ---------------------------------------------------------------------
 Center     Atomic      Atomic             Coordinates (Angstroms)
 Number     Number       Type             X           Y           Z
 ---------------------------------------------------------------------
      1          7           0       -4.522540    0.755352   -4.927256
      2          1           0       -4.500358    0.841228   -5.940822
      3          1           0       -5.067274    1.534002   -4.560629
      4          6           0       -3.176501    0.776959   -4.392521
      5          1           0       -2.604541   -0.024134   -4.878784
      6          6           0       -3.266815    0.459356   -2.916898
      7          6           0       -2.338105    2.106547   -4.581529
      8          1           0       -1.333539    1.974989   -4.157707
      9          1           0       -2.204687    2.203955   -5.665176
     10          8           0       -4.138524    0.725120   -2.151089
     11          6           0       -2.994920    3.340515   -4.010317
     12          6           0       -3.961853    4.043723   -4.744167
     13          1           0       -4.207849    3.727368   -5.755148
     14          6           0       -2.663503    3.797910   -2.726663
     15          1           0       -1.888369    3.290945   -2.155322
     16          6           0       -4.591859    5.165569   -4.202703
     17          1           0       -5.333065    5.702212   -4.787649
     18          6           0       -3.290847    4.919657   -2.184260
     19          1           0       -3.019265    5.262889   -1.189647
     20          6           0       -4.260960    5.603507   -2.919624
     21          1           0       -4.747905    6.478641   -2.499773
     22          7           0       -2.030127   -0.287133   -2.359548
     23          6           0       -1.733850   -0.030863   -0.894172
     24          1           0       -2.532395    0.596038   -0.492139
     25          6           0       -0.385430    0.728007   -0.909563
     26          6           0       -1.685239   -1.429078   -0.236596
     27          1           0       -0.951816   -1.472349    0.572345
     28          1           0       -2.666821   -1.668818    0.184183
     29          8           0        0.200139    0.881354   -1.989101
     30          6           0       -1.346623   -2.376992   -1.397980
     31          1           0       -0.275451   -2.354941   -1.626035
     32          1           0       -1.628309   -3.413373   -1.195801
     33          6           0       -2.151236   -1.799375   -2.559397
     34          1           0       -3.212497   -2.050708   -2.486008
     35          1           0       -1.782593   -2.054307   -3.554012
     36          7           0        0.069145    1.177024    0.265829
     37          1           0       -0.514593    1.077335    1.086105
     38          6           0        1.334835    1.924977    0.406640
     39          1           0        1.308872    2.331262    1.425118
     40          6           0        1.353992    3.144034   -0.530900
     41          6           0        2.580106    1.033217    0.250377
     42          1           0        2.743216    0.834919   -0.813801
     43          1           0        2.357312    0.073023    0.733473
     44          8           0        2.319568    3.533809   -1.135483
     45          6           0        3.845131    1.634859    0.881229
     46          1           0        4.061078    2.600629    0.412516
     47          1           0        3.658782    1.831870    1.947950
     48          6           0        5.066678    0.716020    0.743126
     49          1           0        5.262991    0.525498   -0.322276
     50          1           0        4.851514   -0.262239    1.199873
     51          6           0        6.334146    1.305517    1.390395
     52          1           0        6.547984    2.283837    0.940518
     53          1           0        6.143051    1.494245    2.455337
     54          7           0        7.547314    0.497182    1.293491
     55          1           0        7.782844    0.328217    0.316711
     56          1           0        7.398820   -0.417861    1.716441
     57          8           0        0.155574    3.779487   -0.546255
     58          1           0        0.266942    4.560425   -1.122920
     59          1           0       -1.158976    0.065159   -2.826431
 ---------------------------------------------------------------------

 SCF Done:  E(RB3LYP) =  -1300.49150462     A.U. after    2 cycles

 Alpha  occ. eigenvalues --  -19.32611 -19.30582 -19.28200 -19.24859 -14.59098
 Alpha  occ. eigenvalues --  -14.51708 -14.44144 -14.36749 -10.47407 -10.44890
 Alpha  occ. eigenvalues --  -10.43136 -10.40426 -10.39687 -10.37771 -10.36553
 Alpha  occ. eigenvalues --  -10.35124 -10.34655 -10.32126 -10.30226 -10.29110
 Alpha  occ. eigenvalues --  -10.28926 -10.28894 -10.28736 -10.28509 -10.28379
 Alpha  occ. eigenvalues --  -10.26677 -10.26615 -10.25270  -1.24230  -1.21508
 Alpha  occ. eigenvalues --   -1.20089  -1.13844  -1.12545  -1.07863  -1.02621
 Alpha  occ. eigenvalues --   -0.96078  -0.95467  -0.93684  -0.92858  -0.90116
 Alpha  occ. eigenvalues --   -0.89350  -0.85028  -0.84966  -0.84199  -0.80150
 Alpha  occ. eigenvalues --   -0.78668  -0.77978  -0.76947  -0.74952  -0.74176
 Alpha  occ. eigenvalues --   -0.71920  -0.70739  -0.70362  -0.69151  -0.67942
 Alpha  occ. eigenvalues --   -0.66610  -0.66394  -0.65425  -0.63384  -0.63138
 Alpha  occ. eigenvalues --   -0.61614  -0.61032  -0.59940  -0.59584  -0.59453
 Alpha  occ. eigenvalues --   -0.59087  -0.58169  -0.56844  -0.56710  -0.56289
 Alpha  occ. eigenvalues --   -0.56085  -0.55502  -0.55046  -0.54178  -0.54044
 Alpha  occ. eigenvalues --   -0.53348  -0.52724  -0.52487  -0.51961  -0.51766
 Alpha  occ. eigenvalues --   -0.51558  -0.50378  -0.50329  -0.50264  -0.49951
 Alpha  occ. eigenvalues --   -0.49644  -0.49457  -0.46971  -0.45829  -0.45644
 Alpha  occ. eigenvalues --   -0.44770  -0.44324  -0.44045  -0.43630  -0.43262
 Alpha  occ. eigenvalues --   -0.42280  -0.41978  -0.41367  -0.40988  -0.39862
 Alpha  occ. eigenvalues --   -0.37739  -0.36822  -0.34764  -0.34246  -0.28748
 Alpha virt. eigenvalues --   -0.18456  -0.13694  -0.10682  -0.10543  -0.10059
 Alpha virt. eigenvalues --   -0.07694  -0.06968  -0.06024  -0.04395  -0.03889
 Alpha virt. eigenvalues --   -0.03404  -0.02524  -0.01196  -0.00882  -0.00071

 Mulliken charges:
               1
     1  N   -0.700752
     2  H    0.329692
     3  H    0.338666
     4  C   -0.079832
     5  H    0.170539
     6  C    0.619962
     7  C   -0.409429
     8  H    0.175707
     9  H    0.189764
    10  O   -0.360443
    11  C    0.182203
    12  C   -0.196134
    13  H    0.135645
    14  C   -0.207409
    15  H    0.125215
    16  C   -0.123044
    17  H    0.159314
    18  C   -0.131621
    19  H    0.144897
    20  C   -0.122837
    21  H    0.158847
    22  N   -0.617514
    23  C   -0.092097
    24  H    0.240414
    25  C    0.659431
    26  C   -0.304625
    27  H    0.194412
    28  H    0.199314
    29  O   -0.535284
    30  C   -0.303888
    31  H    0.195374
    32  H    0.211911
    33  C   -0.168325
    34  H    0.225957
    35  H    0.218471
    36  N   -0.602486
    37  H    0.357946
    38  C   -0.054049
    39  H    0.195433
    40  C    0.611916
    41  C   -0.258612
    42  H    0.179753
    43  H    0.135934
    44  O   -0.426317
    45  C   -0.280402
    46  H    0.178296
    47  H    0.132261
    48  C   -0.267248
    49  H    0.133644
    50  H    0.122005
    51  C   -0.141404
    52  H    0.150411
    53  H    0.144164
    54  N   -0.698726
    55  H    0.296831
    56  H    0.294777
    57  O   -0.577956
    58  H    0.429651
    59  H    0.421681
 Sum of Mulliken charges =   1.00000

 Dipole moment (field-independent basis, Debye):
    X=             -9.3452    Y=              0.9693    Z=             -8.7781  Tot=             12.8579
 Quadrupole moment (field-independent basis, Debye-Ang):
   XX=           -153.8322   YY=           -129.3586   ZZ=           -112.2230
   XY=            -21.5272   XZ=             30.3431   YZ=             -7.0245

 Normal termination of Gaussian 16 at Wed May 25 20:22:07 2022.
