 Gaussian 16, Revision C.01,
 Gaussian 16:  ES64L-G16RevC.01  3-Jul-2019

 -------------------------------------------------------------------
 # B3LYP/6-31G* guess=read geom=check nosymm integral(ultrafinegrid)
 -------------------------------------------------------------------

 ------------------------------------------------------
 Candidate Structure: Conf:797 Charge calc in gas phase
 ------------------------------------------------------
 Structure from the checkpoint file:  "conf-797.chk"
 Charge =  1 Multiplicity = 1

                          Input orientation:
 ---------------------------------------------------------------------
 Center     Atomic      Atomic             Coordinates (Angstroms)
 Number     Number       Type             X           Y           Z
 ---------------------------------------------------------------------
      1          7           0       -1.102699   -1.565327   -4.495848
      2          1           0       -1.739095   -2.140924   -5.040895
      3          1           0       -0.581592   -2.133805   -3.833359
      4          6           0       -1.749748   -0.406135   -3.895070
      5          1           0       -1.020054    0.081457   -3.244598
      6          6           0       -2.924559   -0.907146   -3.056157
      7          6           0       -2.242489    0.599054   -4.952062
      8          1           0       -1.360361    0.879047   -5.537844
      9          1           0       -2.936196    0.093633   -5.632769
     10          8           0       -4.024713   -1.202651   -3.404820
     11          6           0       -2.905463    1.814569   -4.332128
     12          6           0       -4.283823    2.027949   -4.467279
     13          1           0       -4.881408    1.321714   -5.038250
     14          6           0       -2.149393    2.742190   -3.596185
     15          1           0       -1.076134    2.603200   -3.487016
     16          6           0       -4.894339    3.142594   -3.888638
     17          1           0       -5.961948    3.298561   -4.015680
     18          6           0       -2.759825    3.854071   -3.012379
     19          1           0       -2.158229    4.569093   -2.457989
     20          6           0       -4.134273    4.057500   -3.158465
     21          1           0       -4.606863    4.929208   -2.714839
     22          7           0       -2.547089   -1.220301   -1.550958
     23          6           0       -2.300047    0.098257   -0.754748
     24          1           0       -2.537269    0.927867   -1.424658
     25          6           0       -0.784731    0.153149   -0.493881
     26          6           0       -3.284537    0.030917    0.425558
     27          1           0       -2.804631   -0.361637    1.329360
     28          1           0       -3.653392    1.030638    0.667493
     29          8           0       -0.060251    0.830511   -1.207071
     30          6           0       -4.392365   -0.922970   -0.049861
     31          1           0       -4.968549   -1.349255    0.774956
     32          1           0       -5.089768   -0.409545   -0.719670
     33          6           0       -3.624904   -1.994008   -0.819765
     34          1           0       -4.219331   -2.539569   -1.551604
     35          1           0       -3.118458   -2.700725   -0.156180
     36          7           0       -0.303021   -0.710863    0.449766
     37          1           0       -0.954215   -1.283571    0.971268
     38          6           0        1.044773   -1.242448    0.303235
     39          1           0        1.726802   -0.405704    0.131151
     40          6           0        1.087311   -2.113091   -0.960206
     41          6           0        1.487695   -2.029710    1.553863
     42          1           0        2.464119   -2.474001    1.335422
     43          1           0        0.792283   -2.868127    1.708408
     44          8           0        0.108404   -2.424170   -1.633200
     45          6           0        1.583666   -1.180252    2.832026
     46          1           0        0.600396   -0.752316    3.075826
     47          1           0        1.842615   -1.863547    3.649216
     48          6           0        2.638175   -0.068508    2.774713
     49          1           0        2.369556    0.681883    2.017365
     50          1           0        3.602381   -0.503289    2.480983
     51          6           0        2.829608    0.650274    4.119302
     52          1           0        3.607399    1.410339    3.989312
     53          1           0        1.903915    1.194111    4.378590
     54          7           0        3.272419   -0.283229    5.162351
     55          1           0        2.475534   -0.676937    5.657205
     56          1           0        3.821366    0.206732    5.864235
     57          8           0        2.319297   -2.507414   -1.254779
     58          1           0        2.296721   -3.058117   -2.062068
     59          1           0       -1.654779   -1.756141   -1.571682
 ---------------------------------------------------------------------

 SCF Done:  E(RB3LYP) =  -1300.49628031     A.U. after    2 cycles

 Alpha  occ. eigenvalues --  -19.34115 -19.31752 -19.29722 -19.26377 -14.58219
 Alpha  occ. eigenvalues --  -14.50522 -14.45134 -14.38470 -10.47078 -10.46304
 Alpha  occ. eigenvalues --  -10.43699 -10.39642 -10.38019 -10.37214 -10.36203
 Alpha  occ. eigenvalues --  -10.34397 -10.33532 -10.31118 -10.29713 -10.29047
 Alpha  occ. eigenvalues --  -10.28491 -10.28293 -10.27896 -10.27776 -10.27754
 Alpha  occ. eigenvalues --  -10.27608 -10.27534 -10.26520  -1.25560  -1.23180
 Alpha  occ. eigenvalues --   -1.18611  -1.16386  -1.12702  -1.07103  -1.02479
 Alpha  occ. eigenvalues --   -0.95339  -0.94945  -0.94533  -0.92769  -0.90243
 Alpha  occ. eigenvalues --   -0.88419  -0.86006  -0.83224  -0.83056  -0.80180
 Alpha  occ. eigenvalues --   -0.79964  -0.77260  -0.75956  -0.74719  -0.73663
 Alpha  occ. eigenvalues --   -0.72754  -0.71745  -0.69610  -0.69371  -0.67421
 Alpha  occ. eigenvalues --   -0.66461  -0.66291  -0.65397  -0.63887  -0.63150
 Alpha  occ. eigenvalues --   -0.62558  -0.61097  -0.60630  -0.59903  -0.58808
 Alpha  occ. eigenvalues --   -0.58695  -0.58543  -0.57769  -0.56735  -0.56487
 Alpha  occ. eigenvalues --   -0.56206  -0.55360  -0.54784  -0.54691  -0.53977
 Alpha  occ. eigenvalues --   -0.53893  -0.53142  -0.52451  -0.51608  -0.51426
 Alpha  occ. eigenvalues --   -0.50792  -0.50449  -0.50281  -0.49723  -0.49441
 Alpha  occ. eigenvalues --   -0.49206  -0.48737  -0.47727  -0.47166  -0.46757
 Alpha  occ. eigenvalues --   -0.45996  -0.44720  -0.44473  -0.43762  -0.42788
 Alpha  occ. eigenvalues --   -0.42710  -0.42618  -0.42291  -0.41090  -0.40448
 Alpha  occ. eigenvalues --   -0.39458  -0.36529  -0.33832  -0.33458  -0.30781
 Alpha virt. eigenvalues --   -0.17535  -0.14406  -0.13732  -0.09425  -0.08951
 Alpha virt. eigenvalues --   -0.08333  -0.06365  -0.05411  -0.03769  -0.03034
 Alpha virt. eigenvalues --   -0.01506  -0.01008  -0.00784  -0.00464   0.00232

 Mulliken charges:
               1
     1  N   -0.712702
     2  H    0.331625
     3  H    0.336537
     4  C   -0.073251
     5  H    0.205183
     6  C    0.563307
     7  C   -0.341808
     8  H    0.195443
     9  H    0.169066
    10  O   -0.375422
    11  C    0.132829
    12  C   -0.184731
    13  H    0.146113
    14  C   -0.199645
    15  H    0.153377
    16  C   -0.130507
    17  H    0.152300
    18  C   -0.137372
    19  H    0.150950
    20  C   -0.130875
    21  H    0.152165
    22  N   -0.640021
    23  C   -0.077419
    24  H    0.239156
    25  C    0.587829
    26  C   -0.307234
    27  H    0.169491
    28  H    0.214153
    29  O   -0.470905
    30  C   -0.302652
    31  H    0.200616
    32  H    0.202948
    33  C   -0.159654
    34  H    0.234039
    35  H    0.186301
    36  N   -0.586342
    37  H    0.335464
    38  C   -0.056032
    39  H    0.236056
    40  C    0.629059
    41  C   -0.309494
    42  H    0.195155
    43  H    0.141600
    44  O   -0.515164
    45  C   -0.264498
    46  H    0.125636
    47  H    0.173730
    48  C   -0.244201
    49  H    0.129129
    50  H    0.154240
    51  C   -0.152853
    52  H    0.155194
    53  H    0.122130
    54  N   -0.717969
    55  H    0.300223
    56  H    0.314619
    57  O   -0.523548
    58  H    0.439931
    59  H    0.438707
 Sum of Mulliken charges =   1.00000

 Dipole moment (field-independent basis, Debye):
    X=             -8.1751    Y=             -5.4759    Z=             -1.9299  Tot=             10.0271
 Quadrupole moment (field-independent basis, Debye-Ang):
   XX=           -122.3048   YY=           -137.8272   ZZ=           -127.0329
   XY=             -0.1149   XZ=             13.2325   YZ=             11.0086

 Normal termination of Gaussian 16 at Wed May 25 20:30:02 2022.
