 Gaussian 16, Revision C.01,
 Gaussian 16:  ES64L-G16RevC.01  3-Jul-2019

 ----------------------------------------------------------------------
 # B3LYP/6-31G* empiricaldispersion=gd3 guess=read geom=check nosymm in
 tegral(ultrafinegrid)
 ----------------------------------------------------------------------

 ------------------------------------------------------
 Candidate Structure: Conf:586 Charge calc in gas phase
 ------------------------------------------------------
 Structure from the checkpoint file:  "conf-586.chk"
 Charge =  1 Multiplicity = 1

                          Input orientation:
 ---------------------------------------------------------------------
 Center     Atomic      Atomic             Coordinates (Angstroms)
 Number     Number       Type             X           Y           Z
 ---------------------------------------------------------------------
      1          7           0       -5.586326    3.263533    5.446450
      2          1           0       -5.387476    2.835336    6.355924
      3          1           0       -4.673221    3.580847    5.031091
      4          1           0       -6.221432    4.054986    5.583412
      5          6           0       -6.095526    2.263062    4.422518
      6          1           0       -6.613433    1.464725    4.960406
      7          6           0       -4.785584    1.765425    3.771067
      8          6           0       -7.066075    2.968556    3.436564
      9          1           0       -7.946797    3.232942    4.041387
     10          8           0       -3.806161    2.525898    3.804311
     11          6           0       -6.480443    4.249419    2.819175
     12          1           0       -5.577096    4.069276    2.229018
     13          1           0       -6.245366    5.020675    3.564649
     14          1           0       -7.223901    4.692885    2.150380
     15          6           0       -7.525454    1.989995    2.344292
     16          1           0       -6.711517    1.766143    1.647177
     17          1           0       -7.909301    1.050685    2.762637
     18          1           0       -8.338254    2.444460    1.771239
     19          7           0       -4.797188    0.559283    3.201201
     20          1           0       -5.666338    0.040131    3.163084
     21          6           0       -3.658019    0.007057    2.442382
     22          1           0       -2.760648    0.469177    2.867174
     23          6           0       -3.729993    0.421571    0.948918
     24          6           0       -3.600577   -1.507058    2.598965
     25          1           0       -2.751740   -1.894702    2.032878
     26          1           0       -3.486837   -1.780624    3.651791
     27          1           0       -4.499697   -1.981164    2.191065
     28          8           0       -3.584859   -0.400558    0.056315
     29          7           0       -3.962508    1.748337    0.735112
     30          1           0       -3.802067    2.404320    1.494312
     31          6           0       -3.794922    2.353592   -0.592067
     32          1           0       -4.188518    1.656556   -1.336319
     33          6           0       -2.280959    2.589236   -0.781627
     34          6           0       -4.560742    3.681303   -0.612650
     35          1           0       -4.381533    4.190023   -1.569610
     36          1           0       -5.634492    3.488428   -0.520194
     37          8           0       -1.772825    3.673456   -0.453675
     38          8           0       -4.184844    4.494188    0.491857
     39          1           0       -3.219430    4.629370    0.367471
     40          7           0       -1.588174    1.519720   -1.193283
     41          1           0       -2.066999    0.662099   -1.456888
     42          6           0       -0.137616    1.407998   -1.129794
     43          1           0        0.286303    2.411223   -1.215041
     44          6           0        0.291387    0.508721   -2.303240
     45          6           0        0.299598    0.726922    0.190407
     46          1           0        1.389928    0.597202    0.166235
     47          1           0       -0.137786   -0.280726    0.184550
     48          8           0       -0.478021   -0.356626   -2.727838
     49          6           0       -0.098915    1.455877    1.486815
     50          1           0       -1.176462    1.668643    1.441740
     51          6           0        0.143943    0.539363    2.695649
     52          1           0        1.209174    0.298872    2.798468
     53          1           0       -0.397194   -0.411213    2.597527
     54          1           0       -0.176506    1.022954    3.627068
     55          6           0        0.632019    2.794582    1.653368
     56          1           0        1.719280    2.645119    1.660585
     57          1           0        0.376048    3.488848    0.848599
     58          1           0        0.355711    3.271742    2.601374
     59          7           0        1.547011    0.696240   -2.739474
     60          1           0        2.146208    1.440101   -2.389631
     61          6           0        2.199318   -0.143581   -3.733330
     62          1           0        1.972474   -1.192660   -3.527147
     63          6           0        3.720413    0.088484   -3.618795
     64          6           0        1.701190    0.209992   -5.163846
     65          1           0        1.622036    1.303750   -5.228614
     66          1           0        0.685073   -0.183835   -5.261020
     67          8           0        4.423642   -0.879014   -4.080233
     68          6           0        2.603073   -0.312803   -6.300870
     69          1           0        3.051202   -1.265824   -6.008525
     70          1           0        2.005387   -0.484731   -7.205333
     71          6           0        3.725724    0.692209   -6.626095
     72          1           0        4.142824    1.137542   -5.722194
     73          1           0        3.320371    1.520200   -7.220348
     74          7           0        4.841079    0.120253   -7.390510
     75          1           0        4.641551   -0.193086   -8.331316
     76          7           0        6.315962   -0.228739   -5.615260
     77          1           0        7.285770   -0.305645   -5.337332
     78          1           0        5.525118   -0.446725   -4.834607
     79          7           0        7.005796   -0.523974   -7.839082
     80          1           0        7.001522   -0.032360   -8.722276
     81          1           0        7.914110   -0.824644   -7.516340
     82          6           0        6.054959   -0.206411   -6.905023
     83          8           0        4.117524    1.191422   -3.209917
 ---------------------------------------------------------------------

 SCF Done:  E(RB3LYP) =  -1868.11595576     A.U. after    2 cycles

 Alpha  occ. eigenvalues --  -19.27859 -19.21921 -19.21591 -19.19154 -19.15561
 Alpha  occ. eigenvalues --  -19.13241 -19.12496 -14.61505 -14.51464 -14.45441
 Alpha  occ. eigenvalues --  -14.44924 -14.44611 -14.42492 -14.41198 -14.39471
 Alpha  occ. eigenvalues --  -10.44722 -10.41694 -10.40057 -10.38630 -10.36083
 Alpha  occ. eigenvalues --  -10.34981 -10.34944 -10.32828 -10.31481 -10.31425
 Alpha  occ. eigenvalues --  -10.30636 -10.30528 -10.29684 -10.28703 -10.28139
 Alpha  occ. eigenvalues --  -10.28025 -10.25332 -10.25078 -10.24351 -10.23812
 Alpha  occ. eigenvalues --  -10.23189 -10.22679 -10.22275  -1.20389  -1.15325
 Alpha  occ. eigenvalues --   -1.13588  -1.11197  -1.08863  -1.08552  -1.07634
 Alpha  occ. eigenvalues --   -1.07512  -1.06243  -1.01672  -0.99033  -0.98364
 Alpha  occ. eigenvalues --   -0.98061  -0.95845  -0.95842  -0.95581  -0.89658
 Alpha  occ. eigenvalues --   -0.87052  -0.85938  -0.84323  -0.84045  -0.81518
 Alpha  occ. eigenvalues --   -0.80959  -0.77968  -0.76920  -0.75646  -0.74961
 Alpha  occ. eigenvalues --   -0.74063  -0.73896  -0.72902  -0.72648  -0.70457
 Alpha  occ. eigenvalues --   -0.70106  -0.69440  -0.68271  -0.66569  -0.65995
 Alpha  occ. eigenvalues --   -0.65320  -0.64155  -0.63584  -0.63188  -0.62784
 Alpha  occ. eigenvalues --   -0.62393  -0.61712  -0.61027  -0.59993  -0.59529
 Alpha  occ. eigenvalues --   -0.58752  -0.57872  -0.57309  -0.56925  -0.56114
 Alpha  occ. eigenvalues --   -0.54894  -0.54815  -0.54060  -0.53379  -0.53286
 Alpha  occ. eigenvalues --   -0.53098  -0.52442  -0.52169  -0.51582  -0.51138
 Alpha  occ. eigenvalues --   -0.50524  -0.50210  -0.50042  -0.49917  -0.49726
 Alpha  occ. eigenvalues --   -0.49025  -0.48934  -0.48516  -0.48234  -0.48021
 Alpha  occ. eigenvalues --   -0.47606  -0.47496  -0.47236  -0.46988  -0.46558
 Alpha  occ. eigenvalues --   -0.46105  -0.45814  -0.45177  -0.44361  -0.44217
 Alpha  occ. eigenvalues --   -0.44004  -0.43349  -0.42783  -0.42567  -0.42180
 Alpha  occ. eigenvalues --   -0.41626  -0.41566  -0.41349  -0.40944  -0.40150
 Alpha  occ. eigenvalues --   -0.38735  -0.38589  -0.38281  -0.38173  -0.37153
 Alpha  occ. eigenvalues --   -0.36957  -0.35518  -0.35098  -0.34640  -0.32717
 Alpha  occ. eigenvalues --   -0.32490  -0.31712  -0.29985  -0.29663  -0.28674
 Alpha  occ. eigenvalues --   -0.27401  -0.26544
 Alpha virt. eigenvalues --   -0.14060  -0.12033  -0.08879  -0.07337  -0.06209
 Alpha virt. eigenvalues --   -0.05126  -0.04855  -0.03112  -0.02249  -0.01993
 Alpha virt. eigenvalues --   -0.01665  -0.01460  -0.00683   0.00346   0.01610

 Mulliken charges:
               1
     1  N   -0.751051
     2  H    0.420434
     3  H    0.438778
     4  H    0.418133
     5  C   -0.117228
     6  H    0.206121
     7  C    0.653300
     8  C   -0.105803
     9  H    0.162575
    10  O   -0.543810
    11  C   -0.503112
    12  H    0.235495
    13  H    0.128482
    14  H    0.193559
    15  C   -0.486236
    16  H    0.188641
    17  H    0.152041
    18  H    0.195759
    19  N   -0.576585
    20  H    0.355347
    21  C   -0.108076
    22  H    0.227652
    23  C    0.631091
    24  C   -0.460999
    25  H    0.211662
    26  H    0.161584
    27  H    0.168341
    28  O   -0.494610
    29  N   -0.620428
    30  H    0.366666
    31  C   -0.098072
    32  H    0.188149
    33  C    0.637394
    34  C   -0.044061
    35  H    0.164466
    36  H    0.143742
    37  O   -0.562412
    38  O   -0.646938
    39  H    0.429417
    40  N   -0.584553
    41  H    0.373581
    42  C   -0.084985
    43  H    0.179941
    44  C    0.630926
    45  C   -0.255396
    46  H    0.155988
    47  H    0.148923
    48  O   -0.551742
    49  C   -0.080565
    50  H    0.107595
    51  C   -0.450489
    52  H    0.159357
    53  H    0.131896
    54  H    0.134230
    55  C   -0.458193
    56  H    0.145660
    57  H    0.180937
    58  H    0.133351
    59  N   -0.618116
    60  H    0.346791
    61  C   -0.003792
    62  H    0.169195
    63  C    0.578208
    64  C   -0.284131
    65  H    0.138382
    66  H    0.171509
    67  O   -0.635460
    68  C   -0.270691
    69  H    0.182175
    70  H    0.129194
    71  C   -0.176085
    72  H    0.217538
    73  H    0.159043
    74  N   -0.595997
    75  H    0.343295
    76  N   -0.766153
    77  H    0.335576
    78  H    0.460288
    79  N   -0.762282
    80  H    0.355405
    81  H    0.356365
    82  C    0.759677
    83  O   -0.565805
 Sum of Mulliken charges =   1.00000

 Dipole moment (field-independent basis, Debye):
    X=            -16.7120    Y=              9.4311    Z=              8.6472  Tot=             21.0478
 Quadrupole moment (field-independent basis, Debye-Ang):
   XX=             14.7232   YY=           -206.9224   ZZ=             10.1786
   XY=            -69.4575   XZ=           -215.5582   YZ=             48.7673

 Normal termination of Gaussian 16 at Sun Jun 26 14:46:19 2022.
