 Gaussian 16, Revision C.01,
 Gaussian 16:  ES64L-G16RevC.01  3-Jul-2019

 ----------------------------------------------------------------------
 # B3LYP/6-31G* empiricaldispersion=gd3 guess=read geom=check nosymm in
 tegral(ultrafinegrid)
 ----------------------------------------------------------------------

 ------------------------------------------------------
 Candidate Structure: Conf:474 Charge calc in gas phase
 ------------------------------------------------------
 Structure from the checkpoint file:  "conf-474.chk"
 Charge =  1 Multiplicity = 1

                          Input orientation:
 ---------------------------------------------------------------------
 Center     Atomic      Atomic             Coordinates (Angstroms)
 Number     Number       Type             X           Y           Z
 ---------------------------------------------------------------------
      1          7           0       -9.047031    1.029397    6.160553
      2          1           0       -9.102890    0.576378    7.076588
      3          1           0       -8.428781    1.894834    6.240931
      4          1           0       -9.992800    1.275093    5.856208
      5          6           0       -8.282618    0.209390    5.135361
      6          1           0       -8.205203   -0.814508    5.508732
      7          6           0       -6.902586    0.920814    5.122231
      8          6           0       -9.017657    0.233984    3.770235
      9          1           0      -10.045854   -0.095946    3.986076
     10          8           0       -6.836058    2.050043    5.637871
     11          6           0       -9.063510    1.643010    3.158410
     12          1           0       -8.059211    1.989930    2.894114
     13          1           0       -9.507366    2.393193    3.824892
     14          1           0       -9.663385    1.627779    2.244272
     15          6           0       -8.415247   -0.784846    2.788998
     16          1           0       -7.419027   -0.493444    2.442764
     17          1           0       -8.348478   -1.786144    3.230152
     18          1           0       -9.057964   -0.856740    1.906809
     19          7           0       -5.907711    0.278290    4.533190
     20          1           0       -6.040200   -0.609719    4.042319
     21          6           0       -4.602353    0.866726    4.235110
     22          1           0       -4.753338    1.910722    3.938163
     23          6           0       -4.092381    0.047321    3.024387
     24          6           0       -3.656325    0.805115    5.441977
     25          1           0       -2.689972    1.257451    5.200148
     26          1           0       -4.091974    1.355921    6.280268
     27          1           0       -3.485250   -0.232910    5.743708
     28          8           0       -4.737138   -0.934848    2.633129
     29          7           0       -2.948609    0.468938    2.479038
     30          1           0       -2.418158    1.254969    2.851276
     31          6           0       -2.273712   -0.213117    1.387279
     32          1           0       -2.312735   -1.295468    1.547055
     33          6           0       -0.830641    0.299381    1.388929
     34          6           0       -2.950239    0.096443    0.016915
     35          1           0       -3.984664   -0.256061    0.081759
     36          1           0       -2.958215    1.186621   -0.124502
     37          8           0       -0.518527    1.306415    2.025612
     38          8           0       -2.312830   -0.571837   -1.045199
     39          1           0       -1.607896    0.031219   -1.381688
     40          7           0        0.023604   -0.417807    0.616244
     41          1           0       -0.428223   -1.079945   -0.008506
     42          6           0        1.236115    0.200670    0.101820
     43          1           0        1.671964    0.783474    0.916846
     44          6           0        0.869926    1.175095   -1.044568
     45          6           0        2.228051   -0.872044   -0.382339
     46          1           0        3.126505   -0.366579   -0.758094
     47          1           0        1.786429   -1.389211   -1.246608
     48          8           0       -0.253432    1.178965   -1.575568
     49          6           0        2.634697   -1.906497    0.683803
     50          1           0        1.725362   -2.430955    1.009273
     51          6           0        3.587544   -2.938756    0.064123
     52          1           0        4.519493   -2.461646   -0.265106
     53          1           0        3.137376   -3.429287   -0.807106
     54          1           0        3.850007   -3.716259    0.790353
     55          6           0        3.267941   -1.247096    1.917054
     56          1           0        4.141869   -0.645922    1.633365
     57          1           0        2.562673   -0.594187    2.443114
     58          1           0        3.606222   -2.006958    2.630464
     59          7           0        1.860083    1.983489   -1.433157
     60          1           0        2.771626    1.988239   -0.979182
     61          6           0        1.798347    2.892776   -2.569067
     62          1           0        1.275887    2.405611   -3.395603
     63          6           0        3.251460    3.207996   -2.985751
     64          6           0        1.046789    4.199486   -2.187043
     65          1           0        1.356783    4.478802   -1.171016
     66          1           0       -0.019856    3.960667   -2.133385
     67          8           0        3.364956    3.601127   -4.198590
     68          6           0        1.294873    5.380551   -3.148591
     69          1           0        1.426145    5.006450   -4.166977
     70          1           0        0.428410    6.054519   -3.145836
     71          6           0        2.550085    6.177162   -2.740034
     72          1           0        3.358684    5.519306   -2.419735
     73          1           0        2.317119    6.820607   -1.882813
     74          7           0        3.080810    7.045822   -3.798024
     75          1           0        2.501934    7.821768   -4.091007
     76          7           0        4.798861    5.654179   -4.547400
     77          1           0        5.710139    5.610315   -4.984649
     78          1           0        4.268713    4.682872   -4.342112
     79          7           0        4.611163    7.863656   -5.312039
     80          1           0        4.513647    8.803157   -4.952300
     81          1           0        5.394888    7.715860   -5.931399
     82          6           0        4.178981    6.815296   -4.544431
     83          8           0        4.131738    3.163210   -2.110525
 ---------------------------------------------------------------------

 SCF Done:  E(RB3LYP) =  -1868.12333386     A.U. after    1 cycles

 Alpha  occ. eigenvalues --  -19.26707 -19.21546 -19.18817 -19.18814 -19.17329
 Alpha  occ. eigenvalues --  -19.13602 -19.12905 -14.59921 -14.49047 -14.45331
 Alpha  occ. eigenvalues --  -14.45072 -14.44891 -14.41855 -14.41679 -14.40303
 Alpha  occ. eigenvalues --  -10.43338 -10.40516 -10.40469 -10.38547 -10.35451
 Alpha  occ. eigenvalues --  -10.34489 -10.34465 -10.33899 -10.30936 -10.30389
 Alpha  occ. eigenvalues --  -10.30113 -10.29508 -10.29352 -10.28707 -10.28627
 Alpha  occ. eigenvalues --  -10.28115 -10.25938 -10.24117 -10.23750 -10.23747
 Alpha  occ. eigenvalues --  -10.23348 -10.21800 -10.21608  -1.19153  -1.13900
 Alpha  occ. eigenvalues --   -1.13287  -1.10708  -1.09001  -1.08627  -1.06736
 Alpha  occ. eigenvalues --   -1.06451  -1.05860  -1.01394  -0.98889  -0.98807
 Alpha  occ. eigenvalues --   -0.98540  -0.96652  -0.96062  -0.95092  -0.88977
 Alpha  occ. eigenvalues --   -0.86421  -0.85235  -0.84687  -0.82716  -0.81160
 Alpha  occ. eigenvalues --   -0.80393  -0.78073  -0.76938  -0.75351  -0.73638
 Alpha  occ. eigenvalues --   -0.73249  -0.72704  -0.72424  -0.70813  -0.70024
 Alpha  occ. eigenvalues --   -0.69338  -0.69086  -0.67106  -0.66375  -0.66352
 Alpha  occ. eigenvalues --   -0.65068  -0.64261  -0.63241  -0.62719  -0.62453
 Alpha  occ. eigenvalues --   -0.61898  -0.60864  -0.59918  -0.59408  -0.58368
 Alpha  occ. eigenvalues --   -0.57996  -0.57868  -0.56814  -0.56593  -0.55153
 Alpha  occ. eigenvalues --   -0.55071  -0.54543  -0.54059  -0.53851  -0.53025
 Alpha  occ. eigenvalues --   -0.52689  -0.52212  -0.51850  -0.51373  -0.50657
 Alpha  occ. eigenvalues --   -0.50523  -0.50309  -0.50031  -0.49623  -0.49476
 Alpha  occ. eigenvalues --   -0.48744  -0.48528  -0.48149  -0.47873  -0.47588
 Alpha  occ. eigenvalues --   -0.47084  -0.46983  -0.46969  -0.46701  -0.46302
 Alpha  occ. eigenvalues --   -0.45874  -0.45203  -0.44964  -0.44301  -0.43922
 Alpha  occ. eigenvalues --   -0.43148  -0.42941  -0.42797  -0.42159  -0.41720
 Alpha  occ. eigenvalues --   -0.41215  -0.40934  -0.40526  -0.39199  -0.39132
 Alpha  occ. eigenvalues --   -0.38449  -0.38014  -0.37394  -0.37245  -0.37120
 Alpha  occ. eigenvalues --   -0.36030  -0.35939  -0.35620  -0.33250  -0.33146
 Alpha  occ. eigenvalues --   -0.32626  -0.31608  -0.30893  -0.30347  -0.29091
 Alpha  occ. eigenvalues --   -0.27906  -0.27020
 Alpha virt. eigenvalues --   -0.12155  -0.11189  -0.07187  -0.06752  -0.05565
 Alpha virt. eigenvalues --   -0.04755  -0.04420  -0.02822  -0.02292  -0.01321
 Alpha virt. eigenvalues --   -0.00582   0.00450   0.01153   0.01503   0.01856

 Mulliken charges:
               1
     1  N   -0.761221
     2  H    0.416650
     3  H    0.434658
     4  H    0.411597
     5  C   -0.107225
     6  H    0.211119
     7  C    0.649795
     8  C   -0.111554
     9  H    0.158324
    10  O   -0.549681
    11  C   -0.468932
    12  H    0.185383
    13  H    0.140223
    14  H    0.194822
    15  C   -0.481438
    16  H    0.193548
    17  H    0.166089
    18  H    0.189429
    19  N   -0.600085
    20  H    0.383076
    21  C   -0.066107
    22  H    0.196748
    23  C    0.634510
    24  C   -0.452478
    25  H    0.182912
    26  H    0.182889
    27  H    0.173093
    28  O   -0.550624
    29  N   -0.622624
    30  H    0.363865
    31  C   -0.069375
    32  H    0.188800
    33  C    0.607204
    34  C   -0.032594
    35  H    0.162638
    36  H    0.142526
    37  O   -0.542442
    38  O   -0.650913
    39  H    0.445346
    40  N   -0.589548
    41  H    0.344145
    42  C   -0.089986
    43  H    0.191973
    44  C    0.648638
    45  C   -0.283656
    46  H    0.158563
    47  H    0.145033
    48  O   -0.582161
    49  C   -0.063118
    50  H    0.130184
    51  C   -0.445415
    52  H    0.148584
    53  H    0.145075
    54  H    0.148039
    55  C   -0.457486
    56  H    0.146138
    57  H    0.151683
    58  H    0.149342
    59  N   -0.603178
    60  H    0.353669
    61  C   -0.009103
    62  H    0.172001
    63  C    0.581966
    64  C   -0.282853
    65  H    0.142427
    66  H    0.165024
    67  O   -0.632517
    68  C   -0.270659
    69  H    0.184008
    70  H    0.127405
    71  C   -0.176220
    72  H    0.219091
    73  H    0.158668
    74  N   -0.596286
    75  H    0.343173
    76  N   -0.764958
    77  H    0.338204
    78  H    0.459423
    79  N   -0.762285
    80  H    0.356014
    81  H    0.357955
    82  C    0.760843
    83  O   -0.565790
 Sum of Mulliken charges =   1.00000

 Dipole moment (field-independent basis, Debye):
    X=            -26.5058    Y=             14.9981    Z=             15.3702  Tot=             34.1137
 Quadrupole moment (field-independent basis, Debye-Ang):
   XX=            108.4120   YY=            -96.9022   ZZ=            -67.5335
   XY=             34.9170   XZ=           -227.2313   YZ=            -63.3728

 Normal termination of Gaussian 16 at Sun Jun 26 14:46:01 2022.
