 Gaussian 16, Revision C.01,
 Gaussian 16:  ES64L-G16RevC.01  3-Jul-2019

 ----------------------------------------------------------------------
 # B3LYP/6-31G* empiricaldispersion=gd3 guess=read geom=check nosymm in
 tegral(ultrafinegrid)
 ----------------------------------------------------------------------

 ------------------------------------------------------
 Candidate Structure: Conf:796 Charge calc in gas phase
 ------------------------------------------------------
 Structure from the checkpoint file:  "conf-796.chk"
 Charge =  1 Multiplicity = 1

                          Input orientation:
 ---------------------------------------------------------------------
 Center     Atomic      Atomic             Coordinates (Angstroms)
 Number     Number       Type             X           Y           Z
 ---------------------------------------------------------------------
      1          7           0       -3.239901    0.439266    6.412670
      2          1           0       -2.662393    1.043717    7.002726
      3          1           0       -4.212856    0.865747    6.330493
      4          1           0       -3.276181   -0.495713    6.827182
      5          6           0       -2.802911    0.425345    4.956936
      6          1           0       -1.763723    0.758845    4.905879
      7          6           0       -3.784766    1.441035    4.321739
      8          6           0       -2.947860   -1.011612    4.388247
      9          1           0       -2.388661   -1.653067    5.088744
     10          8           0       -4.822815    1.685371    4.957875
     11          6           0       -4.413893   -1.471996    4.328053
     12          1           0       -4.964674   -0.895873    3.577531
     13          1           0       -4.939903   -1.381778    5.286907
     14          1           0       -4.450218   -2.525386    4.035657
     15          6           0       -2.283524   -1.138580    3.010148
     16          1           0       -2.892263   -0.671293    2.234592
     17          1           0       -1.284213   -0.690661    2.984532
     18          1           0       -2.181274   -2.198436    2.758941
     19          7           0       -3.459474    1.957350    3.139892
     20          1           0       -2.624203    1.634780    2.647030
     21          6           0       -4.474233    2.569395    2.256947
     22          1           0       -5.428821    2.507012    2.782501
     23          6           0       -4.519008    1.569899    1.077752
     24          6           0       -4.125475    4.021996    1.942716
     25          1           0       -4.840331    4.443732    1.228591
     26          1           0       -4.167433    4.619578    2.857625
     27          1           0       -3.115093    4.110372    1.528033
     28          8           0       -4.848515    0.406183    1.291038
     29          7           0       -4.052640    2.006671   -0.120375
     30          1           0       -3.640373    2.932767   -0.161553
     31          6           0       -3.331588    1.071472   -0.961357
     32          1           0       -3.946709    0.185018   -1.143071
     33          6           0       -2.027740    0.667483   -0.219123
     34          6           0       -2.988835    1.796841   -2.282703
     35          1           0       -2.464976    1.119116   -2.969950
     36          1           0       -3.927653    2.098933   -2.758027
     37          8           0       -1.698549    1.171325    0.859317
     38          8           0       -2.237631    2.961060   -2.018924
     39          1           0       -1.298734    2.679759   -1.969155
     40          7           0       -1.263396   -0.255412   -0.854011
     41          1           0       -1.535551   -0.480402   -1.803746
     42          6           0        0.171465   -0.332098   -0.610767
     43          1           0        0.322759   -0.248367    0.467911
     44          6           0        0.857973    0.883103   -1.291889
     45          6           0        0.729954   -1.666669   -1.137152
     46          1           0        1.819633   -1.670763   -1.012930
     47          1           0        0.553749   -1.707109   -2.222208
     48          8           0        0.220149    1.659382   -2.018330
     49          6           0        0.141896   -2.924432   -0.470103
     50          1           0       -0.953013   -2.872058   -0.551858
     51          6           0        0.621413   -4.180376   -1.211650
     52          1           0        1.714124   -4.269107   -1.163540
     53          1           0        0.334472   -4.156051   -2.269288
     54          1           0        0.193484   -5.086241   -0.768052
     55          6           0        0.506618   -3.003521    1.019220
     56          1           0        1.595792   -3.038526    1.151281
     57          1           0        0.125739   -2.145754    1.584375
     58          1           0        0.088098   -3.909111    1.473153
     59          7           0        2.167921    1.005123   -1.057204
     60          1           0        2.703543    0.314078   -0.530440
     61          6           0        3.047911    1.925069   -1.771085
     62          1           0        2.793265    1.911837   -2.835663
     63          6           0        4.493269    1.396640   -1.576144
     64          6           0        2.906556    3.377814   -1.262217
     65          1           0        1.852494    3.653097   -1.359614
     66          1           0        3.456884    4.022361   -1.958206
     67          8           0        5.385881    2.011914   -2.249669
     68          6           0        3.392583    3.598347    0.195401
     69          1           0        2.596974    4.058465    0.793580
     70          1           0        3.622694    2.633981    0.664937
     71          6           0        4.629261    4.508668    0.316639
     72          1           0        4.875505    4.664311    1.370746
     73          1           0        4.421876    5.492006   -0.119484
     74          7           0        5.797460    3.948095   -0.379094
     75          1           0        5.586638    3.566964   -1.314887
     76          7           0        7.178330    3.559709    1.471234
     77          1           0        7.961488    3.062889    1.870735
     78          1           0        7.058317    4.509421    1.793251
     79          7           0        7.367304    2.276523   -0.480080
     80          1           0        6.806093    1.884559   -1.277827
     81          1           0        8.160863    1.776127   -0.108075
     82          6           0        6.784577    3.252872    0.206930
     83          8           0        4.672488    0.498595   -0.730515
 ---------------------------------------------------------------------

 SCF Done:  E(RB3LYP) =  -1868.13441098     A.U. after    2 cycles

 Alpha  occ. eigenvalues --  -19.25746 -19.21771 -19.20638 -19.20575 -19.19475
 Alpha  occ. eigenvalues --  -19.15305 -19.15114 -14.59108 -14.48351 -14.47259
 Alpha  occ. eigenvalues --  -14.44976 -14.44681 -14.44462 -14.44112 -14.42227
 Alpha  occ. eigenvalues --  -10.42435 -10.42112 -10.39540 -10.38143 -10.37707
 Alpha  occ. eigenvalues --  -10.36178 -10.33362 -10.33112 -10.32956 -10.31609
 Alpha  occ. eigenvalues --  -10.31465 -10.31282 -10.31231 -10.28336 -10.28055
 Alpha  occ. eigenvalues --  -10.27776 -10.27661 -10.26741 -10.26383 -10.26315
 Alpha  occ. eigenvalues --  -10.25276 -10.24825 -10.23906  -1.18309  -1.13737
 Alpha  occ. eigenvalues --   -1.12921  -1.12176  -1.10913  -1.10771  -1.08547
 Alpha  occ. eigenvalues --   -1.08396  -1.04967  -1.01673  -1.01053  -1.00673
 Alpha  occ. eigenvalues --   -0.99844  -0.98583  -0.98439  -0.93825  -0.89037
 Alpha  occ. eigenvalues --   -0.88045  -0.86562  -0.84707  -0.83721  -0.82028
 Alpha  occ. eigenvalues --   -0.80098  -0.79439  -0.75903  -0.75472  -0.74835
 Alpha  occ. eigenvalues --   -0.74327  -0.73363  -0.72866  -0.72604  -0.71364
 Alpha  occ. eigenvalues --   -0.70839  -0.68766  -0.67874  -0.67703  -0.67392
 Alpha  occ. eigenvalues --   -0.66865  -0.65008  -0.64825  -0.64227  -0.63482
 Alpha  occ. eigenvalues --   -0.62032  -0.61407  -0.60443  -0.59388  -0.59067
 Alpha  occ. eigenvalues --   -0.58753  -0.58438  -0.58306  -0.56637  -0.56433
 Alpha  occ. eigenvalues --   -0.56022  -0.55195  -0.54994  -0.54726  -0.54002
 Alpha  occ. eigenvalues --   -0.53224  -0.53120  -0.52948  -0.52477  -0.52026
 Alpha  occ. eigenvalues --   -0.51412  -0.51217  -0.50907  -0.50642  -0.50093
 Alpha  occ. eigenvalues --   -0.49803  -0.49407  -0.48622  -0.48543  -0.48456
 Alpha  occ. eigenvalues --   -0.48327  -0.48045  -0.47944  -0.47246  -0.47043
 Alpha  occ. eigenvalues --   -0.46463  -0.46152  -0.45835  -0.45700  -0.45252
 Alpha  occ. eigenvalues --   -0.45138  -0.44847  -0.44429  -0.44314  -0.43552
 Alpha  occ. eigenvalues --   -0.43410  -0.42554  -0.41363  -0.40816  -0.40206
 Alpha  occ. eigenvalues --   -0.40142  -0.40122  -0.39864  -0.39523  -0.38570
 Alpha  occ. eigenvalues --   -0.37858  -0.36086  -0.35926  -0.34780  -0.34608
 Alpha  occ. eigenvalues --   -0.33895  -0.33488  -0.33060  -0.32693  -0.30784
 Alpha  occ. eigenvalues --   -0.29933  -0.29315
 Alpha virt. eigenvalues --   -0.11889  -0.10413  -0.07726  -0.07276  -0.07230
 Alpha virt. eigenvalues --   -0.05932  -0.05486  -0.03456  -0.03341  -0.01231
 Alpha virt. eigenvalues --   -0.01010  -0.00337   0.00040   0.00737   0.00943

 Mulliken charges:
               1
     1  N   -0.758446
     2  H    0.412007
     3  H    0.435189
     4  H    0.410185
     5  C   -0.115992
     6  H    0.202429
     7  C    0.662966
     8  C   -0.106419
     9  H    0.145437
    10  O   -0.545911
    11  C   -0.482689
    12  H    0.221285
    13  H    0.130256
    14  H    0.183326
    15  C   -0.491922
    16  H    0.215852
    17  H    0.154207
    18  H    0.177936
    19  N   -0.599469
    20  H    0.399258
    21  C   -0.063187
    22  H    0.214915
    23  C    0.590639
    24  C   -0.485252
    25  H    0.185049
    26  H    0.178272
    27  H    0.173132
    28  O   -0.514870
    29  N   -0.571706
    30  H    0.360039
    31  C   -0.092594
    32  H    0.195648
    33  C    0.635603
    34  C   -0.062189
    35  H    0.144001
    36  H    0.175763
    37  O   -0.570795
    38  O   -0.651990
    39  H    0.451375
    40  N   -0.572625
    41  H    0.339608
    42  C   -0.082965
    43  H    0.181252
    44  C    0.640107
    45  C   -0.291033
    46  H    0.165991
    47  H    0.146511
    48  O   -0.578467
    49  C   -0.067918
    50  H    0.133504
    51  C   -0.446480
    52  H    0.152758
    53  H    0.149468
    54  H    0.151573
    55  C   -0.462519
    56  H    0.151860
    57  H    0.138516
    58  H    0.150026
    59  N   -0.603854
    60  H    0.358557
    61  C   -0.046127
    62  H    0.178233
    63  C    0.596237
    64  C   -0.291522
    65  H    0.172814
    66  H    0.158077
    67  O   -0.635016
    68  C   -0.274124
    69  H    0.145460
    70  H    0.164896
    71  C   -0.168840
    72  H    0.148599
    73  H    0.177521
    74  N   -0.602533
    75  H    0.399027
    76  N   -0.751218
    77  H    0.361038
    78  H    0.366212
    79  N   -0.754082
    80  H    0.423112
    81  H    0.347287
    82  C    0.761677
    83  O   -0.571934
 Sum of Mulliken charges =   1.00000

 Dipole moment (field-independent basis, Debye):
    X=              1.4933    Y=              6.2507    Z=             22.0824  Tot=             22.9985
 Quadrupole moment (field-independent basis, Debye-Ang):
   XX=           -119.1031   YY=           -184.1728   ZZ=           -100.9925
   XY=             42.0843   XZ=            -14.0785   YZ=             24.1272

 Normal termination of Gaussian 16 at Sun Jun 26 14:46:25 2022.
