 Gaussian 16, Revision C.01,
 Gaussian 16:  ES64L-G16RevC.01  3-Jul-2019

 ----------------------------------------------------------------------
 # B3LYP/6-31G* empiricaldispersion=gd3 guess=read geom=check nosymm in
 tegral(ultrafinegrid)
 ----------------------------------------------------------------------

 ------------------------------------------------------
 Candidate Structure: Conf:771 Charge calc in gas phase
 ------------------------------------------------------
 Structure from the checkpoint file:  "conf-771.chk"
 Charge =  1 Multiplicity = 1

                          Input orientation:
 ---------------------------------------------------------------------
 Center     Atomic      Atomic             Coordinates (Angstroms)
 Number     Number       Type             X           Y           Z
 ---------------------------------------------------------------------
      1          7           0       -5.616447    2.492614    4.258537
      2          1           0       -5.885759    2.218276    5.208259
      3          1           0       -4.567503    2.587390    4.230051
      4          1           0       -6.077693    3.377386    4.029429
      5          6           0       -5.884102    1.410236    3.226191
      6          1           0       -6.715338    0.795286    3.582824
      7          6           0       -4.535020    0.649879    3.208516
      8          6           0       -6.228832    2.061577    1.857901
      9          1           0       -5.365002    2.665580    1.546952
     10          8           0       -3.529053    1.276980    3.574719
     11          6           0       -6.451012    0.983555    0.783396
     12          1           0       -7.229304    0.268762    1.082852
     13          1           0       -5.532434    0.443556    0.544978
     14          1           0       -6.789810    1.463219   -0.138966
     15          6           0       -7.479017    2.952453    1.969919
     16          1           0       -8.353513    2.376092    2.294923
     17          1           0       -7.365357    3.809624    2.648556
     18          1           0       -7.705920    3.382762    0.990678
     19          7           0       -4.511299   -0.601368    2.743635
     20          1           0       -5.370722   -1.017595    2.405472
     21          6           0       -3.257339   -1.331968    2.468854
     22          1           0       -2.539511   -1.006724    3.229807
     23          6           0       -2.633148   -0.945970    1.100881
     24          6           0       -3.490281   -2.836124    2.568943
     25          1           0       -2.560229   -3.357243    2.338032
     26          1           0       -3.817855   -3.109054    3.575869
     27          1           0       -4.240362   -3.169665    1.842338
     28          8           0       -1.939225   -1.747007    0.484650
     29          7           0       -2.890216    0.315265    0.669430
     30          1           0       -3.204898    1.019503    1.325466
     31          6           0       -2.228596    0.915427   -0.488562
     32          1           0       -2.121534    0.150773   -1.262884
     33          6           0       -0.854329    1.438963   -0.024984
     34          6           0       -3.110789    2.078929   -0.964678
     35          1           0       -2.601624    2.625286   -1.767556
     36          1           0       -4.057568    1.689007   -1.348550
     37          8           0       -0.702550    2.637864    0.257435
     38          8           0       -3.425117    2.939567    0.130482
     39          1           0       -2.557414    3.322557    0.380366
     40          7           0        0.101804    0.510351    0.141111
     41          1           0       -0.114829   -0.454042   -0.087360
     42          6           0        1.374023    0.810405    0.815172
     43          1           0        1.171966    1.670942    1.459885
     44          6           0        2.431224    1.236174   -0.235098
     45          6           0        1.854317   -0.380025    1.645832
     46          1           0        2.744520   -0.046092    2.193304
     47          1           0        2.206945   -1.164616    0.966566
     48          8           0        3.381914    0.518574   -0.529544
     49          6           0        0.824809   -0.959199    2.636556
     50          1           0        0.025163   -1.441037    2.057400
     51          6           0        1.490615   -2.046772    3.491806
     52          1           0        2.280708   -1.619601    4.121956
     53          1           0        1.946508   -2.821730    2.865350
     54          1           0        0.762708   -2.532433    4.152953
     55          6           0        0.183747    0.118225    3.525635
     56          1           0        0.950553    0.693655    4.059678
     57          1           0       -0.425564    0.826461    2.951811
     58          1           0       -0.464999   -0.337551    4.285040
     59          7           0        2.195914    2.449796   -0.787354
     60          1           0        1.359472    2.978488   -0.551557
     61          6           0        3.037890    2.995825   -1.838436
     62          1           0        4.087669    2.893644   -1.550854
     63          6           0        2.695658    4.468107   -2.023237
     64          6           0        2.817520    2.248542   -3.189284
     65          1           0        1.733309    2.143251   -3.333077
     66          1           0        3.221166    1.241910   -3.050378
     67          8           0        3.729199    5.144867   -2.501186
     68          6           0        3.447066    2.931694   -4.421813
     69          1           0        4.360813    3.458620   -4.132688
     70          1           0        3.734907    2.168173   -5.155852
     71          6           0        2.478175    3.926998   -5.097155
     72          1           0        1.940425    4.529576   -4.364755
     73          1           0        1.715908    3.362109   -5.650497
     74          7           0        3.114987    4.854367   -6.024595
     75          1           0        3.658951    4.442504   -6.771374
     76          7           0        3.201441    6.680650   -4.561931
     77          1           0        3.331131    7.689607   -4.562256
     78          1           0        3.426694    5.888347   -3.147196
     79          7           0        3.982367    6.832139   -6.811012
     80          1           0        3.577865    6.635519   -7.718981
     81          1           0        4.159647    7.817196   -6.666312
     82          6           0        3.416599    6.159516   -5.731406
     83          8           0        1.567726    4.900876   -1.849797
 ---------------------------------------------------------------------

 SCF Done:  E(RB3LYP) =  -1868.11515435     A.U. after    1 cycles

 Alpha  occ. eigenvalues --  -19.28879 -19.24197 -19.23060 -19.21304 -19.19912
 Alpha  occ. eigenvalues --  -19.16807 -19.16280 -14.61712 -14.52434 -14.47099
 Alpha  occ. eigenvalues --  -14.44864 -14.41149 -14.41047 -14.40203 -14.35627
 Alpha  occ. eigenvalues --  -10.45726 -10.42401 -10.40261 -10.37998 -10.36256
 Alpha  occ. eigenvalues --  -10.35318 -10.35256 -10.34771 -10.33511 -10.33308
 Alpha  occ. eigenvalues --  -10.33114 -10.32254 -10.31206 -10.29692 -10.29197
 Alpha  occ. eigenvalues --  -10.27434 -10.26906 -10.25618 -10.24545 -10.24534
 Alpha  occ. eigenvalues --  -10.23662 -10.23441 -10.23261  -1.21431  -1.15809
 Alpha  occ. eigenvalues --   -1.15058  -1.13216  -1.12070  -1.10920  -1.08626
 Alpha  occ. eigenvalues --   -1.08129  -1.04179  -1.03625  -1.03494  -1.01011
 Alpha  occ. eigenvalues --   -0.96835  -0.96568  -0.94874  -0.90772  -0.90698
 Alpha  occ. eigenvalues --   -0.87921  -0.86958  -0.85780  -0.84341  -0.82760
 Alpha  occ. eigenvalues --   -0.81632  -0.78324  -0.77455  -0.76300  -0.75848
 Alpha  occ. eigenvalues --   -0.75063  -0.74852  -0.73932  -0.72753  -0.71587
 Alpha  occ. eigenvalues --   -0.71035  -0.69988  -0.67999  -0.67182  -0.66639
 Alpha  occ. eigenvalues --   -0.65323  -0.64893  -0.64458  -0.63833  -0.62893
 Alpha  occ. eigenvalues --   -0.61962  -0.61562  -0.60750  -0.60151  -0.59487
 Alpha  occ. eigenvalues --   -0.59219  -0.58599  -0.58450  -0.57837  -0.56643
 Alpha  occ. eigenvalues --   -0.56046  -0.55597  -0.54523  -0.53925  -0.53747
 Alpha  occ. eigenvalues --   -0.53380  -0.52936  -0.52810  -0.52273  -0.52094
 Alpha  occ. eigenvalues --   -0.51963  -0.51538  -0.51467  -0.50823  -0.50280
 Alpha  occ. eigenvalues --   -0.49769  -0.49588  -0.49461  -0.49154  -0.48856
 Alpha  occ. eigenvalues --   -0.48778  -0.48357  -0.48079  -0.47774  -0.47376
 Alpha  occ. eigenvalues --   -0.47153  -0.46984  -0.46032  -0.45358  -0.45120
 Alpha  occ. eigenvalues --   -0.44758  -0.44138  -0.44028  -0.43565  -0.43339
 Alpha  occ. eigenvalues --   -0.42552  -0.42284  -0.41833  -0.41317  -0.39801
 Alpha  occ. eigenvalues --   -0.39465  -0.39084  -0.38952  -0.38868  -0.38765
 Alpha  occ. eigenvalues --   -0.38224  -0.37217  -0.36205  -0.35229  -0.33889
 Alpha  occ. eigenvalues --   -0.33830  -0.33443  -0.31803  -0.30681  -0.29523
 Alpha  occ. eigenvalues --   -0.29436  -0.28843
 Alpha virt. eigenvalues --   -0.14959  -0.12281  -0.10096  -0.07737  -0.07150
 Alpha virt. eigenvalues --   -0.06761  -0.03942  -0.03278  -0.03092  -0.02582
 Alpha virt. eigenvalues --   -0.02195  -0.01220  -0.01086  -0.00264   0.00354

 Mulliken charges:
               1
     1  N   -0.753023
     2  H    0.419730
     3  H    0.436391
     4  H    0.415206
     5  C   -0.108156
     6  H    0.202638
     7  C    0.629212
     8  C   -0.126070
     9  H    0.214328
    10  O   -0.536410
    11  C   -0.488786
    12  H    0.153295
    13  H    0.181403
    14  H    0.196120
    15  C   -0.479170
    16  H    0.174099
    17  H    0.142883
    18  H    0.208965
    19  N   -0.578220
    20  H    0.357078
    21  C   -0.093125
    22  H    0.232468
    23  C    0.642844
    24  C   -0.469329
    25  H    0.218414
    26  H    0.170130
    27  H    0.163471
    28  O   -0.513403
    29  N   -0.617097
    30  H    0.367413
    31  C   -0.098676
    32  H    0.193029
    33  C    0.640596
    34  C   -0.050074
    35  H    0.178377
    36  H    0.153880
    37  O   -0.559093
    38  O   -0.652702
    39  H    0.431896
    40  N   -0.596761
    41  H    0.367407
    42  C   -0.084800
    43  H    0.184507
    44  C    0.634958
    45  C   -0.282881
    46  H    0.161751
    47  H    0.169923
    48  O   -0.525907
    49  C   -0.095127
    50  H    0.127503
    51  C   -0.441591
    52  H    0.151630
    53  H    0.156008
    54  H    0.132466
    55  C   -0.463594
    56  H    0.155419
    57  H    0.143565
    58  H    0.132147
    59  N   -0.641593
    60  H    0.371829
    61  C    0.006183
    62  H    0.184138
    63  C    0.569716
    64  C   -0.285168
    65  H    0.131309
    66  H    0.181117
    67  O   -0.607440
    68  C   -0.280111
    69  H    0.178262
    70  H    0.134175
    71  C   -0.156092
    72  H    0.202571
    73  H    0.144291
    74  N   -0.601729
    75  H    0.329455
    76  N   -0.738241
    77  H    0.293166
    78  H    0.460873
    79  N   -0.759113
    80  H    0.335197
    81  H    0.335346
    82  C    0.687061
    83  O   -0.502354
 Sum of Mulliken charges =   1.00000

 Dipole moment (field-independent basis, Debye):
    X=            -25.8640    Y=              9.2334    Z=              8.3092  Tot=             28.6923
 Quadrupole moment (field-independent basis, Debye-Ang):
   XX=            -61.3553   YY=           -174.3515   ZZ=            -92.1744
   XY=            -22.3984   XZ=           -116.9499   YZ=            -22.3162

 Normal termination of Gaussian 16 at Sun Jun 26 14:46:16 2022.
