 Gaussian 16, Revision C.01,
 Gaussian 16:  ES64L-G16RevC.01  3-Jul-2019

 ----------------------------------------------------------------------
 # B3LYP/6-31G* empiricaldispersion=gd3 guess=read geom=check nosymm in
 tegral(ultrafinegrid)
 ----------------------------------------------------------------------

 ------------------------------------------------------
 Candidate Structure: Conf:684 Charge calc in gas phase
 ------------------------------------------------------
 Structure from the checkpoint file:  "conf-684.chk"
 Charge =  1 Multiplicity = 1

                          Input orientation:
 ---------------------------------------------------------------------
 Center     Atomic      Atomic             Coordinates (Angstroms)
 Number     Number       Type             X           Y           Z
 ---------------------------------------------------------------------
      1          7           0       -8.575995    0.843682    5.869074
      2          1           0       -8.503540    0.554785    6.848700
      3          1           0       -8.102158    1.788793    5.761550
      4          1           0       -9.565291    0.881413    5.611830
      5          6           0       -7.746097   -0.017472    4.932033
      6          1           0       -7.578672   -0.986451    5.409968
      7          6           0       -6.438711    0.815565    4.827121
      8          6           0       -8.482613   -0.201553    3.580902
      9          1           0       -8.651874    0.803278    3.167057
     10          8           0       -6.512812    2.024599    5.104999
     11          6           0       -7.622185   -1.000153    2.586228
     12          1           0       -7.371536   -1.990829    2.985380
     13          1           0       -6.691389   -0.494818    2.322063
     14          1           0       -8.187577   -1.153806    1.662832
     15          6           0       -9.836988   -0.906441    3.779014
     16          1           0       -9.700363   -1.902989    4.215038
     17          1           0      -10.545130   -0.354496    4.412654
     18          1           0      -10.332198   -1.030563    2.811921
     19          7           0       -5.346425    0.172786    4.446887
     20          1           0       -5.360888   -0.801206    4.129269
     21          6           0       -4.078734    0.822348    4.113391
     22          1           0       -4.295607    1.753293    3.577245
     23          6           0       -3.387698   -0.180513    3.156969
     24          6           0       -3.247283    1.130126    5.366000
     25          1           0       -2.308549    1.622959    5.096240
     26          1           0       -3.807672    1.799069    6.025049
     27          1           0       -3.009675    0.208219    5.905820
     28          8           0       -3.911515   -1.281440    2.942425
     29          7           0       -2.233740    0.227024    2.621972
     30          1           0       -1.810093    1.126123    2.844372
     31          6           0       -1.409875   -0.598211    1.754398
     32          1           0       -1.377713   -1.622208    2.139870
     33          6           0       -0.019273    0.041601    1.744137
     34          6           0       -1.981447   -0.643412    0.303072
     35          1           0       -2.979951   -1.088004    0.364075
     36          1           0       -2.077215    0.390171   -0.058951
     37          8           0        0.149580    1.194645    2.142786
     38          8           0       -1.188992   -1.432490   -0.551053
     39          1           0       -0.510217   -0.833254   -0.944051
     40          7           0        0.958828   -0.740014    1.220945
     41          1           0        0.619090   -1.562196    0.729400
     42          6           0        2.148482   -0.120672    0.646403
     43          1           0        2.569651    0.546598    1.402001
     44          6           0        1.739262    0.705558   -0.594566
     45          6           0        3.154668   -1.231207    0.275077
     46          1           0        2.692054   -1.858222   -0.500947
     47          1           0        3.275720   -1.865374    1.163874
     48          8           0        0.715214    0.441656   -1.246261
     49          6           0        4.547024   -0.778993   -0.208068
     50          1           0        4.429744   -0.145574   -1.095354
     51          6           0        5.302514    0.031236    0.855636
     52          1           0        5.443718   -0.561581    1.768961
     53          1           0        4.783700    0.954966    1.136234
     54          1           0        6.288758    0.324668    0.482388
     55          6           0        5.365318   -2.011166   -0.622168
     56          1           0        5.526367   -2.681846    0.231999
     57          1           0        4.858236   -2.583149   -1.408073
     58          1           0        6.348018   -1.713920   -1.004022
     59          7           0        2.587789    1.681871   -0.932092
     60          1           0        3.452517    1.838438   -0.418472
     61          6           0        2.578948    2.397516   -2.203685
     62          1           0        2.074558    1.790098   -2.958523
     63          6           0        4.063607    2.612079   -2.577821
     64          6           0        1.829331    3.742185   -2.007686
     65          1           0        2.404217    4.333230   -1.282449
     66          1           0        0.879888    3.485454   -1.523139
     67          8           0        4.299585    2.726098   -3.824913
     68          6           0        1.484009    4.613405   -3.235127
     69          1           0        0.934046    4.001671   -3.961273
     70          1           0        0.780467    5.385943   -2.891335
     71          6           0        2.604499    5.323639   -4.025585
     72          1           0        2.150807    6.036042   -4.726219
     73          1           0        3.179458    4.592888   -4.585078
     74          7           0        3.523531    6.071716   -3.144670
     75          1           0        3.084519    6.606497   -2.406692
     76          7           0        5.614222    5.306640   -3.896048
     77          1           0        6.615947    5.440040   -3.853724
     78          1           0        5.273873    4.286998   -4.053662
     79          7           0        5.451004    7.070300   -2.380447
     80          1           0        4.969408    7.935793   -2.185773
     81          1           0        6.452473    7.075463   -2.260256
     82          6           0        4.871075    6.118054   -3.162219
     83          8           0        4.870639    2.736912   -1.638612
 ---------------------------------------------------------------------

 SCF Done:  E(RB3LYP) =  -1868.11172342     A.U. after    1 cycles

 Alpha  occ. eigenvalues --  -19.26561 -19.21370 -19.18516 -19.18511 -19.16727
 Alpha  occ. eigenvalues --  -19.11360 -19.11250 -14.59956 -14.48950 -14.47037
 Alpha  occ. eigenvalues --  -14.46603 -14.44854 -14.44712 -14.41400 -14.39584
 Alpha  occ. eigenvalues --  -10.43263 -10.42625 -10.40533 -10.38378 -10.35064
 Alpha  occ. eigenvalues --  -10.34548 -10.34385 -10.33265 -10.31282 -10.29849
 Alpha  occ. eigenvalues --  -10.29633 -10.29471 -10.29236 -10.29079 -10.28284
 Alpha  occ. eigenvalues --  -10.28081 -10.25341 -10.25293 -10.23745 -10.23620
 Alpha  occ. eigenvalues --  -10.22818 -10.21031 -10.20836  -1.19052  -1.13908
 Alpha  occ. eigenvalues --   -1.13177  -1.10770  -1.10389  -1.08056  -1.06186
 Alpha  occ. eigenvalues --   -1.05718  -1.04647  -1.01200  -1.00249  -0.98690
 Alpha  occ. eigenvalues --   -0.98424  -0.96667  -0.95243  -0.95220  -0.89042
 Alpha  occ. eigenvalues --   -0.85928  -0.85353  -0.85008  -0.82437  -0.81371
 Alpha  occ. eigenvalues --   -0.80173  -0.78205  -0.76843  -0.74913  -0.73946
 Alpha  occ. eigenvalues --   -0.73773  -0.72186  -0.71933  -0.71625  -0.70340
 Alpha  occ. eigenvalues --   -0.70130  -0.69042  -0.67984  -0.66883  -0.66123
 Alpha  occ. eigenvalues --   -0.65838  -0.64254  -0.63638  -0.63393  -0.62232
 Alpha  occ. eigenvalues --   -0.60834  -0.60227  -0.59986  -0.59488  -0.58412
 Alpha  occ. eigenvalues --   -0.58020  -0.57763  -0.57409  -0.56779  -0.54985
 Alpha  occ. eigenvalues --   -0.54708  -0.54381  -0.54150  -0.53709  -0.53160
 Alpha  occ. eigenvalues --   -0.52766  -0.52374  -0.52167  -0.51928  -0.50913
 Alpha  occ. eigenvalues --   -0.50818  -0.50625  -0.49989  -0.49437  -0.49160
 Alpha  occ. eigenvalues --   -0.48701  -0.48352  -0.47915  -0.47775  -0.47425
 Alpha  occ. eigenvalues --   -0.47303  -0.47036  -0.46980  -0.46749  -0.46422
 Alpha  occ. eigenvalues --   -0.45723  -0.45346  -0.44626  -0.44230  -0.43905
 Alpha  occ. eigenvalues --   -0.42466  -0.41927  -0.41714  -0.41337  -0.41248
 Alpha  occ. eigenvalues --   -0.41100  -0.40873  -0.40083  -0.39061  -0.38983
 Alpha  occ. eigenvalues --   -0.38150  -0.37869  -0.37068  -0.36881  -0.36504
 Alpha  occ. eigenvalues --   -0.36340  -0.35880  -0.35403  -0.34775  -0.32888
 Alpha  occ. eigenvalues --   -0.32284  -0.31246  -0.30401  -0.29940  -0.27025
 Alpha  occ. eigenvalues --   -0.25757  -0.25371
 Alpha virt. eigenvalues --   -0.12367  -0.10998  -0.07190  -0.06997  -0.06485
 Alpha virt. eigenvalues --   -0.04541  -0.04191  -0.03860  -0.02274  -0.01768
 Alpha virt. eigenvalues --   -0.00982   0.00229   0.00495   0.00820   0.01436

 Mulliken charges:
               1
     1  N   -0.758340
     2  H    0.416116
     3  H    0.431351
     4  H    0.409199
     5  C   -0.104446
     6  H    0.206374
     7  C    0.645474
     8  C   -0.109502
     9  H    0.169312
    10  O   -0.546978
    11  C   -0.474854
    12  H    0.170853
    13  H    0.186955
    14  H    0.188594
    15  C   -0.473060
    16  H    0.177837
    17  H    0.137369
    18  H    0.202895
    19  N   -0.599865
    20  H    0.380800
    21  C   -0.064445
    22  H    0.197327
    23  C    0.634984
    24  C   -0.453218
    25  H    0.182305
    26  H    0.181726
    27  H    0.172687
    28  O   -0.551499
    29  N   -0.623055
    30  H    0.362176
    31  C   -0.068941
    32  H    0.187824
    33  C    0.610071
    34  C   -0.031523
    35  H    0.162305
    36  H    0.141576
    37  O   -0.545727
    38  O   -0.651008
    39  H    0.443817
    40  N   -0.598927
    41  H    0.344697
    42  C   -0.074875
    43  H    0.181423
    44  C    0.643527
    45  C   -0.278107
    46  H    0.145263
    47  H    0.150642
    48  O   -0.585131
    49  C   -0.095020
    50  H    0.160395
    51  C   -0.446141
    52  H    0.135803
    53  H    0.138158
    54  H    0.164326
    55  C   -0.444875
    56  H    0.138173
    57  H    0.145624
    58  H    0.154315
    59  N   -0.597514
    60  H    0.365807
    61  C   -0.043632
    62  H    0.167534
    63  C    0.580466
    64  C   -0.255156
    65  H    0.127974
    66  H    0.159654
    67  O   -0.622659
    68  C   -0.293960
    69  H    0.170566
    70  H    0.132219
    71  C   -0.147233
    72  H    0.164340
    73  H    0.222989
    74  N   -0.599931
    75  H    0.345039
    76  N   -0.753421
    77  H    0.353800
    78  H    0.420684
    79  N   -0.764055
    80  H    0.363310
    81  H    0.367997
    82  C    0.798991
    83  O   -0.586545
 Sum of Mulliken charges =   1.00000

 Dipole moment (field-independent basis, Debye):
    X=            -24.1421    Y=             15.4702    Z=             17.7765  Tot=             33.7368
 Quadrupole moment (field-independent basis, Debye-Ang):
   XX=             96.9359   YY=           -107.1261   ZZ=           -103.0529
   XY=             61.4425   XZ=           -188.9532   YZ=            -39.0549

 Normal termination of Gaussian 16 at Sun Jun 26 14:46:06 2022.
