 Gaussian 16, Revision C.01,
 Gaussian 16:  ES64L-G16RevC.01  3-Jul-2019

 ----------------------------------------------------------------------
 # B3LYP/6-31G* empiricaldispersion=gd3 guess=read geom=check nosymm in
 tegral(ultrafinegrid)
 ----------------------------------------------------------------------

 -----------------------------------------------------
 Candidate Structure: Conf:34 Charge calc in gas phase
 -----------------------------------------------------
 Structure from the checkpoint file:  "conf-34.chk"
 Charge =  1 Multiplicity = 1

                          Input orientation:
 ---------------------------------------------------------------------
 Center     Atomic      Atomic             Coordinates (Angstroms)
 Number     Number       Type             X           Y           Z
 ---------------------------------------------------------------------
      1          7           0       -5.680371    0.667570    5.748298
      2          1           0       -5.750852   -0.106204    6.413781
      3          1           0       -4.763576    0.597512    5.215487
      4          1           0       -5.722698    1.549328    6.266143
      5          6           0       -6.704245    0.607364    4.624711
      6          1           0       -7.408700   -0.198327    4.854128
      7          6           0       -5.818653    0.218378    3.409270
      8          6           0       -7.453853    1.962885    4.534419
      9          1           0       -6.687939    2.740697    4.428806
     10          8           0       -4.587547    0.252450    3.551074
     11          6           0       -8.362182    2.049814    3.297520
     12          1           0       -9.088470    1.225365    3.268900
     13          1           0       -7.796916    2.071705    2.362584
     14          1           0       -8.941620    2.976310    3.346665
     15          6           0       -8.281799    2.189001    5.812557
     16          1           0       -9.068171    1.431000    5.912579
     17          1           0       -7.688852    2.176579    6.737044
     18          1           0       -8.765981    3.168665    5.770014
     19          7           0       -6.433647   -0.170838    2.288021
     20          1           0       -7.439111   -0.071601    2.227756
     21          6           0       -5.710087   -0.233982    0.997742
     22          1           0       -4.814668   -0.839969    1.159390
     23          6           0       -5.349291    1.230501    0.664490
     24          6           0       -6.602706   -0.851217   -0.070522
     25          1           0       -6.042244   -0.950538   -1.004104
     26          1           0       -6.946090   -1.844411    0.234253
     27          1           0       -7.461603   -0.201080   -0.264076
     28          8           0       -6.225430    2.016994    0.306605
     29          7           0       -4.052961    1.564360    0.873373
     30          1           0       -3.485975    0.899212    1.386366
     31          6           0       -3.633167    2.961568    0.955694
     32          1           0       -4.219090    3.506007    0.206427
     33          6           0       -2.138590    3.138907    0.625732
     34          6           0       -3.931596    3.542560    2.350723
     35          1           0       -3.299150    3.054780    3.098926
     36          1           0       -3.688870    4.610062    2.349002
     37          8           0       -1.515384    4.085178    1.101307
     38          8           0       -5.282364    3.298802    2.753060
     39          1           0       -5.858064    3.514365    1.999919
     40          7           0       -1.614379    2.200184   -0.184272
     41          1           0       -2.178984    1.467301   -0.606440
     42          6           0       -0.222617    2.191590   -0.612609
     43          1           0        0.055581    3.204035   -0.922441
     44          6           0       -0.173637    1.221683   -1.807889
     45          6           0        0.696126    1.731442    0.547866
     46          1           0        0.409607    0.702713    0.805989
     47          1           0        0.443724    2.365916    1.406669
     48          8           0       -1.074292    0.389347   -1.977038
     49          6           0        2.218214    1.802836    0.315403
     50          1           0        2.488123    1.152683   -0.525586
     51          6           0        2.694054    3.226695   -0.010943
     52          1           0        2.411024    3.924812    0.787279
     53          1           0        2.273989    3.610263   -0.947934
     54          1           0        3.783311    3.251070   -0.119158
     55          6           0        2.943427    1.270935    1.560918
     56          1           0        2.726154    1.895370    2.437640
     57          1           0        2.637497    0.243900    1.794267
     58          1           0        4.028540    1.271728    1.410140
     59          7           0        0.903493    1.334889   -2.598158
     60          1           0        1.658794    1.985296   -2.392794
     61          6           0        1.279943    0.364111   -3.619264
     62          1           0        0.903708   -0.620987   -3.330138
     63          6           0        2.833298    0.354764   -3.646860
     64          6           0        0.636801    0.781857   -4.971271
     65          1           0        1.094584    1.728919   -5.288679
     66          1           0       -0.407873    1.007151   -4.733318
     67          8           0        3.383699   -0.698688   -4.120394
     68          6           0        0.653584   -0.244241   -6.130797
     69          1           0        0.765283   -1.263229   -5.738264
     70          1           0       -0.317416   -0.223149   -6.639349
     71          6           0        1.714645   -0.009689   -7.219663
     72          1           0        1.642587    1.021107   -7.588810
     73          1           0        1.531580   -0.683829   -8.066075
     74          7           0        3.052299   -0.249204   -6.675642
     75          1           0        3.064661   -0.744828   -5.758291
     76          7           0        4.203545    1.400182   -7.867090
     77          1           0        5.059201    1.916908   -8.009616
     78          1           0        3.672531    1.201002   -8.702393
     79          7           0        5.090741    0.463881   -5.906874
     80          1           0        4.804246    0.062605   -4.990100
     81          1           0        5.865066    1.110811   -5.934150
     82          6           0        4.114881    0.541445   -6.819158
     83          8           0        3.415567    1.385094   -3.262803
 ---------------------------------------------------------------------

 SCF Done:  E(RB3LYP) =  -1868.11705457     A.U. after    2 cycles

 Alpha  occ. eigenvalues --  -19.27868 -19.24267 -19.22005 -19.17718 -19.16675
 Alpha  occ. eigenvalues --  -19.13797 -19.13333 -14.60057 -14.50705 -14.46285
 Alpha  occ. eigenvalues --  -14.46134 -14.43173 -14.42999 -14.41884 -14.40002
 Alpha  occ. eigenvalues --  -10.44460 -10.40954 -10.40775 -10.39191 -10.35531
 Alpha  occ. eigenvalues --  -10.35252 -10.33864 -10.33632 -10.31864 -10.31747
 Alpha  occ. eigenvalues --  -10.31358 -10.30919 -10.30018 -10.29938 -10.28593
 Alpha  occ. eigenvalues --  -10.28527 -10.26485 -10.25394 -10.24134 -10.23472
 Alpha  occ. eigenvalues --  -10.23148 -10.21465 -10.21332  -1.20201  -1.14379
 Alpha  occ. eigenvalues --   -1.13854  -1.11045  -1.09860  -1.09588  -1.08345
 Alpha  occ. eigenvalues --   -1.07096  -1.06815  -1.02690  -0.99355  -0.98357
 Alpha  occ. eigenvalues --   -0.98029  -0.97376  -0.96443  -0.95135  -0.89670
 Alpha  occ. eigenvalues --   -0.86218  -0.85674  -0.85145  -0.84250  -0.81479
 Alpha  occ. eigenvalues --   -0.80674  -0.78505  -0.76598  -0.75162  -0.74350
 Alpha  occ. eigenvalues --   -0.73826  -0.73368  -0.72663  -0.72270  -0.71151
 Alpha  occ. eigenvalues --   -0.69997  -0.69630  -0.68763  -0.66961  -0.66013
 Alpha  occ. eigenvalues --   -0.65484  -0.64382  -0.64034  -0.63084  -0.62893
 Alpha  occ. eigenvalues --   -0.62490  -0.61110  -0.60867  -0.59741  -0.59199
 Alpha  occ. eigenvalues --   -0.58409  -0.58026  -0.57467  -0.57203  -0.56398
 Alpha  occ. eigenvalues --   -0.55715  -0.55409  -0.54318  -0.54050  -0.53584
 Alpha  occ. eigenvalues --   -0.53161  -0.52958  -0.52525  -0.52238  -0.51881
 Alpha  occ. eigenvalues --   -0.50971  -0.50830  -0.50320  -0.49915  -0.49432
 Alpha  occ. eigenvalues --   -0.49399  -0.49117  -0.48944  -0.48575  -0.48032
 Alpha  occ. eigenvalues --   -0.47613  -0.47277  -0.46970  -0.46851  -0.46683
 Alpha  occ. eigenvalues --   -0.46547  -0.45976  -0.45819  -0.45348  -0.44662
 Alpha  occ. eigenvalues --   -0.43822  -0.43023  -0.42891  -0.42276  -0.42198
 Alpha  occ. eigenvalues --   -0.41967  -0.41306  -0.41023  -0.40913  -0.40320
 Alpha  occ. eigenvalues --   -0.39909  -0.38695  -0.37923  -0.37560  -0.36982
 Alpha  occ. eigenvalues --   -0.36791  -0.36572  -0.35935  -0.34991  -0.33344
 Alpha  occ. eigenvalues --   -0.31810  -0.31416  -0.30744  -0.30607  -0.29160
 Alpha  occ. eigenvalues --   -0.27848  -0.27516
 Alpha virt. eigenvalues --   -0.13415  -0.11240  -0.09067  -0.06486  -0.05545
 Alpha virt. eigenvalues --   -0.05486  -0.04424  -0.02615  -0.02397  -0.02161
 Alpha virt. eigenvalues --   -0.01353  -0.00834   0.00004   0.00291   0.00381

 Mulliken charges:
               1
     1  N   -0.761061
     2  H    0.415493
     3  H    0.437434
     4  H    0.416219
     5  C   -0.108252
     6  H    0.206462
     7  C    0.679391
     8  C   -0.113767
     9  H    0.205976
    10  O   -0.550628
    11  C   -0.510142
    12  H    0.151434
    13  H    0.197604
    14  H    0.191852
    15  C   -0.466943
    16  H    0.170988
    17  H    0.132097
    18  H    0.200257
    19  N   -0.586333
    20  H    0.360843
    21  C   -0.063693
    22  H    0.188307
    23  C    0.644233
    24  C   -0.484358
    25  H    0.198504
    26  H    0.172462
    27  H    0.187479
    28  O   -0.542880
    29  N   -0.591353
    30  H    0.354129
    31  C   -0.125265
    32  H    0.207102
    33  C    0.623203
    34  C   -0.010425
    35  H    0.146970
    36  H    0.183099
    37  O   -0.534994
    38  O   -0.655430
    39  H    0.417890
    40  N   -0.630038
    41  H    0.354485
    42  C   -0.043114
    43  H    0.177635
    44  C    0.611038
    45  C   -0.257119
    46  H    0.129538
    47  H    0.159942
    48  O   -0.566869
    49  C   -0.095557
    50  H    0.153204
    51  C   -0.448395
    52  H    0.146659
    53  H    0.138717
    54  H    0.158835
    55  C   -0.444391
    56  H    0.136727
    57  H    0.137945
    58  H    0.153480
    59  N   -0.617459
    60  H    0.370625
    61  C   -0.044347
    62  H    0.168423
    63  C    0.594390
    64  C   -0.268138
    65  H    0.141372
    66  H    0.167131
    67  O   -0.643413
    68  C   -0.303357
    69  H    0.171564
    70  H    0.156332
    71  C   -0.148806
    72  H    0.158789
    73  H    0.165495
    74  N   -0.603879
    75  H    0.407076
    76  N   -0.754280
    77  H    0.361968
    78  H    0.367782
    79  N   -0.756495
    80  H    0.412841
    81  H    0.347715
    82  C    0.758951
    83  O   -0.566903
 Sum of Mulliken charges =   1.00000

 Dipole moment (field-independent basis, Debye):
    X=            -21.7206    Y=              3.1067    Z=              6.9369  Tot=             23.0121
 Quadrupole moment (field-independent basis, Debye-Ang):
   XX=            -14.4511   YY=           -228.4812   ZZ=             14.8937
   XY=              3.0736   XZ=           -185.4762   YZ=            -10.3027

 Normal termination of Gaussian 16 at Sun Jun 26 14:46:32 2022.
