 Gaussian 16, Revision C.01,
 Gaussian 16:  ES64L-G16RevC.01  3-Jul-2019

 ----------------------------------------------------------------------
 # B3LYP/6-31G* empiricaldispersion=gd3 guess=read geom=check nosymm in
 tegral(ultrafinegrid)
 ----------------------------------------------------------------------

 ------------------------------------------------------
 Candidate Structure: Conf:242 Charge calc in gas phase
 ------------------------------------------------------
 Structure from the checkpoint file:  "conf-242.chk"
 Charge =  1 Multiplicity = 1

                          Input orientation:
 ---------------------------------------------------------------------
 Center     Atomic      Atomic             Coordinates (Angstroms)
 Number     Number       Type             X           Y           Z
 ---------------------------------------------------------------------
      1          7           0       -7.175450   -0.541937    4.882897
      2          1           0       -7.386078   -0.385911    5.871687
      3          1           0       -7.751427    0.135514    4.293056
      4          1           0       -7.387731   -1.515294    4.653388
      5          6           0       -5.760867   -0.140050    4.499187
      6          1           0       -5.179531   -0.030596    5.419407
      7          6           0       -6.008949    1.229834    3.807978
      8          6           0       -5.107815   -1.207744    3.582259
      9          1           0       -5.667426   -1.216209    2.638093
     10          8           0       -7.173731    1.500803    3.488951
     11          6           0       -3.647690   -0.839809    3.268551
     12          1           0       -3.078058   -0.641535    4.186261
     13          1           0       -3.563671    0.007386    2.587087
     14          1           0       -3.164198   -1.685102    2.773183
     15          6           0       -5.155794   -2.602010    4.235387
     16          1           0       -4.632282   -2.606701    5.199188
     17          1           0       -6.169002   -2.996240    4.397583
     18          1           0       -4.657846   -3.325295    3.583713
     19          7           0       -4.961224    2.047923    3.649343
     20          1           0       -4.040520    1.664717    3.833300
     21          6           0       -4.992350    3.087455    2.615095
     22          1           0       -6.004658    3.501798    2.615239
     23          6           0       -4.764639    2.349180    1.261877
     24          6           0       -3.959472    4.169883    2.936883
     25          1           0       -4.090638    5.039033    2.284850
     26          1           0       -4.086625    4.516888    3.966166
     27          1           0       -2.943622    3.784228    2.800804
     28          8           0       -5.074907    1.168301    1.138211
     29          7           0       -4.215605    3.081604    0.257285
     30          1           0       -3.800133    3.971321    0.505358
     31          6           0       -3.423794    2.377887   -0.737819
     32          1           0       -4.025894    1.572906   -1.168719
     33          6           0       -2.185035    1.744717   -0.024948
     34          6           0       -3.024950    3.367944   -1.832053
     35          1           0       -2.391804    2.875732   -2.583184
     36          1           0       -3.934823    3.729772   -2.332434
     37          8           0       -2.022909    1.854633    1.192432
     38          8           0       -2.330116    4.425895   -1.177472
     39          1           0       -2.112938    5.107985   -1.830034
     40          7           0       -1.362724    1.064504   -0.843910
     41          1           0       -1.473665    1.129918   -1.853274
     42          6           0       -0.024671    0.615911   -0.483675
     43          1           0        0.318301    1.202672    0.373336
     44          6           0        0.867179    0.901955   -1.711302
     45          6           0        0.023451   -0.892988   -0.156584
     46          1           0        1.071600   -1.196294   -0.031428
     47          1           0       -0.353299   -1.431794   -1.036515
     48          8           0        0.359316    1.142602   -2.813783
     49          6           0       -0.775306   -1.313143    1.088816
     50          1           0       -1.803587   -0.948148    0.962650
     51          6           0       -0.812137   -2.845603    1.184221
     52          1           0        0.199789   -3.253769    1.298319
     53          1           0       -1.254911   -3.295306    0.287622
     54          1           0       -1.396764   -3.177002    2.052263
     55          6           0       -0.198828   -0.697798    2.372531
     56          1           0        0.865190   -0.944659    2.478989
     57          1           0       -0.313197    0.389632    2.378197
     58          1           0       -0.714456   -1.089887    3.257659
     59          7           0        2.187160    0.823642   -1.474798
     60          1           0        2.517585    0.413285   -0.597807
     61          6           0        3.181970    0.596328   -2.515047
     62          1           0        2.812947   -0.185958   -3.193236
     63          6           0        4.477365    0.065820   -1.752871
     64          6           0        3.631816    1.805014   -3.310805
     65          1           0        4.316001    1.360097   -4.037045
     66          1           0        4.243209    2.383359   -2.611943
     67          8           0        5.602566    0.344047   -2.279440
     68          6           0        2.741508    2.792794   -4.058002
     69          1           0        1.984066    2.290041   -4.666107
     70          1           0        2.200054    3.434642   -3.354401
     71          6           0        3.663679    3.647156   -4.985389
     72          1           0        3.257470    4.646622   -5.161869
     73          1           0        3.773014    3.157410   -5.956733
     74          7           0        5.045796    3.799431   -4.432587
     75          1           0        5.056088    4.005681   -3.439890
     76          7           0        6.387952    2.879243   -6.071214
     77          1           0        6.948750    2.123762   -6.437616
     78          1           0        6.118589    3.624309   -6.697642
     79          7           0        6.689355    2.213286   -3.853333
     80          1           0        6.164630    1.619572   -3.118753
     81          1           0        7.561633    1.781783   -4.140069
     82          6           0        6.047005    2.935178   -4.769135
     83          8           0        4.253992   -0.545977   -0.696480
 ---------------------------------------------------------------------

 SCF Done:  E(RB3LYP) =  -1868.07403292     A.U. after    1 cycles

 Alpha  occ. eigenvalues --  -19.25805 -19.23628 -19.20641 -19.19154 -19.17486
 Alpha  occ. eigenvalues --  -19.12278 -19.11478 -14.58497 -14.48441 -14.48179
 Alpha  occ. eigenvalues --  -14.46063 -14.44773 -14.43932 -14.42494 -14.39868
 Alpha  occ. eigenvalues --  -10.42898 -10.42533 -10.39398 -10.37672 -10.36098
 Alpha  occ. eigenvalues --  -10.33987 -10.33602 -10.32837 -10.32376 -10.31449
 Alpha  occ. eigenvalues --  -10.31361 -10.30146 -10.30134 -10.29131 -10.27782
 Alpha  occ. eigenvalues --  -10.27627 -10.26031 -10.25384 -10.24517 -10.24233
 Alpha  occ. eigenvalues --  -10.23875 -10.23015 -10.22434  -1.18384  -1.13053
 Alpha  occ. eigenvalues --   -1.12363  -1.11132  -1.11024  -1.10329  -1.08835
 Alpha  occ. eigenvalues --   -1.05177  -1.05087  -1.00885  -1.00752  -0.99257
 Alpha  occ. eigenvalues --   -0.98989  -0.97286  -0.95948  -0.93784  -0.88333
 Alpha  occ. eigenvalues --   -0.86972  -0.85818  -0.84899  -0.83431  -0.81227
 Alpha  occ. eigenvalues --   -0.79942  -0.79160  -0.75278  -0.74370  -0.73692
 Alpha  occ. eigenvalues --   -0.73522  -0.72920  -0.72800  -0.72667  -0.71373
 Alpha  occ. eigenvalues --   -0.70091  -0.68780  -0.68136  -0.67707  -0.66486
 Alpha  occ. eigenvalues --   -0.64891  -0.64568  -0.64215  -0.62784  -0.62325
 Alpha  occ. eigenvalues --   -0.62181  -0.61055  -0.60878  -0.60019  -0.58916
 Alpha  occ. eigenvalues --   -0.58219  -0.58143  -0.56696  -0.56259  -0.55632
 Alpha  occ. eigenvalues --   -0.55319  -0.54778  -0.54191  -0.54096  -0.53392
 Alpha  occ. eigenvalues --   -0.52748  -0.52611  -0.52244  -0.51963  -0.51365
 Alpha  occ. eigenvalues --   -0.50862  -0.50618  -0.50040  -0.49721  -0.49586
 Alpha  occ. eigenvalues --   -0.49124  -0.48621  -0.48459  -0.47866  -0.47738
 Alpha  occ. eigenvalues --   -0.47520  -0.47346  -0.46701  -0.46300  -0.46144
 Alpha  occ. eigenvalues --   -0.45616  -0.45569  -0.44987  -0.44735  -0.44334
 Alpha  occ. eigenvalues --   -0.44030  -0.43672  -0.43203  -0.42830  -0.42386
 Alpha  occ. eigenvalues --   -0.41433  -0.40964  -0.40419  -0.40285  -0.39530
 Alpha  occ. eigenvalues --   -0.39272  -0.38684  -0.38362  -0.38066  -0.38009
 Alpha  occ. eigenvalues --   -0.37906  -0.36394  -0.36025  -0.35263  -0.34133
 Alpha  occ. eigenvalues --   -0.32758  -0.32500  -0.31081  -0.30468  -0.27600
 Alpha  occ. eigenvalues --   -0.26705  -0.25715
 Alpha virt. eigenvalues --   -0.11480  -0.10105  -0.10007  -0.06932  -0.05379
 Alpha virt. eigenvalues --   -0.05125  -0.03624  -0.03566  -0.03145  -0.01215
 Alpha virt. eigenvalues --   -0.00312   0.00207   0.00410   0.00454   0.01295

 Mulliken charges:
               1
     1  N   -0.763356
     2  H    0.411988
     3  H    0.434546
     4  H    0.407702
     5  C   -0.117004
     6  H    0.201422
     7  C    0.670947
     8  C   -0.096875
     9  H    0.191397
    10  O   -0.536124
    11  C   -0.513087
    12  H    0.147785
    13  H    0.224252
    14  H    0.193773
    15  C   -0.479183
    16  H    0.170541
    17  H    0.135661
    18  H    0.201840
    19  N   -0.573486
    20  H    0.361269
    21  C   -0.088201
    22  H    0.216508
    23  C    0.653117
    24  C   -0.507935
    25  H    0.175090
    26  H    0.177617
    27  H    0.203933
    28  O   -0.531244
    29  N   -0.591076
    30  H    0.358857
    31  C   -0.097436
    32  H    0.201447
    33  C    0.647696
    34  C   -0.062589
    35  H    0.160278
    36  H    0.156891
    37  O   -0.553215
    38  O   -0.623605
    39  H    0.412907
    40  N   -0.600132
    41  H    0.355692
    42  C   -0.078676
    43  H    0.182350
    44  C    0.616004
    45  C   -0.265489
    46  H    0.168584
    47  H    0.141969
    48  O   -0.564706
    49  C   -0.071753
    50  H    0.131738
    51  C   -0.451793
    52  H    0.159772
    53  H    0.145007
    54  H    0.126008
    55  C   -0.466500
    56  H    0.152529
    57  H    0.170205
    58  H    0.123133
    59  N   -0.611568
    60  H    0.359260
    61  C   -0.065792
    62  H    0.155768
    63  C    0.600238
    64  C   -0.266505
    65  H    0.142047
    66  H    0.119166
    67  O   -0.620552
    68  C   -0.273353
    69  H    0.178848
    70  H    0.150937
    71  C   -0.170107
    72  H    0.173955
    73  H    0.167103
    74  N   -0.559866
    75  H    0.358967
    76  N   -0.724115
    77  H    0.372101
    78  H    0.375929
    79  N   -0.740691
    80  H    0.444329
    81  H    0.349118
    82  C    0.687209
    83  O   -0.559418
 Sum of Mulliken charges =   1.00000

 Dipole moment (field-independent basis, Debye):
    X=            -15.0878    Y=              9.6467    Z=              2.9531  Tot=             18.1500
 Quadrupole moment (field-independent basis, Debye-Ang):
   XX=            -35.4073   YY=           -169.5287   ZZ=            -48.7925
   XY=             54.1421   XZ=           -187.2462   YZ=            -60.0522

 Normal termination of Gaussian 16 at Sun Jun 26 14:46:09 2022.
