 Gaussian 16, Revision C.01,
 Gaussian 16:  ES64L-G16RevC.01  3-Jul-2019

 ----------------------------------------------------------------------
 # B3LYP/6-31G* empiricaldispersion=gd3 guess=read geom=check nosymm in
 tegral(ultrafinegrid)
 ----------------------------------------------------------------------

 ------------------------------------------------------
 Candidate Structure: Conf:746 Charge calc in gas phase
 ------------------------------------------------------
 Structure from the checkpoint file:  "conf-746.chk"
 Charge =  1 Multiplicity = 1

                          Input orientation:
 ---------------------------------------------------------------------
 Center     Atomic      Atomic             Coordinates (Angstroms)
 Number     Number       Type             X           Y           Z
 ---------------------------------------------------------------------
      1          7           0       -8.940544    2.996434    4.690159
      2          1           0       -9.163519    2.514719    5.564427
      3          1           0       -8.200421    3.744185    4.871720
      4          1           0       -9.797532    3.418881    4.323878
      5          6           0       -8.234012    2.112452    3.678956
      6          1           0       -8.221261    1.095475    4.079426
      7          6           0       -6.799578    2.708786    3.658655
      8          6           0       -8.933398    2.135470    2.302013
      9          1           0       -8.307007    1.501206    1.661681
     10          8           0       -6.603626    3.764190    4.284184
     11          6           0      -10.329078    1.497709    2.372995
     12          1           0      -11.029702    2.094576    2.973331
     13          1           0      -10.294861    0.487332    2.794966
     14          1           0      -10.760005    1.428147    1.370153
     15          6           0       -8.969542    3.542768    1.685180
     16          1           0       -9.604568    4.234048    2.256017
     17          1           0       -7.972262    3.987065    1.609347
     18          1           0       -9.393443    3.492175    0.678512
     19          7           0       -5.898107    2.045167    2.952857
     20          1           0       -6.114734    1.201326    2.415015
     21          6           0       -4.506466    2.460004    2.775176
     22          1           0       -4.490232    3.501910    2.433792
     23          6           0       -3.977449    1.532864    1.654871
     24          6           0       -3.698573    2.328261    4.075347
     25          1           0       -2.665615    2.655861    3.926007
     26          1           0       -4.145319    2.953445    4.852346
     27          1           0       -3.683987    1.287110    4.412453
     28          8           0       -4.692192    0.627912    1.212934
     29          7           0       -2.724240    1.777515    1.245363
     30          1           0       -2.141750    2.487233    1.683835
     31          6           0       -1.983524    0.896621    0.355438
     32          1           0       -2.378694   -0.119587    0.438028
     33          6           0       -0.513789    1.002253    0.776431
     34          6           0       -2.110170    1.366200   -1.119824
     35          1           0       -3.173879    1.379418   -1.376450
     36          1           0       -1.724657    2.397792   -1.178089
     37          8           0       -0.098373    2.048476    1.276878
     38          8           0       -1.467281    0.501357   -2.031092
     39          1           0       -0.491341    0.523576   -1.863598
     40          7           0        0.261317   -0.067627    0.492390
     41          1           0       -0.161217   -0.825769   -0.030439
     42          6           0        1.709370    0.065679    0.383297
     43          1           0        2.047085    0.679940    1.220267
     44          6           0        2.076810    0.780378   -0.927043
     45          6           0        2.396663   -1.313662    0.410017
     46          1           0        3.464444   -1.165235    0.202342
     47          1           0        1.999931   -1.907451   -0.427733
     48          8           0        1.245219    0.817865   -1.877761
     49          6           0        2.230754   -2.092321    1.727932
     50          1           0        1.155174   -2.216304    1.927290
     51          6           0        2.855274   -3.487010    1.575197
     52          1           0        3.930450   -3.408700    1.373766
     53          1           0        2.399622   -4.043361    0.747218
     54          1           0        2.726473   -4.076884    2.489768
     55          6           0        2.857806   -1.344097    2.913477
     56          1           0        3.916866   -1.133896    2.719765
     57          1           0        2.355625   -0.390918    3.116478
     58          1           0        2.795269   -1.945789    3.827240
     59          7           0        3.307720    1.257417   -0.982125
     60          1           0        3.981141    0.943113   -0.234522
     61          6           0        4.158972    1.277724   -2.181306
     62          1           0        3.694693    0.659715   -2.958575
     63          6           0        5.504782    0.545546   -1.700669
     64          6           0        4.489688    2.656192   -2.752963
     65          1           0        5.369384    2.495226   -3.383913
     66          1           0        4.800425    3.328629   -1.941507
     67          8           0        6.375111    0.443012   -2.567963
     68          6           0        3.383331    3.305462   -3.597717
     69          1           0        3.807802    4.099607   -4.227512
     70          1           0        2.964792    2.554635   -4.281698
     71          6           0        2.249621    3.910979   -2.762938
     72          1           0        2.602907    4.772830   -2.189769
     73          1           0        1.846143    3.198199   -2.043019
     74          7           0        1.130823    4.390496   -3.603523
     75          1           0        1.275372    5.270194   -4.082674
     76          7           0        0.077608    2.320432   -3.769336
     77          1           0       -0.813524    1.832038   -3.756113
     78          1           0        0.795022    1.851150   -3.191003
     79          7           0       -0.871726    4.176372   -4.772082
     80          1           0       -0.836027    5.156990   -5.010581
     81          1           0       -1.389733    3.586728   -5.408593
     82          6           0        0.134336    3.617255   -4.048054
     83          8           0        5.478323    0.184685   -0.483773
 ---------------------------------------------------------------------

 SCF Done:  E(RB3LYP) =  -1868.09057898     A.U. after    2 cycles

 Alpha  occ. eigenvalues --  -19.28099 -19.23356 -19.22486 -19.20589 -19.20230
 Alpha  occ. eigenvalues --  -19.09132 -19.07767 -14.60921 -14.50520 -14.49206
 Alpha  occ. eigenvalues --  -14.49051 -14.46829 -14.46538 -14.44414 -14.39670
 Alpha  occ. eigenvalues --  -10.44784 -10.44691 -10.41686 -10.40385 -10.37462
 Alpha  occ. eigenvalues --  -10.36098 -10.35804 -10.35195 -10.32567 -10.32507
 Alpha  occ. eigenvalues --  -10.32085 -10.32001 -10.31331 -10.29746 -10.29404
 Alpha  occ. eigenvalues --  -10.26723 -10.25452 -10.24424 -10.23850 -10.23820
 Alpha  occ. eigenvalues --  -10.22431 -10.21554 -10.21326  -1.20470  -1.15442
 Alpha  occ. eigenvalues --   -1.14749  -1.13325  -1.12680  -1.10526  -1.09601
 Alpha  occ. eigenvalues --   -1.07289  -1.03341  -1.02809  -1.02145  -1.01057
 Alpha  occ. eigenvalues --   -1.00786  -0.97108  -0.96643  -0.93289  -0.90639
 Alpha  occ. eigenvalues --   -0.87306  -0.86624  -0.86152  -0.84391  -0.83183
 Alpha  occ. eigenvalues --   -0.81230  -0.79444  -0.78480  -0.75664  -0.75450
 Alpha  occ. eigenvalues --   -0.74936  -0.74664  -0.72834  -0.72618  -0.72361
 Alpha  occ. eigenvalues --   -0.71687  -0.70625  -0.70243  -0.69119  -0.68094
 Alpha  occ. eigenvalues --   -0.67391  -0.66581  -0.65304  -0.63697  -0.62828
 Alpha  occ. eigenvalues --   -0.62650  -0.61596  -0.61402  -0.60927  -0.60418
 Alpha  occ. eigenvalues --   -0.60060  -0.59866  -0.58861  -0.58215  -0.57092
 Alpha  occ. eigenvalues --   -0.56904  -0.56510  -0.56209  -0.55447  -0.54957
 Alpha  occ. eigenvalues --   -0.54548  -0.54094  -0.53457  -0.53286  -0.52425
 Alpha  occ. eigenvalues --   -0.52261  -0.51775  -0.51318  -0.50842  -0.50566
 Alpha  occ. eigenvalues --   -0.50320  -0.50050  -0.49583  -0.49472  -0.48922
 Alpha  occ. eigenvalues --   -0.48733  -0.48621  -0.48239  -0.47856  -0.47411
 Alpha  occ. eigenvalues --   -0.46982  -0.46459  -0.45735  -0.45243  -0.44187
 Alpha  occ. eigenvalues --   -0.43621  -0.42824  -0.42519  -0.42331  -0.41819
 Alpha  occ. eigenvalues --   -0.41019  -0.40844  -0.40477  -0.40004  -0.39613
 Alpha  occ. eigenvalues --   -0.38976  -0.38106  -0.37998  -0.37754  -0.37450
 Alpha  occ. eigenvalues --   -0.37222  -0.37117  -0.36646  -0.36220  -0.35328
 Alpha  occ. eigenvalues --   -0.35071  -0.34112  -0.33143  -0.31770  -0.24054
 Alpha  occ. eigenvalues --   -0.23966  -0.21805
 Alpha virt. eigenvalues --   -0.13433  -0.12452  -0.09394  -0.08906  -0.07903
 Alpha virt. eigenvalues --   -0.06787  -0.05493  -0.05247  -0.05005  -0.03565
 Alpha virt. eigenvalues --   -0.01990  -0.01622  -0.01163  -0.00721  -0.00052

 Mulliken charges:
               1
     1  N   -0.762843
     2  H    0.418354
     3  H    0.436144
     4  H    0.410841
     5  C   -0.100552
     6  H    0.216282
     7  C    0.657308
     8  C   -0.125677
     9  H    0.190756
    10  O   -0.548675
    11  C   -0.463061
    12  H    0.140575
    13  H    0.175292
    14  H    0.200993
    15  C   -0.476282
    16  H    0.143708
    17  H    0.185413
    18  H    0.198981
    19  N   -0.615302
    20  H    0.378263
    21  C   -0.052478
    22  H    0.195327
    23  C    0.625510
    24  C   -0.461901
    25  H    0.183820
    26  H    0.192827
    27  H    0.174109
    28  O   -0.541777
    29  N   -0.616592
    30  H    0.363340
    31  C   -0.073525
    32  H    0.189351
    33  C    0.601612
    34  C   -0.031462
    35  H    0.163982
    36  H    0.126633
    37  O   -0.539982
    38  O   -0.671942
    39  H    0.444596
    40  N   -0.586502
    41  H    0.341692
    42  C   -0.082426
    43  H    0.201312
    44  C    0.631657
    45  C   -0.313346
    46  H    0.214753
    47  H    0.132976
    48  O   -0.632613
    49  C   -0.066301
    50  H    0.112026
    51  C   -0.446780
    52  H    0.169012
    53  H    0.139036
    54  H    0.144768
    55  C   -0.459766
    56  H    0.174126
    57  H    0.138064
    58  H    0.146832
    59  N   -0.575890
    60  H    0.373949
    61  C   -0.102127
    62  H    0.146890
    63  C    0.599903
    64  C   -0.266232
    65  H    0.196516
    66  H    0.139118
    67  O   -0.552501
    68  C   -0.271307
    69  H    0.139424
    70  H    0.147831
    71  C   -0.187891
    72  H    0.180868
    73  H    0.204736
    74  N   -0.585923
    75  H    0.350120
    76  N   -0.792168
    77  H    0.373403
    78  H    0.439458
    79  N   -0.762047
    80  H    0.364199
    81  H    0.373933
    82  C    0.784311
    83  O   -0.609054
 Sum of Mulliken charges =   1.00000

 Dipole moment (field-independent basis, Debye):
    X=            -46.5313    Y=             20.3761    Z=              8.0833  Tot=             51.4362
 Quadrupole moment (field-independent basis, Debye-Ang):
   XX=              3.1351   YY=           -142.3993   ZZ=           -106.4532
   XY=            -86.2186   XZ=           -116.1364   YZ=            -20.7646

 Normal termination of Gaussian 16 at Sun Jun 26 14:46:20 2022.
