 Gaussian 16, Revision C.01,
 Gaussian 16:  ES64L-G16RevC.01  3-Jul-2019

 ----------------------------------------------------------------------
 # B3LYP/6-31G* empiricaldispersion=gd3 guess=read geom=check nosymm in
 tegral(ultrafinegrid)
 ----------------------------------------------------------------------

 ------------------------------------------------------
 Candidate Structure: Conf:126 Charge calc in gas phase
 ------------------------------------------------------
 Structure from the checkpoint file:  "conf-126.chk"
 Charge =  1 Multiplicity = 1

                          Input orientation:
 ---------------------------------------------------------------------
 Center     Atomic      Atomic             Coordinates (Angstroms)
 Number     Number       Type             X           Y           Z
 ---------------------------------------------------------------------
      1          7           0       -9.189602    2.653532    1.690327
      2          1           0       -9.696942    3.363413    2.225458
      3          1           0       -8.346983    3.111414    1.233145
      4          1           0       -9.824079    2.252869    0.995260
      5          6           0       -8.530173    1.600133    2.565704
      6          1           0       -9.021066    1.613394    3.543188
      7          6           0       -7.073309    2.131930    2.641436
      8          6           0       -8.667024    0.198052    1.916680
      9          1           0       -8.156965    0.239817    0.944574
     10          8           0       -6.722922    2.956182    1.788373
     11          6           0       -7.966521   -0.871977    2.770814
     12          1           0       -8.334447   -0.858698    3.806212
     13          1           0       -6.882471   -0.748450    2.744112
     14          1           0       -8.191477   -1.861919    2.363767
     15          6           0      -10.147728   -0.172822    1.715538
     16          1           0      -10.680776   -0.202211    2.673447
     17          1           0      -10.699203    0.499785    1.043461
     18          1           0      -10.216464   -1.166820    1.265066
     19          7           0       -6.294640    1.704186    3.642816
     20          1           0       -6.627614    0.923370    4.194947
     21          6           0       -4.840267    1.851987    3.541352
     22          1           0       -4.630640    2.912286    3.370792
     23          6           0       -4.350455    1.039118    2.309696
     24          6           0       -4.178441    1.377212    4.837948
     25          1           0       -3.095765    1.515171    4.783959
     26          1           0       -4.554389    1.942572    5.696181
     27          1           0       -4.367940    0.309829    5.002822
     28          8           0       -5.087993    0.228867    1.745498
     29          7           0       -3.083202    1.286107    1.949766
     30          1           0       -2.487100    1.945499    2.445864
     31          6           0       -2.402110    0.583621    0.876798
     32          1           0       -2.648910   -0.482240    0.918491
     33          6           0       -0.903704    0.816027    1.084461
     34          6           0       -2.837568    1.122927   -0.519674
     35          1           0       -3.917874    0.966892   -0.600620
     36          1           0       -2.636225    2.203191   -0.549582
     37          8           0       -0.497532    1.697823    1.841938
     38          8           0       -2.202353    0.434794   -1.571619
     39          1           0       -1.362955    0.916101   -1.762816
     40          7           0       -0.100583    0.008242    0.345199
     41          1           0       -0.580894   -0.508816   -0.386007
     42          6           0        1.258559    0.420243    0.030746
     43          1           0        1.685086    0.847886    0.941371
     44          6           0        1.224522    1.529613   -1.048731
     45          6           0        2.094535   -0.783260   -0.440584
     46          1           0        3.108960   -0.432103   -0.667611
     47          1           0        1.678196   -1.144499   -1.392254
     48          8           0        0.194609    1.798244   -1.690442
     49          6           0        2.172857   -1.949335    0.562526
     50          1           0        1.150407   -2.311773    0.738864
     51          6           0        2.991020   -3.098039   -0.044564
     52          1           0        4.027173   -2.785580   -0.226983
     53          1           0        2.569245   -3.430652   -1.000472
     54          1           0        3.017371   -3.960731    0.630613
     55          6           0        2.759751   -1.512078    1.911988
     56          1           0        3.756564   -1.071018    1.779831
     57          1           0        2.126296   -0.774847    2.417677
     58          1           0        2.864195   -2.370992    2.584394
     59          7           0        2.388960    2.152829   -1.251640
     60          1           0        3.227444    1.940917   -0.713658
     61          6           0        2.635054    3.143660   -2.294514
     62          1           0        2.122516    2.834868   -3.209668
     63          6           0        4.171589    3.156078   -2.513792
     64          6           0        2.078421    4.518478   -1.828470
     65          1           0        2.680545    4.855303   -0.973741
     66          1           0        1.075283    4.310033   -1.443875
     67          8           0        4.573510    3.541914   -3.665652
     68          6           0        1.959666    5.641454   -2.887636
     69          1           0        1.897363    5.211396   -3.895736
     70          1           0        1.015968    6.177711   -2.732608
     71          6           0        3.067170    6.709180   -2.867782
     72          1           0        3.170762    7.113682   -1.853014
     73          1           0        2.792590    7.537269   -3.533804
     74          7           0        4.338943    6.127077   -3.299763
     75          1           0        4.259441    5.191315   -3.750616
     76          7           0        5.758934    7.366695   -1.917318
     77          1           0        6.689907    7.514117   -1.555206
     78          1           0        5.217694    8.204465   -2.074331
     79          7           0        6.456102    5.348298   -2.891356
     80          1           0        6.091757    4.418883   -3.191773
     81          1           0        7.325351    5.388370   -2.379693
     82          6           0        5.518927    6.282678   -2.699682
     83          8           0        4.883557    2.857997   -1.539057
 ---------------------------------------------------------------------

 SCF Done:  E(RB3LYP) =  -1868.12545367     A.U. after    2 cycles

 Alpha  occ. eigenvalues --  -19.26958 -19.20767 -19.18934 -19.18844 -19.17621
 Alpha  occ. eigenvalues --  -19.13696 -19.13198 -14.59813 -14.49708 -14.46099
 Alpha  occ. eigenvalues --  -14.44495 -14.43042 -14.42996 -14.41951 -14.40503
 Alpha  occ. eigenvalues --  -10.43606 -10.40704 -10.40578 -10.37955 -10.35484
 Alpha  occ. eigenvalues --  -10.34579 -10.34145 -10.34036 -10.31259 -10.31027
 Alpha  occ. eigenvalues --  -10.30035 -10.30023 -10.29341 -10.29048 -10.29006
 Alpha  occ. eigenvalues --  -10.28876 -10.26557 -10.25421 -10.24292 -10.24051
 Alpha  occ. eigenvalues --  -10.23917 -10.21978 -10.21769  -1.19528  -1.13904
 Alpha  occ. eigenvalues --   -1.12608  -1.10712  -1.09538  -1.08874  -1.06801
 Alpha  occ. eigenvalues --   -1.06539  -1.06246  -1.00970  -0.99306  -0.98974
 Alpha  occ. eigenvalues --   -0.98080  -0.97296  -0.96694  -0.94947  -0.89225
 Alpha  occ. eigenvalues --   -0.86593  -0.85497  -0.85274  -0.82866  -0.81037
 Alpha  occ. eigenvalues --   -0.80768  -0.78390  -0.76064  -0.74604  -0.73942
 Alpha  occ. eigenvalues --   -0.73486  -0.72870  -0.72671  -0.71584  -0.71098
 Alpha  occ. eigenvalues --   -0.69863  -0.69678  -0.67342  -0.66519  -0.65687
 Alpha  occ. eigenvalues --   -0.65365  -0.64333  -0.63488  -0.63159  -0.62956
 Alpha  occ. eigenvalues --   -0.62194  -0.61128  -0.59789  -0.59190  -0.57962
 Alpha  occ. eigenvalues --   -0.57898  -0.57795  -0.57043  -0.56733  -0.55644
 Alpha  occ. eigenvalues --   -0.54806  -0.54527  -0.54326  -0.53649  -0.53184
 Alpha  occ. eigenvalues --   -0.53032  -0.52622  -0.52144  -0.51737  -0.51419
 Alpha  occ. eigenvalues --   -0.50731  -0.50428  -0.50096  -0.49758  -0.49610
 Alpha  occ. eigenvalues --   -0.49495  -0.49242  -0.48557  -0.48223  -0.48052
 Alpha  occ. eigenvalues --   -0.47744  -0.47430  -0.46721  -0.46389  -0.46046
 Alpha  occ. eigenvalues --   -0.45963  -0.45830  -0.45323  -0.45086  -0.44369
 Alpha  occ. eigenvalues --   -0.43760  -0.43181  -0.42973  -0.42337  -0.41673
 Alpha  occ. eigenvalues --   -0.41446  -0.41393  -0.40619  -0.39943  -0.39813
 Alpha  occ. eigenvalues --   -0.38970  -0.38564  -0.37566  -0.37412  -0.37314
 Alpha  occ. eigenvalues --   -0.36590  -0.35741  -0.34708  -0.33298  -0.33259
 Alpha  occ. eigenvalues --   -0.32673  -0.31619  -0.31140  -0.30510  -0.29074
 Alpha  occ. eigenvalues --   -0.27991  -0.27441
 Alpha virt. eigenvalues --   -0.12658  -0.10964  -0.06814  -0.06411  -0.05516
 Alpha virt. eigenvalues --   -0.05171  -0.04698  -0.03114  -0.02130  -0.01902
 Alpha virt. eigenvalues --   -0.01180  -0.00598   0.00366   0.00586   0.02024

 Mulliken charges:
               1
     1  N   -0.759697
     2  H    0.414860
     3  H    0.434474
     4  H    0.410514
     5  C   -0.117853
     6  H    0.202124
     7  C    0.672157
     8  C   -0.097658
     9  H    0.187252
    10  O   -0.534817
    11  C   -0.501007
    12  H    0.143371
    13  H    0.217151
    14  H    0.187719
    15  C   -0.475522
    16  H    0.172792
    17  H    0.136309
    18  H    0.203985
    19  N   -0.578376
    20  H    0.352445
    21  C   -0.075859
    22  H    0.200619
    23  C    0.648435
    24  C   -0.480917
    25  H    0.195650
    26  H    0.180525
    27  H    0.170425
    28  O   -0.542839
    29  N   -0.616571
    30  H    0.359096
    31  C   -0.067059
    32  H    0.184664
    33  C    0.605627
    34  C   -0.032436
    35  H    0.161802
    36  H    0.141989
    37  O   -0.542731
    38  O   -0.652697
    39  H    0.444429
    40  N   -0.589531
    41  H    0.343115
    42  C   -0.088872
    43  H    0.192086
    44  C    0.651889
    45  C   -0.284114
    46  H    0.159152
    47  H    0.144653
    48  O   -0.585262
    49  C   -0.063068
    50  H    0.130013
    51  C   -0.445428
    52  H    0.148914
    53  H    0.145035
    54  H    0.148088
    55  C   -0.457521
    56  H    0.145928
    57  H    0.151556
    58  H    0.149506
    59  N   -0.602649
    60  H    0.356941
    61  C   -0.029882
    62  H    0.168364
    63  C    0.586699
    64  C   -0.273336
    65  H    0.142948
    66  H    0.171158
    67  O   -0.642762
    68  C   -0.303180
    69  H    0.172445
    70  H    0.154114
    71  C   -0.147661
    72  H    0.158392
    73  H    0.163998
    74  N   -0.603605
    75  H    0.405507
    76  N   -0.754189
    77  H    0.361533
    78  H    0.366681
    79  N   -0.755037
    80  H    0.413546
    81  H    0.347298
    82  C    0.758764
    83  O   -0.564602
 Sum of Mulliken charges =   1.00000

 Dipole moment (field-independent basis, Debye):
    X=            -26.7704    Y=             18.4631    Z=             10.4152  Tot=             34.1471
 Quadrupole moment (field-independent basis, Debye-Ang):
   XX=            145.2553   YY=            -94.3769   ZZ=           -196.2203
   XY=              1.2493   XZ=            -94.6322   YZ=             -7.2491

 Normal termination of Gaussian 16 at Sun Jun 26 14:46:18 2022.
