 Gaussian 16, Revision C.01,
 Gaussian 16:  ES64L-G16RevC.01  3-Jul-2019

 ----------------------------------------------------------------------
 # B3LYP/6-31G* empiricaldispersion=gd3 guess=read geom=check nosymm in
 tegral(ultrafinegrid)
 ----------------------------------------------------------------------

 ------------------------------------------------------
 Candidate Structure: Conf:112 Charge calc in gas phase
 ------------------------------------------------------
 Structure from the checkpoint file:  "conf-112.chk"
 Charge =  1 Multiplicity = 1

                          Input orientation:
 ---------------------------------------------------------------------
 Center     Atomic      Atomic             Coordinates (Angstroms)
 Number     Number       Type             X           Y           Z
 ---------------------------------------------------------------------
      1          7           0       -8.653963    3.400236    3.674192
      2          1           0       -8.759668    3.475795    4.690055
      3          1           0       -8.064553    4.214894    3.338229
      4          1           0       -9.584366    3.404892    3.248474
      5          6           0       -7.809713    2.210047    3.250118
      6          1           0       -7.840111    1.463427    4.048345
      7          6           0       -6.406315    2.859349    3.109776
      8          6           0       -8.357600    1.612224    1.928856
      9          1           0       -8.347042    2.419544    1.182120
     10          8           0       -6.361933    4.088129    2.940034
     11          6           0       -7.459080    0.470338    1.423099
     12          1           0       -7.373078   -0.328026    2.170835
     13          1           0       -6.453006    0.802587    1.159981
     14          1           0       -7.905260    0.030734    0.526738
     15          6           0       -9.798834    1.101389    2.108252
     16          1           0       -9.842577    0.306973    2.862458
     17          1           0      -10.521106    1.878519    2.394397
     18          1           0      -10.162079    0.685986    1.164162
     19          7           0       -5.356879    2.051661    3.176085
     20          1           0       -5.449778    1.034190    3.215660
     21          6           0       -3.990849    2.468061    2.859859
     22          1           0       -4.031974    3.178195    2.026100
     23          6           0       -3.292225    1.169475    2.397402
     24          6           0       -3.298393    3.124508    4.062221
     25          1           0       -2.282585    3.436072    3.800709
     26          1           0       -3.858922    4.011191    4.370595
     27          1           0       -3.239835    2.425137    4.901926
     28          8           0       -3.872213    0.082548    2.500101
     29          7           0       -2.055599    1.320094    1.907340
     30          1           0       -1.623142    2.232639    1.811249
     31          6           0       -1.276686    0.217677    1.369155
     32          1           0       -1.286898   -0.615466    2.082662
     33          6           0        0.145461    0.744889    1.157838
     34          6           0       -1.847575   -0.267828    0.003886
     35          1           0       -1.352574   -1.210156   -0.276928
     36          1           0       -2.907569   -0.491796    0.157073
     37          8           0        0.405501    1.950712    1.304504
     38          8           0       -1.730500    0.715319   -0.991129
     39          1           0       -0.858752    0.606736   -1.436208
     40          7           0        1.051296   -0.153005    0.736157
     41          1           0        0.719505   -1.084821    0.520033
     42          6           0        2.252651    0.278808    0.014541
     43          1           0        2.798902    0.962457    0.668270
     44          6           0        1.797203    1.007360   -1.275978
     45          6           0        3.110003   -0.948431   -0.324534
     46          1           0        2.503899   -1.614000   -0.955469
     47          1           0        3.326166   -1.486398    0.609130
     48          8           0        0.864536    0.534398   -1.949589
     49          6           0        4.434011   -0.640737   -1.051424
     50          1           0        4.195083   -0.120069   -1.988719
     51          6           0        5.364412    0.260797   -0.225174
     52          1           0        5.558895   -0.179098    0.761876
     53          1           0        4.959744    1.267978   -0.076791
     54          1           0        6.328294    0.380554   -0.730882
     55          6           0        5.135445   -1.959434   -1.408528
     56          1           0        5.407836   -2.516165   -0.502554
     57          1           0        4.492636   -2.603668   -2.019703
     58          1           0        6.055396   -1.770728   -1.971978
     59          7           0        2.490114    2.108639   -1.538003
     60          1           0        3.195502    2.449191   -0.875819
     61          6           0        2.395857    3.094847   -2.617656
     62          1           0        3.060206    2.771584   -3.432319
     63          6           0        3.040386    4.387748   -1.993455
     64          6           0        1.009626    3.318682   -3.239400
     65          1           0        0.745357    2.429728   -3.820147
     66          1           0        1.148912    4.148285   -3.939219
     67          8           0        2.687938    5.489091   -2.491467
     68          6           0       -0.193310    3.630976   -2.330671
     69          1           0       -1.048396    3.825994   -2.989780
     70          1           0       -0.473742    2.746606   -1.748502
     71          6           0       -0.076642    4.829206   -1.379274
     72          1           0       -1.076573    5.144955   -1.053614
     73          1           0        0.410065    5.667869   -1.873041
     74          7           0        0.689041    4.446141   -0.185221
     75          1           0        0.538581    3.495984    0.146039
     76          7           0        2.050743    6.332388    0.008380
     77          1           0        2.799088    6.734350    0.560424
     78          1           0        2.282373    6.328543   -1.014654
     79          7           0        2.109369    4.631610    1.627252
     80          1           0        1.784145    3.699187    1.865304
     81          1           0        3.112204    4.738937    1.733389
     82          6           0        1.629865    5.134194    0.451516
     83          8           0        3.791421    4.199957   -0.998685
 ---------------------------------------------------------------------

 SCF Done:  E(RB3LYP) =  -1868.13313900     A.U. after    3 cycles

 Alpha  occ. eigenvalues --  -19.27662 -19.23547 -19.23278 -19.20892 -19.18390
 Alpha  occ. eigenvalues --  -19.13595 -19.13464 -14.60974 -14.50267 -14.46887
 Alpha  occ. eigenvalues --  -14.46339 -14.44664 -14.44204 -14.41859 -14.41734
 Alpha  occ. eigenvalues --  -10.44424 -10.41565 -10.40267 -10.40143 -10.39956
 Alpha  occ. eigenvalues --  -10.35866 -10.35498 -10.35469 -10.33392 -10.32078
 Alpha  occ. eigenvalues --  -10.32060 -10.31521 -10.31379 -10.30637 -10.29551
 Alpha  occ. eigenvalues --  -10.28874 -10.27170 -10.26259 -10.25386 -10.24382
 Alpha  occ. eigenvalues --  -10.23183 -10.23094 -10.22926  -1.20164  -1.15567
 Alpha  occ. eigenvalues --   -1.14923  -1.14574  -1.09998  -1.09154  -1.08711
 Alpha  occ. eigenvalues --   -1.07026  -1.06849  -1.03425  -1.02832  -0.99294
 Alpha  occ. eigenvalues --   -0.98649  -0.97319  -0.96406  -0.96200  -0.90546
 Alpha  occ. eigenvalues --   -0.88626  -0.86753  -0.85153  -0.84920  -0.82298
 Alpha  occ. eigenvalues --   -0.81885  -0.79499  -0.78221  -0.75896  -0.75067
 Alpha  occ. eigenvalues --   -0.74704  -0.74504  -0.73933  -0.72517  -0.71307
 Alpha  occ. eigenvalues --   -0.70982  -0.70107  -0.69874  -0.68232  -0.67418
 Alpha  occ. eigenvalues --   -0.66862  -0.65149  -0.64771  -0.63297  -0.62712
 Alpha  occ. eigenvalues --   -0.62085  -0.61046  -0.60780  -0.60167  -0.59814
 Alpha  occ. eigenvalues --   -0.59247  -0.58101  -0.57917  -0.57610  -0.57025
 Alpha  occ. eigenvalues --   -0.56627  -0.56332  -0.55800  -0.55483  -0.55225
 Alpha  occ. eigenvalues --   -0.54496  -0.53660  -0.53439  -0.52995  -0.52869
 Alpha  occ. eigenvalues --   -0.52558  -0.51765  -0.51526  -0.51042  -0.50399
 Alpha  occ. eigenvalues --   -0.50216  -0.50121  -0.49503  -0.49171  -0.49049
 Alpha  occ. eigenvalues --   -0.48886  -0.48530  -0.48290  -0.47967  -0.47940
 Alpha  occ. eigenvalues --   -0.47764  -0.47195  -0.46613  -0.45714  -0.45394
 Alpha  occ. eigenvalues --   -0.45177  -0.44140  -0.43886  -0.43478  -0.42562
 Alpha  occ. eigenvalues --   -0.42240  -0.42176  -0.40599  -0.40245  -0.40195
 Alpha  occ. eigenvalues --   -0.39494  -0.39289  -0.38945  -0.38709  -0.38596
 Alpha  occ. eigenvalues --   -0.37790  -0.37375  -0.37244  -0.36472  -0.35994
 Alpha  occ. eigenvalues --   -0.33685  -0.33515  -0.32355  -0.31966  -0.29378
 Alpha  occ. eigenvalues --   -0.28074  -0.27435
 Alpha virt. eigenvalues --   -0.13491  -0.11893  -0.09577  -0.08627  -0.07383
 Alpha virt. eigenvalues --   -0.06138  -0.05341  -0.04788  -0.02902  -0.02236
 Alpha virt. eigenvalues --   -0.01675  -0.01527  -0.00432  -0.00349   0.00740

 Mulliken charges:
               1
     1  N   -0.757162
     2  H    0.417752
     3  H    0.432626
     4  H    0.411418
     5  C   -0.105625
     6  H    0.206849
     7  C    0.646208
     8  C   -0.109888
     9  H    0.172104
    10  O   -0.542153
    11  C   -0.475688
    12  H    0.168724
    13  H    0.185571
    14  H    0.191542
    15  C   -0.473516
    16  H    0.178333
    17  H    0.139184
    18  H    0.204847
    19  N   -0.599557
    20  H    0.379262
    21  C   -0.067323
    22  H    0.201794
    23  C    0.640865
    24  C   -0.449985
    25  H    0.174683
    26  H    0.186790
    27  H    0.174107
    28  O   -0.549710
    29  N   -0.609282
    30  H    0.359649
    31  C   -0.061558
    32  H    0.188669
    33  C    0.632598
    34  C   -0.052198
    35  H    0.135041
    36  H    0.175861
    37  O   -0.579302
    38  O   -0.651947
    39  H    0.464060
    40  N   -0.589182
    41  H    0.347663
    42  C   -0.043001
    43  H    0.165177
    44  C    0.628018
    45  C   -0.293887
    46  H    0.152504
    47  H    0.149722
    48  O   -0.599726
    49  C   -0.085301
    50  H    0.151356
    51  C   -0.460275
    52  H    0.141553
    53  H    0.151278
    54  H    0.164188
    55  C   -0.445982
    56  H    0.144248
    57  H    0.148395
    58  H    0.158224
    59  N   -0.618092
    60  H    0.373072
    61  C   -0.045067
    62  H    0.174253
    63  C    0.603703
    64  C   -0.262167
    65  H    0.158667
    66  H    0.171610
    67  O   -0.596900
    68  C   -0.309346
    69  H    0.151458
    70  H    0.150509
    71  C   -0.137808
    72  H    0.147684
    73  H    0.210984
    74  N   -0.612230
    75  H    0.399221
    76  N   -0.728986
    77  H    0.343094
    78  H    0.405494
    79  N   -0.766697
    80  H    0.364646
    81  H    0.363309
    82  C    0.709052
    83  O   -0.618081
 Sum of Mulliken charges =   1.00000

 Dipole moment (field-independent basis, Debye):
    X=            -30.9246    Y=              8.7700    Z=             18.1218  Tot=             36.9005
 Quadrupole moment (field-independent basis, Debye-Ang):
   XX=             65.9967   YY=           -197.6366   ZZ=           -175.9891
   XY=            -95.8208   XZ=           -103.1467   YZ=             57.1197

 Normal termination of Gaussian 16 at Sun Jun 26 14:57:15 2022.
