 Gaussian 16, Revision C.01,
 Gaussian 16:  ES64L-G16RevC.01  3-Jul-2019

 ----------------------------------------------------------------------
 # B3LYP/6-31G* empiricaldispersion=gd3 guess=read geom=check nosymm in
 tegral(ultrafinegrid)
 ----------------------------------------------------------------------

 ------------------------------------------------------
 Candidate Structure: Conf:966 Charge calc in gas phase
 ------------------------------------------------------
 Structure from the checkpoint file:  "conf-966.chk"
 Charge =  1 Multiplicity = 1

                          Input orientation:
 ---------------------------------------------------------------------
 Center     Atomic      Atomic             Coordinates (Angstroms)
 Number     Number       Type             X           Y           Z
 ---------------------------------------------------------------------
      1          7           0       -8.986314    0.773317    6.062700
      2          1           0       -9.285631   -0.094602    6.512384
      3          1           0       -8.119506    1.163489    6.558243
      4          1           0       -9.756222    1.445701    6.104691
      5          6           0       -8.449209    0.573614    4.657864
      6          1           0       -8.572193   -0.482204    4.402962
      7          6           0       -6.943742    0.920950    4.827507
      8          6           0       -9.177831    1.461361    3.625742
      9          1           0       -8.673597    1.253006    2.673473
     10          8           0       -6.576748    1.362102    5.931224
     11          6           0      -10.650678    1.051662    3.476779
     12          1           0      -11.234022    1.260341    4.384345
     13          1           0      -10.755833   -0.013415    3.242560
     14          1           0      -11.117844    1.620924    2.668062
     15          6           0       -9.020003    2.960498    3.925428
     16          1           0       -9.524031    3.257719    4.855489
     17          1           0       -7.969643    3.257999    4.001354
     18          1           0       -9.478108    3.546241    3.123751
     19          7           0       -6.176310    0.736352    3.768645
     20          1           0       -6.530637    0.420914    2.859379
     21          6           0       -4.756808    1.081045    3.690815
     22          1           0       -4.623766    2.106670    4.054034
     23          6           0       -4.443603    1.020121    2.175863
     24          6           0       -3.884174    0.121834    4.512340
     25          1           0       -2.829869    0.403763    4.438545
     26          1           0       -4.178169    0.161864    5.564448
     27          1           0       -3.993153   -0.903507    4.145071
     28          8           0       -5.304889    0.607769    1.385961
     29          7           0       -3.219225    1.414643    1.831160
     30          1           0       -2.522438    1.723697    2.508774
     31          6           0       -2.695252    1.376609    0.476770
     32          1           0       -2.915825    0.399877    0.028684
     33          6           0       -1.163921    1.552031    0.634481
     34          6           0       -3.313626    2.461776   -0.411976
     35          1           0       -2.900019    2.363658   -1.427169
     36          1           0       -4.397767    2.287848   -0.468382
     37          8           0       -0.674169    1.771173    1.745824
     38          8           0       -3.004757    3.717395    0.172141
     39          1           0       -3.234591    4.412905   -0.461430
     40          7           0       -0.457519    1.441054   -0.496807
     41          1           0       -0.884819    1.262678   -1.402520
     42          6           0        0.987614    1.614003   -0.567658
     43          1           0        1.261519    2.471975    0.053682
     44          6           0        1.288060    1.894513   -2.051715
     45          6           0        1.710318    0.342262   -0.056394
     46          1           0        1.426878   -0.486447   -0.718761
     47          1           0        1.286182    0.126433    0.932496
     48          8           0        0.477120    1.565402   -2.924467
     49          6           0        3.245446    0.405404    0.067766
     50          1           0        3.683363    0.602186   -0.918204
     51          6           0        3.710485    1.514905    1.023258
     52          1           0        3.277517    1.375483    2.022316
     53          1           0        3.427870    2.517224    0.680336
     54          1           0        4.801375    1.507800    1.116428
     55          6           0        3.769955   -0.958806    0.540712
     56          1           0        3.378288   -1.206246    1.536303
     57          1           0        3.473899   -1.760834   -0.145899
     58          1           0        4.863887   -0.955368    0.602136
     59          7           0        2.471389    2.480596   -2.300629
     60          1           0        3.143306    2.639375   -1.553758
     61          6           0        3.092958    2.543354   -3.616341
     62          1           0        2.643580    1.784294   -4.259521
     63          6           0        4.598516    2.245131   -3.437704
     64          6           0        2.884961    3.946853   -4.251827
     65          1           0        2.994953    4.695904   -3.455813
     66          1           0        1.845012    4.005536   -4.590214
     67          8           0        5.175108    1.838681   -4.506367
     68          6           0        3.849151    4.278346   -5.409956
     69          1           0        4.074926    3.369973   -5.973834
     70          1           0        3.378327    4.994052   -6.096249
     71          6           0        5.165093    4.883378   -4.882138
     72          1           0        5.509606    4.376431   -3.980135
     73          1           0        5.005276    5.932640   -4.605473
     74          7           0        6.268055    4.857695   -5.850821
     75          1           0        6.164938    5.426390   -6.680916
     76          7           0        7.371201    2.961308   -5.052870
     77          1           0        8.258792    2.482963   -4.969661
     78          1           0        6.447703    2.420163   -4.697164
     79          7           0        8.333330    4.313274   -6.711319
     80          1           0        8.549295    5.284200   -6.891017
     81          1           0        9.114314    3.676585   -6.776794
     82          6           0        7.318854    4.014095   -5.841128
     83          8           0        5.125048    2.515576   -2.344467
 ---------------------------------------------------------------------

 SCF Done:  E(RB3LYP) =  -1868.10832583     A.U. after    1 cycles

 Alpha  occ. eigenvalues --  -19.26572 -19.21295 -19.21045 -19.17735 -19.15703
 Alpha  occ. eigenvalues --  -19.13276 -19.12578 -14.59430 -14.48766 -14.45011
 Alpha  occ. eigenvalues --  -14.44724 -14.44064 -14.41338 -14.41235 -14.39202
 Alpha  occ. eigenvalues --  -10.43084 -10.40248 -10.40176 -10.37953 -10.34928
 Alpha  occ. eigenvalues --  -10.34436 -10.33983 -10.32706 -10.30880 -10.30646
 Alpha  occ. eigenvalues --  -10.30640 -10.30535 -10.30533 -10.28270 -10.27735
 Alpha  occ. eigenvalues --  -10.27530 -10.25279 -10.23331 -10.22983 -10.22470
 Alpha  occ. eigenvalues --  -10.22215 -10.20608 -10.20528  -1.18940  -1.13474
 Alpha  occ. eigenvalues --   -1.12809  -1.09855  -1.08663  -1.08542  -1.07498
 Alpha  occ. eigenvalues --   -1.06273  -1.05555  -1.00800  -0.98471  -0.98138
 Alpha  occ. eigenvalues --   -0.97917  -0.95828  -0.95640  -0.95238  -0.88835
 Alpha  occ. eigenvalues --   -0.85689  -0.84933  -0.84122  -0.82876  -0.81890
 Alpha  occ. eigenvalues --   -0.79540  -0.77505  -0.76649  -0.74026  -0.73585
 Alpha  occ. eigenvalues --   -0.73127  -0.72588  -0.71468  -0.71255  -0.70213
 Alpha  occ. eigenvalues --   -0.69562  -0.68923  -0.66237  -0.65897  -0.65780
 Alpha  occ. eigenvalues --   -0.64405  -0.63545  -0.62905  -0.62309  -0.61939
 Alpha  occ. eigenvalues --   -0.60892  -0.59942  -0.59747  -0.59217  -0.58445
 Alpha  occ. eigenvalues --   -0.58326  -0.57618  -0.57308  -0.56267  -0.55225
 Alpha  occ. eigenvalues --   -0.54713  -0.54278  -0.53508  -0.53099  -0.52699
 Alpha  occ. eigenvalues --   -0.52275  -0.51873  -0.51634  -0.51087  -0.50932
 Alpha  occ. eigenvalues --   -0.50419  -0.50351  -0.49755  -0.49568  -0.48728
 Alpha  occ. eigenvalues --   -0.48630  -0.48072  -0.48016  -0.47693  -0.47548
 Alpha  occ. eigenvalues --   -0.47252  -0.46578  -0.46461  -0.46062  -0.45746
 Alpha  occ. eigenvalues --   -0.45573  -0.45127  -0.44226  -0.43887  -0.43016
 Alpha  occ. eigenvalues --   -0.42719  -0.42052  -0.41476  -0.41111  -0.41056
 Alpha  occ. eigenvalues --   -0.40877  -0.40647  -0.40211  -0.39453  -0.38788
 Alpha  occ. eigenvalues --   -0.38692  -0.37290  -0.36781  -0.36079  -0.35868
 Alpha  occ. eigenvalues --   -0.35615  -0.35582  -0.34532  -0.33321  -0.32836
 Alpha  occ. eigenvalues --   -0.31904  -0.30889  -0.30267  -0.29691  -0.28719
 Alpha  occ. eigenvalues --   -0.27169  -0.26534
 Alpha virt. eigenvalues --   -0.11924  -0.11065  -0.06769  -0.06414  -0.05229
 Alpha virt. eigenvalues --   -0.03790  -0.03331  -0.02097  -0.02022  -0.01424
 Alpha virt. eigenvalues --   -0.00451   0.00551   0.00837   0.01423   0.01488

 Mulliken charges:
               1
     1  N   -0.764500
     2  H    0.415269
     3  H    0.435941
     4  H    0.408731
     5  C   -0.099237
     6  H    0.214494
     7  C    0.655259
     8  C   -0.125516
     9  H    0.192424
    10  O   -0.551884
    11  C   -0.462079
    12  H    0.138402
    13  H    0.172825
    14  H    0.199104
    15  C   -0.476400
    16  H    0.141252
    17  H    0.189331
    18  H    0.198078
    19  N   -0.612078
    20  H    0.377500
    21  C   -0.055117
    22  H    0.198733
    23  C    0.635086
    24  C   -0.458859
    25  H    0.187234
    26  H    0.186374
    27  H    0.169602
    28  O   -0.560283
    29  N   -0.610465
    30  H    0.372470
    31  C   -0.067803
    32  H    0.186302
    33  C    0.649825
    34  C   -0.043675
    35  H    0.145203
    36  H    0.158618
    37  O   -0.551994
    38  O   -0.613352
    39  H    0.406153
    40  N   -0.629014
    41  H    0.356141
    42  C   -0.055157
    43  H    0.177427
    44  C    0.606761
    45  C   -0.254442
    46  H    0.139952
    47  H    0.157191
    48  O   -0.555843
    49  C   -0.098099
    50  H    0.155732
    51  C   -0.446847
    52  H    0.142568
    53  H    0.135120
    54  H    0.159126
    55  C   -0.444272
    56  H    0.135790
    57  H    0.142106
    58  H    0.150787
    59  N   -0.612857
    60  H    0.363319
    61  C   -0.027199
    62  H    0.177216
    63  C    0.591394
    64  C   -0.278829
    65  H    0.140096
    66  H    0.159227
    67  O   -0.631391
    68  C   -0.270274
    69  H    0.183870
    70  H    0.128492
    71  C   -0.176273
    72  H    0.217734
    73  H    0.159135
    74  N   -0.596160
    75  H    0.343539
    76  N   -0.765476
    77  H    0.337007
    78  H    0.459649
    79  N   -0.762354
    80  H    0.355898
    81  H    0.357191
    82  C    0.760667
    83  O   -0.569615
 Sum of Mulliken charges =   1.00000

 Dipole moment (field-independent basis, Debye):
    X=            -23.2970    Y=             11.6667    Z=              8.7412  Tot=             27.4822
 Quadrupole moment (field-independent basis, Debye-Ang):
   XX=            208.5299   YY=           -163.8403   ZZ=            -50.8686
   XY=             34.8030   XZ=           -270.7724   YZ=            -58.9000

 Normal termination of Gaussian 16 at Sun Jun 26 14:46:05 2022.
