 Gaussian 16, Revision C.01,
 Gaussian 16:  ES64L-G16RevC.01  3-Jul-2019

 ----------------------------------------------------------------------
 # B3LYP/6-31G* empiricaldispersion=gd3 guess=read geom=check nosymm in
 tegral(ultrafinegrid)
 ----------------------------------------------------------------------

 ------------------------------------------------------
 Candidate Structure: Conf:315 Charge calc in gas phase
 ------------------------------------------------------
 Structure from the checkpoint file:  "conf-315.chk"
 Charge =  1 Multiplicity = 1

                          Input orientation:
 ---------------------------------------------------------------------
 Center     Atomic      Atomic             Coordinates (Angstroms)
 Number     Number       Type             X           Y           Z
 ---------------------------------------------------------------------
      1          7           0       -5.165609    3.118913    4.941032
      2          1           0       -4.802376    3.405865    5.854751
      3          1           0       -4.410549    3.278915    4.220414
      4          1           0       -6.004017    3.668166    4.733911
      5          6           0       -5.407047    1.622267    4.837145
      6          1           0       -5.578750    1.232967    5.844830
      7          6           0       -4.069069    1.130786    4.227328
      8          6           0       -6.635793    1.346728    3.926896
      9          1           0       -6.413916    1.749888    2.929117
     10          8           0       -3.391041    1.965040    3.606993
     11          6           0       -6.871615   -0.165205    3.769582
     12          1           0       -6.984269   -0.660468    4.743536
     13          1           0       -6.075404   -0.651270    3.202277
     14          1           0       -7.800714   -0.325137    3.215724
     15          6           0       -7.901660    2.014270    4.493996
     16          1           0       -8.138535    1.636653    5.496010
     17          1           0       -7.850638    3.110949    4.548163
     18          1           0       -8.751011    1.792023    3.842271
     19          7           0       -3.751022   -0.159176    4.348312
     20          1           0       -4.395609   -0.780464    4.822158
     21          6           0       -2.626451   -0.785784    3.624905
     22          1           0       -1.841889   -0.024702    3.559675
     23          6           0       -2.986018   -1.159432    2.159719
     24          6           0       -2.119010   -2.001748    4.394493
     25          1           0       -1.316973   -2.471793    3.823741
     26          1           0       -1.741812   -1.707814    5.377944
     27          1           0       -2.911712   -2.748826    4.520871
     28          8           0       -2.370468   -2.043067    1.581824
     29          7           0       -3.994412   -0.439957    1.594552
     30          1           0       -4.256491    0.450394    1.997497
     31          6           0       -4.298589   -0.474425    0.161978
     32          1           0       -4.228447   -1.508402   -0.185649
     33          6           0       -3.268150    0.437799   -0.539372
     34          6           0       -5.718088    0.087124   -0.006842
     35          1           0       -5.956791    0.173851   -1.074341
     36          1           0       -6.441567   -0.586982    0.460213
     37          8           0       -3.541423    1.630585   -0.756763
     38          8           0       -5.829975    1.349893    0.652742
     39          1           0       -5.170115    1.905909    0.179710
     40          7           0       -2.073268   -0.119808   -0.764025
     41          1           0       -1.919002   -1.107229   -0.573887
     42          6           0       -0.874665    0.627095   -1.120317
     43          1           0       -1.181919    1.532195   -1.649162
     44          6           0       -0.024871   -0.290994   -2.017580
     45          6           0       -0.045661    0.971818    0.142164
     46          1           0        0.868548    1.489314   -0.178546
     47          1           0        0.271333    0.016587    0.582126
     48          8           0       -0.114386   -1.515748   -1.904705
     49          6           0       -0.764852    1.813802    1.211399
     50          1           0       -1.718868    1.325442    1.449369
     51          6           0        0.068985    1.845644    2.500810
     52          1           0        1.025643    2.357769    2.339826
     53          1           0        0.298631    0.833194    2.858684
     54          1           0       -0.467038    2.377098    3.296285
     55          6           0       -1.079705    3.235874    0.729438
     56          1           0       -0.159352    3.767112    0.454821
     57          1           0       -1.752034    3.225145   -0.132495
     58          1           0       -1.570463    3.809456    1.525538
     59          7           0        0.826883    0.342687   -2.840298
     60          1           0        0.921121    1.357159   -2.862357
     61          6           0        1.880283   -0.326146   -3.592717
     62          1           0        2.402241   -1.032599   -2.938217
     63          6           0        2.870404    0.769060   -4.063110
     64          6           0        1.312580   -1.120392   -4.792468
     65          1           0        0.591893   -1.836567   -4.388373
     66          1           0        2.134841   -1.711197   -5.214305
     67          8           0        3.923790    0.333466   -4.641761
     68          6           0        0.646451   -0.240515   -5.883204
     69          1           0       -0.371450   -0.594631   -6.085351
     70          1           0        0.554216    0.793159   -5.527859
     71          6           0        1.393568   -0.231006   -7.229052
     72          1           0        0.829736    0.348188   -7.965881
     73          1           0        1.485139   -1.249321   -7.622050
     74          7           0        2.753458    0.315826   -7.107393
     75          1           0        3.290265   -0.075381   -6.317339
     76          7           0        2.422629    2.339952   -8.240053
     77          1           0        2.753742    3.270572   -8.448310
     78          1           0        1.950455    1.868089   -8.997294
     79          7           0        4.114988    2.103305   -6.637037
     80          1           0        4.303470    1.626791   -5.717866
     81          1           0        4.367995    3.074029   -6.751727
     82          6           0        3.092882    1.595535   -7.323465
     83          8           0        2.529215    1.960596   -3.930443
 ---------------------------------------------------------------------

 SCF Done:  E(RB3LYP) =  -1868.12627004     A.U. after    2 cycles

 Alpha  occ. eigenvalues --  -19.28276 -19.23221 -19.21716 -19.19887 -19.16164
 Alpha  occ. eigenvalues --  -19.13464 -19.13245 -14.61030 -14.51689 -14.45956
 Alpha  occ. eigenvalues --  -14.45751 -14.43136 -14.43131 -14.42632 -14.39729
 Alpha  occ. eigenvalues --  -10.45033 -10.41765 -10.40492 -10.39025 -10.36780
 Alpha  occ. eigenvalues --  -10.35276 -10.34619 -10.33333 -10.32287 -10.32206
 Alpha  occ. eigenvalues --  -10.31739 -10.31084 -10.30576 -10.29637 -10.29214
 Alpha  occ. eigenvalues --  -10.28344 -10.25983 -10.25298 -10.24761 -10.24349
 Alpha  occ. eigenvalues --  -10.23983 -10.23159 -10.22867  -1.20775  -1.15099
 Alpha  occ. eigenvalues --   -1.13860  -1.11974  -1.09767  -1.09251  -1.08068
 Alpha  occ. eigenvalues --   -1.07914  -1.06571  -1.02299  -0.99646  -0.98964
 Alpha  occ. eigenvalues --   -0.97918  -0.96899  -0.96093  -0.95923  -0.89944
 Alpha  occ. eigenvalues --   -0.87442  -0.86257  -0.84851  -0.84567  -0.82168
 Alpha  occ. eigenvalues --   -0.81496  -0.78548  -0.76594  -0.75625  -0.75199
 Alpha  occ. eigenvalues --   -0.74335  -0.74144  -0.73388  -0.73006  -0.71242
 Alpha  occ. eigenvalues --   -0.70893  -0.70472  -0.68930  -0.66862  -0.66480
 Alpha  occ. eigenvalues --   -0.65837  -0.65314  -0.64683  -0.63422  -0.62837
 Alpha  occ. eigenvalues --   -0.62660  -0.61259  -0.61088  -0.60206  -0.59148
 Alpha  occ. eigenvalues --   -0.58670  -0.58115  -0.57709  -0.57400  -0.56565
 Alpha  occ. eigenvalues --   -0.55960  -0.54978  -0.54196  -0.54122  -0.53911
 Alpha  occ. eigenvalues --   -0.53488  -0.53079  -0.52518  -0.51989  -0.51745
 Alpha  occ. eigenvalues --   -0.51587  -0.51079  -0.50865  -0.50597  -0.50259
 Alpha  occ. eigenvalues --   -0.49674  -0.49150  -0.48979  -0.48949  -0.48706
 Alpha  occ. eigenvalues --   -0.48448  -0.48154  -0.47850  -0.47590  -0.47215
 Alpha  occ. eigenvalues --   -0.46591  -0.46080  -0.45885  -0.45279  -0.44960
 Alpha  occ. eigenvalues --   -0.44537  -0.44054  -0.43818  -0.42815  -0.42668
 Alpha  occ. eigenvalues --   -0.42539  -0.42046  -0.41832  -0.41625  -0.40428
 Alpha  occ. eigenvalues --   -0.39410  -0.39139  -0.38686  -0.38645  -0.37902
 Alpha  occ. eigenvalues --   -0.37544  -0.36255  -0.36247  -0.34866  -0.33135
 Alpha  occ. eigenvalues --   -0.32954  -0.32393  -0.30297  -0.30064  -0.28887
 Alpha  occ. eigenvalues --   -0.27999  -0.27390
 Alpha virt. eigenvalues --   -0.14215  -0.11785  -0.08762  -0.07184  -0.06366
 Alpha virt. eigenvalues --   -0.05568  -0.05448  -0.03455  -0.02407  -0.02339
 Alpha virt. eigenvalues --   -0.02087  -0.01880  -0.00111   0.00511   0.00585

 Mulliken charges:
               1
     1  N   -0.754961
     2  H    0.418263
     3  H    0.436003
     4  H    0.413897
     5  C   -0.107328
     6  H    0.201936
     7  C    0.626754
     8  C   -0.126384
     9  H    0.214644
    10  O   -0.533001
    11  C   -0.489160
    12  H    0.151749
    13  H    0.183537
    14  H    0.195212
    15  C   -0.478098
    16  H    0.172907
    17  H    0.140719
    18  H    0.207794
    19  N   -0.578995
    20  H    0.356536
    21  C   -0.093247
    22  H    0.235571
    23  C    0.630637
    24  C   -0.470498
    25  H    0.220998
    26  H    0.168052
    27  H    0.160827
    28  O   -0.496523
    29  N   -0.620716
    30  H    0.361957
    31  C   -0.098384
    32  H    0.192427
    33  C    0.639627
    34  C   -0.047488
    35  H    0.167625
    36  H    0.153734
    37  O   -0.566383
    38  O   -0.656783
    39  H    0.428220
    40  N   -0.582974
    41  H    0.375275
    42  C   -0.085611
    43  H    0.179453
    44  C    0.629087
    45  C   -0.258562
    46  H    0.155709
    47  H    0.151826
    48  O   -0.548776
    49  C   -0.076941
    50  H    0.114581
    51  C   -0.449786
    52  H    0.156113
    53  H    0.135471
    54  H    0.132836
    55  C   -0.458916
    56  H    0.144968
    57  H    0.178850
    58  H    0.123300
    59  N   -0.614250
    60  H    0.351087
    61  C   -0.038208
    62  H    0.171853
    63  C    0.591372
    64  C   -0.294239
    65  H    0.181169
    66  H    0.151386
    67  O   -0.639462
    68  C   -0.271427
    69  H    0.148638
    70  H    0.165760
    71  C   -0.169959
    72  H    0.144626
    73  H    0.176689
    74  N   -0.600262
    75  H    0.397175
    76  N   -0.752666
    77  H    0.360334
    78  H    0.365427
    79  N   -0.749764
    80  H    0.417334
    81  H    0.343387
    82  C    0.761681
    83  O   -0.575257
 Sum of Mulliken charges =   1.00000

 Dipole moment (field-independent basis, Debye):
    X=            -22.1087    Y=             11.2892    Z=             10.0049  Tot=             26.7645
 Quadrupole moment (field-independent basis, Debye-Ang):
   XX=            -92.3703   YY=           -190.2943   ZZ=             17.1554
   XY=            -27.6579   XZ=           -140.7470   YZ=             10.5959

 Normal termination of Gaussian 16 at Sun Jun 26 14:46:21 2022.
