 Gaussian 16, Revision C.01,
 Gaussian 16:  ES64L-G16RevC.01  3-Jul-2019

 ----------------------------------------------------------------------
 # B3LYP/6-31G* empiricaldispersion=gd3 guess=read geom=check nosymm in
 tegral(ultrafinegrid)
 ----------------------------------------------------------------------

 ------------------------------------------------------
 Candidate Structure: Conf:231 Charge calc in gas phase
 ------------------------------------------------------
 Structure from the checkpoint file:  "conf-231.chk"
 Charge =  1 Multiplicity = 1

                          Input orientation:
 ---------------------------------------------------------------------
 Center     Atomic      Atomic             Coordinates (Angstroms)
 Number     Number       Type             X           Y           Z
 ---------------------------------------------------------------------
      1          7           0       -3.025883    3.601307    2.873949
      2          1           0       -2.924536    4.228700    3.673842
      3          1           0       -2.794328    2.605151    3.141406
      4          1           0       -2.357362    3.883303    2.146751
      5          6           0       -4.443800    3.500687    2.342558
      6          1           0       -5.090781    4.053591    3.032629
      7          6           0       -4.735740    1.976900    2.485593
      8          6           0       -4.517060    4.138179    0.932994
      9          1           0       -3.800897    3.602341    0.301601
     10          8           0       -3.816608    1.238439    2.856387
     11          6           0       -5.903846    3.985383    0.292469
     12          1           0       -6.701869    4.365974    0.945001
     13          1           0       -6.117532    2.949986    0.019908
     14          1           0       -5.940498    4.569046   -0.631696
     15          6           0       -4.140940    5.628834    1.016826
     16          1           0       -4.852661    6.183750    1.640958
     17          1           0       -3.133787    5.804307    1.413518
     18          1           0       -4.159516    6.070983    0.016591
     19          7           0       -5.980041    1.536332    2.254810
     20          1           0       -6.708971    2.190523    2.004389
     21          6           0       -6.324360    0.106972    2.397331
     22          1           0       -6.039515   -0.214718    3.402298
     23          6           0       -5.500772   -0.789900    1.442173
     24          6           0       -7.823838   -0.087139    2.171371
     25          1           0       -8.065245   -1.146901    2.283628
     26          1           0       -8.412631    0.479445    2.901384
     27          1           0       -8.111204    0.218863    1.159026
     28          8           0       -5.174421   -1.910268    1.789596
     29          7           0       -5.255662   -0.241225    0.215202
     30          1           0       -5.378098    0.760388    0.130298
     31          6           0       -4.183962   -0.724989   -0.633592
     32          1           0       -3.776500   -1.628749   -0.170828
     33          6           0       -3.127396    0.395054   -0.709856
     34          6           0       -4.680300   -1.077654   -2.042199
     35          1           0       -5.130028   -0.177547   -2.495149
     36          1           0       -3.812481   -1.363051   -2.659268
     37          8           0       -3.458811    1.574258   -0.498436
     38          8           0       -5.611274   -2.131659   -1.907302
     39          1           0       -5.936154   -2.367798   -2.789200
     40          7           0       -1.885823    0.019791   -1.037203
     41          1           0       -1.655213   -0.951682   -1.230426
     42          6           0       -0.774456    0.941501   -1.215541
     43          1           0       -1.168514    1.875256   -1.624661
     44          6           0        0.229402    0.309826   -2.192887
     45          6           0        0.000504    1.202277    0.104091
     46          1           0        1.004160    1.567629   -0.145179
     47          1           0        0.115180    0.235167    0.608787
     48          8           0        0.280016   -0.911097   -2.343413
     49          6           0       -0.640007    2.223857    1.058707
     50          1           0       -1.670911    1.897999    1.250986
     51          6           0        0.140631    2.237171    2.382039
     52          1           0        1.185306    2.520400    2.210160
     53          1           0        0.129947    1.252838    2.862738
     54          1           0       -0.270653    2.963686    3.099900
     55          6           0       -0.645042    3.623301    0.413637
     56          1           0        0.347638    3.860198    0.011331
     57          1           0       -1.372400    3.693445   -0.401853
     58          1           0       -0.876855    4.425164    1.137503
     59          7           0        1.078817    1.218659   -2.731825
     60          1           0        1.023623    2.158929   -2.308783
     61          6           0        2.516785    0.952606   -2.820344
     62          1           0        2.739060    0.031647   -2.266076
     63          6           0        3.230708    2.176631   -2.084647
     64          6           0        3.007257    0.769402   -4.263792
     65          1           0        2.995614    1.762107   -4.749646
     66          1           0        2.295391    0.119421   -4.792206
     67          8           0        4.467385    2.227680   -2.197086
     68          6           0        4.425448    0.188472   -4.317837
     69          1           0        5.050268    0.806693   -3.662818
     70          1           0        4.423320   -0.828605   -3.901400
     71          6           0        5.049884    0.165836   -5.708283
     72          1           0        6.081399   -0.196292   -5.668995
     73          1           0        5.080457    1.165345   -6.153866
     74          7           0        4.349212   -0.725433   -6.668650
     75          1           0        4.520897   -1.717939   -6.563519
     76          7           0        2.864659    0.846601   -7.527939
     77          1           0        2.355210    1.199767   -8.324609
     78          1           0        2.853077    1.388602   -6.672680
     79          7           0        3.054276   -1.232488   -8.525234
     80          1           0        3.595915   -2.062396   -8.719353
     81          1           0        2.156264   -1.147801   -8.979249
     82          6           0        3.422215   -0.372018   -7.552297
     83          8           0        2.438887    2.954809   -1.476588
 ---------------------------------------------------------------------

 SCF Done:  E(RB3LYP) =  -1868.06416180     A.U. after    2 cycles

 Alpha  occ. eigenvalues --  -19.25552 -19.21379 -19.20191 -19.18510 -19.17374
 Alpha  occ. eigenvalues --  -19.10505 -19.09606 -14.57193 -14.51561 -14.51223
 Alpha  occ. eigenvalues --  -14.50992 -14.48960 -14.43801 -14.42770 -14.38533
 Alpha  occ. eigenvalues --  -10.47600 -10.42399 -10.38960 -10.36973 -10.35980
 Alpha  occ. eigenvalues --  -10.33738 -10.33186 -10.32845 -10.32089 -10.31127
 Alpha  occ. eigenvalues --  -10.30573 -10.29548 -10.29293 -10.29191 -10.28463
 Alpha  occ. eigenvalues --  -10.27547 -10.26399 -10.25542 -10.25361 -10.25243
 Alpha  occ. eigenvalues --  -10.25219 -10.24850 -10.24420  -1.18021  -1.15971
 Alpha  occ. eigenvalues --   -1.11938  -1.11718  -1.10471  -1.08910  -1.08701
 Alpha  occ. eigenvalues --   -1.05169  -1.05036  -1.04199  -1.03462  -1.00191
 Alpha  occ. eigenvalues --   -0.99601  -0.96684  -0.94408  -0.93413  -0.88509
 Alpha  occ. eigenvalues --   -0.87911  -0.87698  -0.84552  -0.83558  -0.82265
 Alpha  occ. eigenvalues --   -0.80484  -0.80263  -0.78030  -0.76040  -0.74842
 Alpha  occ. eigenvalues --   -0.73614  -0.73502  -0.72859  -0.72621  -0.72180
 Alpha  occ. eigenvalues --   -0.71674  -0.70381  -0.69507  -0.67395  -0.66910
 Alpha  occ. eigenvalues --   -0.65935  -0.65406  -0.65069  -0.64535  -0.64366
 Alpha  occ. eigenvalues --   -0.63651  -0.62144  -0.61659  -0.60928  -0.59167
 Alpha  occ. eigenvalues --   -0.58515  -0.58203  -0.57774  -0.56721  -0.56423
 Alpha  occ. eigenvalues --   -0.56210  -0.55379  -0.54635  -0.54385  -0.53679
 Alpha  occ. eigenvalues --   -0.53531  -0.53137  -0.52145  -0.51964  -0.51534
 Alpha  occ. eigenvalues --   -0.51142  -0.50955  -0.50558  -0.50308  -0.50082
 Alpha  occ. eigenvalues --   -0.49792  -0.49385  -0.49077  -0.48301  -0.47823
 Alpha  occ. eigenvalues --   -0.47525  -0.47030  -0.46856  -0.46161  -0.46001
 Alpha  occ. eigenvalues --   -0.45884  -0.45782  -0.45294  -0.45158  -0.44698
 Alpha  occ. eigenvalues --   -0.43865  -0.43626  -0.43366  -0.42815  -0.42450
 Alpha  occ. eigenvalues --   -0.42061  -0.41331  -0.40581  -0.40487  -0.40363
 Alpha  occ. eigenvalues --   -0.40275  -0.39752  -0.39643  -0.39242  -0.38863
 Alpha  occ. eigenvalues --   -0.38542  -0.37385  -0.34729  -0.34258  -0.33445
 Alpha  occ. eigenvalues --   -0.32513  -0.31846  -0.31322  -0.30386  -0.25730
 Alpha  occ. eigenvalues --   -0.25241  -0.23515
 Alpha virt. eigenvalues --   -0.11911  -0.11229  -0.08663  -0.07594  -0.05991
 Alpha virt. eigenvalues --   -0.05395  -0.04237  -0.03608  -0.03415  -0.03282
 Alpha virt. eigenvalues --   -0.03130  -0.01815  -0.01290  -0.00001   0.00582

 Mulliken charges:
               1
     1  N   -0.799032
     2  H    0.408345
     3  H    0.445452
     4  H    0.433558
     5  C   -0.095347
     6  H    0.198230
     7  C    0.661123
     8  C   -0.125067
     9  H    0.229261
    10  O   -0.521720
    11  C   -0.486597
    12  H    0.149173
    13  H    0.171230
    14  H    0.188152
    15  C   -0.467730
    16  H    0.161772
    17  H    0.142688
    18  H    0.192207
    19  N   -0.634753
    20  H    0.353437
    21  C   -0.029334
    22  H    0.204047
    23  C    0.615583
    24  C   -0.491809
    25  H    0.211582
    26  H    0.166826
    27  H    0.166215
    28  O   -0.490665
    29  N   -0.588179
    30  H    0.350362
    31  C   -0.093210
    32  H    0.205918
    33  C    0.634775
    34  C   -0.013923
    35  H    0.124557
    36  H    0.134583
    37  O   -0.588491
    38  O   -0.600535
    39  H    0.402583
    40  N   -0.595666
    41  H    0.357054
    42  C   -0.069110
    43  H    0.169850
    44  C    0.568700
    45  C   -0.282444
    46  H    0.204476
    47  H    0.148147
    48  O   -0.539877
    49  C   -0.101478
    50  H    0.122627
    51  C   -0.452755
    52  H    0.189874
    53  H    0.164419
    54  H    0.086515
    55  C   -0.511159
    56  H    0.230238
    57  H    0.164278
    58  H    0.104959
    59  N   -0.600204
    60  H    0.347282
    61  C   -0.083727
    62  H    0.157505
    63  C    0.584276
    64  C   -0.280543
    65  H    0.126352
    66  H    0.124898
    67  O   -0.563904
    68  C   -0.271789
    69  H    0.240893
    70  H    0.139490
    71  C   -0.199253
    72  H    0.193360
    73  H    0.185104
    74  N   -0.575232
    75  H    0.363226
    76  N   -0.754615
    77  H    0.377262
    78  H    0.400375
    79  N   -0.763588
    80  H    0.380301
    81  H    0.379628
    82  C    0.811055
    83  O   -0.602066
 Sum of Mulliken charges =   1.00000

 Dipole moment (field-independent basis, Debye):
    X=            -11.2956    Y=              7.6479    Z=            -17.9243  Tot=             22.5247
 Quadrupole moment (field-independent basis, Debye-Ang):
   XX=           -119.5845   YY=           -185.2323   ZZ=             28.4399
   XY=            -96.7335   XZ=           -102.7339   YZ=             68.6432

 Normal termination of Gaussian 16 at Sun Jun 26 14:46:26 2022.
