 Gaussian 16, Revision C.01,
 Gaussian 16:  ES64L-G16RevC.01  3-Jul-2019

 ----------------------------------------------------------------------
 # B3LYP/6-31G* empiricaldispersion=gd3 guess=read geom=check nosymm in
 tegral(ultrafinegrid)
 ----------------------------------------------------------------------

 ------------------------------------------------------
 Candidate Structure: Conf:123 Charge calc in gas phase
 ------------------------------------------------------
 Structure from the checkpoint file:  "conf-123.chk"
 Charge =  1 Multiplicity = 1

                          Input orientation:
 ---------------------------------------------------------------------
 Center     Atomic      Atomic             Coordinates (Angstroms)
 Number     Number       Type             X           Y           Z
 ---------------------------------------------------------------------
      1          7           0       -1.550782   -2.080357    4.588386
      2          1           0       -0.793318   -1.893713    3.915764
      3          1           0       -1.604963   -1.266983    5.234355
      4          1           0       -1.338108   -2.941747    5.099439
      5          6           0       -2.904975   -2.120512    3.903400
      6          1           0       -2.769825   -2.640929    2.952554
      7          6           0       -3.226512   -0.616914    3.727200
      8          6           0       -3.938426   -2.851831    4.786461
      9          1           0       -3.988494   -2.310216    5.741393
     10          8           0       -2.900326    0.137618    4.647274
     11          6           0       -5.322084   -2.788740    4.118230
     12          1           0       -5.306717   -3.269587    3.132097
     13          1           0       -5.676095   -1.761339    3.996461
     14          1           0       -6.052565   -3.321256    4.733381
     15          6           0       -3.532432   -4.312644    5.044070
     16          1           0       -3.432418   -4.867754    4.104001
     17          1           0       -2.595039   -4.421370    5.606943
     18          1           0       -4.300343   -4.808852    5.644277
     19          7           0       -3.809025   -0.281488    2.571819
     20          1           0       -4.017540   -0.995178    1.873920
     21          6           0       -4.115353    1.067888    2.088948
     22          1           0       -5.027116    1.434294    2.579185
     23          6           0       -4.393910    0.860694    0.575314
     24          6           0       -2.963946    2.059755    2.328372
     25          1           0       -3.264205    3.075774    2.054125
     26          1           0       -2.695523    2.073060    3.384437
     27          1           0       -2.082467    1.781864    1.741460
     28          8           0       -4.485607   -0.276303    0.113139
     29          7           0       -4.460812    1.977098   -0.201384
     30          1           0       -4.175253    2.849695    0.229011
     31          6           0       -4.125968    1.885745   -1.643575
     32          1           0       -4.619371    0.994756   -2.035217
     33          6           0       -2.592905    1.762324   -1.657761
     34          6           0       -4.649433    3.114762   -2.388220
     35          1           0       -4.221047    4.027024   -1.944468
     36          1           0       -4.302694    3.069254   -3.424807
     37          8           0       -1.889696    2.785597   -1.611117
     38          8           0       -6.058892    3.132833   -2.435850
     39          1           0       -6.396471    3.222733   -1.530810
     40          7           0       -2.117950    0.511452   -1.546257
     41          1           0       -2.792783   -0.240624   -1.607869
     42          6           0       -0.818764    0.171637   -0.958622
     43          1           0       -0.556359    0.983551   -0.271864
     44          6           0        0.291271   -0.000873   -2.015178
     45          6           0       -1.008524   -1.163738   -0.194183
     46          1           0       -1.130622   -1.950591   -0.950636
     47          1           0       -1.961353   -1.100190    0.351874
     48          8           0        0.012876   -0.451964   -3.132499
     49          6           0        0.098135   -1.565470    0.796297
     50          1           0        1.074821   -1.543597    0.307147
     51          6           0        0.203017   -0.585087    1.971942
     52          1           0       -0.779786   -0.406105    2.439268
     53          1           0        0.603087    0.383479    1.662610
     54          1           0        0.918288   -0.955716    2.717628
     55          6           0       -0.148535   -2.999644    1.283155
     56          1           0       -1.135416   -3.103821    1.763615
     57          1           0       -0.130110   -3.715719    0.454941
     58          1           0        0.623591   -3.308425    1.997809
     59          7           0        1.520406    0.330232   -1.577746
     60          1           0        1.644309    0.525378   -0.562360
     61          6           0        2.745527   -0.419289   -1.922926
     62          1           0        2.445816   -1.387309   -2.341205
     63          6           0        3.487371   -0.659862   -0.535668
     64          6           0        3.693171    0.261510   -2.915090
     65          1           0        4.541426   -0.418917   -3.020447
     66          1           0        4.109945    1.164600   -2.446621
     67          8           0        4.551932   -1.277163   -0.608657
     68          6           0        3.054639    0.586959   -4.285660
     69          1           0        3.637151    0.148160   -5.104650
     70          1           0        2.062402    0.125664   -4.340493
     71          6           0        2.958040    2.092928   -4.579937
     72          1           0        2.346690    2.296378   -5.464794
     73          1           0        3.951842    2.507798   -4.770314
     74          7           0        2.410473    2.889967   -3.467335
     75          1           0        3.063308    3.131712   -2.734033
     76          7           0        0.175418    2.391381   -3.905436
     77          1           0       -0.777029    2.538349   -3.592268
     78          1           0        0.351922    1.435920   -4.207113
     79          7           0        0.726215    3.784299   -2.142449
     80          1           0        1.395241    4.350323   -1.641839
     81          1           0       -0.183853    3.601984   -1.722199
     82          6           0        1.119013    2.993389   -3.153261
     83          8           0        2.879732   -0.170272    0.474692
 ---------------------------------------------------------------------

 SCF Done:  E(RB3LYP) =  -1868.08270929     A.U. after    1 cycles

 Alpha  occ. eigenvalues --  -19.27267 -19.26510 -19.24800 -19.24344 -19.19505
 Alpha  occ. eigenvalues --  -19.11694 -19.10110 -14.60984 -14.51009 -14.50068
 Alpha  occ. eigenvalues --  -14.48322 -14.48040 -14.47629 -14.46900 -14.41236
 Alpha  occ. eigenvalues --  -10.44538 -10.44095 -10.43273 -10.41432 -10.41029
 Alpha  occ. eigenvalues --  -10.37997 -10.36308 -10.35296 -10.35006 -10.34053
 Alpha  occ. eigenvalues --  -10.33633 -10.31875 -10.31747 -10.31118 -10.30796
 Alpha  occ. eigenvalues --  -10.29255 -10.29137 -10.28219 -10.28049 -10.27846
 Alpha  occ. eigenvalues --  -10.26313 -10.25663 -10.24084  -1.19874  -1.18451
 Alpha  occ. eigenvalues --   -1.16124  -1.14962  -1.12816  -1.12051  -1.10892
 Alpha  occ. eigenvalues --   -1.07631  -1.06176  -1.04456  -1.04365  -1.02338
 Alpha  occ. eigenvalues --   -1.00555  -0.98464  -0.96171  -0.95476  -0.92009
 Alpha  occ. eigenvalues --   -0.91333  -0.87969  -0.86708  -0.86099  -0.84708
 Alpha  occ. eigenvalues --   -0.82254  -0.80749  -0.80141  -0.78896  -0.76800
 Alpha  occ. eigenvalues --   -0.76049  -0.75443  -0.74796  -0.74711  -0.73691
 Alpha  occ. eigenvalues --   -0.72280  -0.71067  -0.70665  -0.70435  -0.70085
 Alpha  occ. eigenvalues --   -0.68276  -0.67800  -0.66271  -0.65555  -0.64853
 Alpha  occ. eigenvalues --   -0.64002  -0.63081  -0.62679  -0.61893  -0.61679
 Alpha  occ. eigenvalues --   -0.61204  -0.60832  -0.60350  -0.59391  -0.58872
 Alpha  occ. eigenvalues --   -0.58553  -0.58075  -0.57325  -0.56776  -0.56337
 Alpha  occ. eigenvalues --   -0.55411  -0.55178  -0.54889  -0.54551  -0.53659
 Alpha  occ. eigenvalues --   -0.53545  -0.53303  -0.52931  -0.52516  -0.51979
 Alpha  occ. eigenvalues --   -0.51910  -0.51679  -0.51480  -0.51084  -0.51002
 Alpha  occ. eigenvalues --   -0.50622  -0.50372  -0.50055  -0.49942  -0.49621
 Alpha  occ. eigenvalues --   -0.48656  -0.48479  -0.48344  -0.48133  -0.47712
 Alpha  occ. eigenvalues --   -0.46480  -0.46257  -0.45299  -0.44481  -0.43544
 Alpha  occ. eigenvalues --   -0.43257  -0.43146  -0.42616  -0.42089  -0.41493
 Alpha  occ. eigenvalues --   -0.41276  -0.41148  -0.40618  -0.40365  -0.40108
 Alpha  occ. eigenvalues --   -0.39661  -0.39299  -0.38553  -0.38337  -0.37910
 Alpha  occ. eigenvalues --   -0.36878  -0.36140  -0.33580  -0.32580  -0.26651
 Alpha  occ. eigenvalues --   -0.26532  -0.24117
 Alpha virt. eigenvalues --   -0.14112  -0.13168  -0.10765  -0.10045  -0.09145
 Alpha virt. eigenvalues --   -0.07438  -0.06118  -0.05845  -0.05189  -0.03926
 Alpha virt. eigenvalues --   -0.03500  -0.02726  -0.02306  -0.01507  -0.01238

 Mulliken charges:
               1
     1  N   -0.761887
     2  H    0.431717
     3  H    0.425284
     4  H    0.413031
     5  C   -0.116548
     6  H    0.210987
     7  C    0.658015
     8  C   -0.102456
     9  H    0.175646
    10  O   -0.533856
    11  C   -0.470135
    12  H    0.165389
    13  H    0.175475
    14  H    0.192589
    15  C   -0.478277
    16  H    0.178296
    17  H    0.143042
    18  H    0.203385
    19  N   -0.630160
    20  H    0.380456
    21  C   -0.031140
    22  H    0.210463
    23  C    0.624455
    24  C   -0.501066
    25  H    0.165953
    26  H    0.226101
    27  H    0.178792
    28  O   -0.525457
    29  N   -0.608789
    30  H    0.347560
    31  C   -0.094980
    32  H    0.207513
    33  C    0.604445
    34  C   -0.039035
    35  H    0.147961
    36  H    0.177367
    37  O   -0.580275
    38  O   -0.593818
    39  H    0.400687
    40  N   -0.559243
    41  H    0.367149
    42  C   -0.057894
    43  H    0.155991
    44  C    0.595343
    45  C   -0.312772
    46  H    0.174493
    47  H    0.118811
    48  O   -0.559595
    49  C   -0.083428
    50  H    0.210853
    51  C   -0.478111
    52  H    0.083187
    53  H    0.195352
    54  H    0.163924
    55  C   -0.479685
    56  H    0.088915
    57  H    0.185114
    58  H    0.161329
    59  N   -0.610404
    60  H    0.351710
    61  C   -0.088020
    62  H    0.158976
    63  C    0.586361
    64  C   -0.266841
    65  H    0.195769
    66  H    0.110799
    67  O   -0.550227
    68  C   -0.296589
    69  H    0.165312
    70  H    0.176356
    71  C   -0.180753
    72  H    0.186156
    73  H    0.184313
    74  N   -0.573661
    75  H    0.357740
    76  N   -0.754738
    77  H    0.368617
    78  H    0.399136
    79  N   -0.781476
    80  H    0.361145
    81  H    0.410893
    82  C    0.775863
    83  O   -0.632900
 Sum of Mulliken charges =   1.00000

 Dipole moment (field-independent basis, Debye):
    X=            -16.8498    Y=              2.2404    Z=             10.1139  Tot=             19.7795
 Quadrupole moment (field-independent basis, Debye-Ang):
   XX=           -207.3401   YY=           -167.7038   ZZ=           -136.8579
   XY=             34.8391   XZ=            -61.8394   YZ=            -60.4060

 Normal termination of Gaussian 16 at Sun Jun 26 14:46:12 2022.
