 Gaussian 16, Revision C.01,
 Gaussian 16:  ES64L-G16RevC.01  3-Jul-2019

 ----------------------------------------------------------------------
 # B3LYP/6-31G* empiricaldispersion=gd3 guess=read geom=check nosymm in
 tegral(ultrafinegrid)
 ----------------------------------------------------------------------

 ------------------------------------------------------
 Candidate Structure: Conf:914 Charge calc in gas phase
 ------------------------------------------------------
 Structure from the checkpoint file:  "conf-914.chk"
 Charge =  1 Multiplicity = 1

                          Input orientation:
 ---------------------------------------------------------------------
 Center     Atomic      Atomic             Coordinates (Angstroms)
 Number     Number       Type             X           Y           Z
 ---------------------------------------------------------------------
      1          7           0        0.853860    4.230850    3.441596
      2          1           0        1.184637    4.762811    4.246697
      3          1           0        0.270175    3.443721    3.774970
      4          1           0        1.756251    3.764332    2.927169
      5          6           0       -0.034055    5.049035    2.540800
      6          1           0       -0.250212    5.998922    3.045477
      7          6           0       -1.371409    4.269476    2.462264
      8          6           0        0.742083    5.346886    1.225606
      9          1           0        1.175087    4.392216    0.918592
     10          8           0       -1.527454    3.222474    3.086988
     11          6           0       -0.090306    5.858347    0.042496
     12          1           0       -0.610421    6.799032    0.274777
     13          1           0       -0.809367    5.118180   -0.315424
     14          1           0        0.593816    6.079876   -0.783643
     15          6           0        1.862835    6.351269    1.542898
     16          1           0        1.430829    7.315484    1.842844
     17          1           0        2.539821    5.995829    2.322225
     18          1           0        2.491998    6.508172    0.664177
     19          7           0       -2.359111    4.840644    1.729205
     20          1           0       -2.140287    5.658720    1.180277
     21          6           0       -3.546456    4.085997    1.319824
     22          1           0       -3.990030    3.652019    2.220395
     23          6           0       -3.071549    2.973789    0.356411
     24          6           0       -4.544414    5.013419    0.631516
     25          1           0       -5.451317    4.463250    0.365318
     26          1           0       -4.821235    5.837211    1.295746
     27          1           0       -4.112921    5.418013   -0.289891
     28          8           0       -2.599560    3.274571   -0.749145
     29          7           0       -3.215508    1.714456    0.822790
     30          1           0       -3.442232    1.666815    1.809084
     31          6           0       -2.491145    0.539506    0.340693
     32          1           0       -2.919651   -0.320903    0.863913
     33          6           0       -1.005967    0.665403    0.727892
     34          6           0       -2.637229    0.244917   -1.183242
     35          1           0       -3.674811   -0.039214   -1.378644
     36          1           0       -2.417646    1.137301   -1.771151
     37          8           0       -0.452252    1.760338    0.839933
     38          8           0       -1.821790   -0.853098   -1.552969
     39          1           0       -0.907326   -0.536939   -1.678047
     40          7           0       -0.368720   -0.517306    0.883537
     41          1           0       -0.849859   -1.344607    0.549279
     42          6           0        1.086475   -0.579797    0.979582
     43          1           0        1.371757   -0.283841    1.993760
     44          6           0        1.696654    0.400329   -0.044908
     45          6           0        1.552963   -2.015356    0.690620
     46          1           0        1.212568   -2.275821   -0.320374
     47          1           0        1.041922   -2.689214    1.392824
     48          8           0        1.300195    0.342720   -1.228102
     49          6           0        3.073356   -2.244244    0.788197
     50          1           0        3.564857   -1.571257    0.071349
     51          6           0        3.625125   -1.939372    2.188830
     52          1           0        3.111466   -2.540283    2.950299
     53          1           0        3.518311   -0.883620    2.461270
     54          1           0        4.692439   -2.178991    2.241808
     55          6           0        3.398354   -3.688280    0.379331
     56          1           0        2.936007   -4.404009    1.070952
     57          1           0        3.033559   -3.911904   -0.629849
     58          1           0        4.479352   -3.863595    0.393483
     59          7           0        2.633616    1.188802    0.483414
     60          1           0        2.595659    1.236312    1.502328
     61          6           0        3.399152    2.363663    0.039468
     62          1           0        4.427504    2.050172   -0.178959
     63          6           0        3.440838    3.340244    1.278404
     64          6           0        2.858211    3.170604   -1.151644
     65          1           0        3.436690    4.099939   -1.150610
     66          1           0        1.822314    3.443070   -0.933128
     67          8           0        4.062846    4.389615    1.152354
     68          6           0        2.969072    2.498993   -2.524272
     69          1           0        4.028695    2.326010   -2.753349
     70          1           0        2.506334    1.512114   -2.514886
     71          6           0        2.440422    3.335659   -3.693703
     72          1           0        2.479032    2.736313   -4.611190
     73          1           0        3.093294    4.202853   -3.840120
     74          7           0        1.078166    3.922709   -3.589390
     75          1           0        0.906656    4.625213   -4.297984
     76          7           0       -0.117494    2.536985   -2.091812
     77          1           0       -0.848802    2.556115   -1.382308
     78          1           0        0.600264    1.815591   -1.964929
     79          7           0       -1.105420    4.397813   -3.006320
     80          1           0       -0.972256    5.367047   -3.257575
     81          1           0       -1.892654    4.200088   -2.393618
     82          6           0       -0.015200    3.594267   -2.884175
     83          8           0        2.742212    2.943788    2.294407
 ---------------------------------------------------------------------

 SCF Done:  E(RB3LYP) =  -1868.15862780     A.U. after    2 cycles

 Alpha  occ. eigenvalues --  -19.24989 -19.24846 -19.24491 -19.22767 -19.21993
 Alpha  occ. eigenvalues --  -19.19141 -19.17173 -14.51648 -14.50202 -14.48860
 Alpha  occ. eigenvalues --  -14.48618 -14.48616 -14.47115 -14.46416 -14.44699
 Alpha  occ. eigenvalues --  -10.45444 -10.41754 -10.41721 -10.39442 -10.38679
 Alpha  occ. eigenvalues --  -10.36763 -10.35919 -10.35802 -10.34773 -10.34317
 Alpha  occ. eigenvalues --  -10.33857 -10.32743 -10.31271 -10.30975 -10.29729
 Alpha  occ. eigenvalues --  -10.29263 -10.28281 -10.27761 -10.27567 -10.26823
 Alpha  occ. eigenvalues --  -10.26480 -10.24629 -10.24171  -1.17171  -1.16216
 Alpha  occ. eigenvalues --   -1.14792  -1.13799  -1.12711  -1.11771  -1.11494
 Alpha  occ. eigenvalues --   -1.07113  -1.05393  -1.04942  -1.03572  -1.03321
 Alpha  occ. eigenvalues --   -1.03053  -1.01256  -1.01039  -0.92067  -0.90388
 Alpha  occ. eigenvalues --   -0.89645  -0.89147  -0.86724  -0.84949  -0.82597
 Alpha  occ. eigenvalues --   -0.82457  -0.79220  -0.78906  -0.77433  -0.75714
 Alpha  occ. eigenvalues --   -0.75225  -0.75020  -0.73457  -0.72139  -0.71188
 Alpha  occ. eigenvalues --   -0.70487  -0.69991  -0.69637  -0.68582  -0.68109
 Alpha  occ. eigenvalues --   -0.66294  -0.65636  -0.65164  -0.64490  -0.63911
 Alpha  occ. eigenvalues --   -0.63366  -0.62530  -0.62049  -0.61565  -0.61104
 Alpha  occ. eigenvalues --   -0.60932  -0.59737  -0.59288  -0.59113  -0.58424
 Alpha  occ. eigenvalues --   -0.58298  -0.57936  -0.56987  -0.56321  -0.55917
 Alpha  occ. eigenvalues --   -0.55540  -0.55088  -0.54496  -0.54020  -0.53626
 Alpha  occ. eigenvalues --   -0.53309  -0.52613  -0.52266  -0.51899  -0.51857
 Alpha  occ. eigenvalues --   -0.50833  -0.50526  -0.50473  -0.50274  -0.49965
 Alpha  occ. eigenvalues --   -0.49798  -0.49510  -0.48999  -0.48648  -0.48295
 Alpha  occ. eigenvalues --   -0.48216  -0.48079  -0.47889  -0.46691  -0.46305
 Alpha  occ. eigenvalues --   -0.45503  -0.45281  -0.45067  -0.44666  -0.44496
 Alpha  occ. eigenvalues --   -0.44146  -0.43805  -0.43542  -0.43403  -0.42612
 Alpha  occ. eigenvalues --   -0.40783  -0.40328  -0.40322  -0.40162  -0.40087
 Alpha  occ. eigenvalues --   -0.39565  -0.38866  -0.38408  -0.37839  -0.37268
 Alpha  occ. eigenvalues --   -0.36801  -0.35881  -0.35511  -0.34863  -0.34345
 Alpha  occ. eigenvalues --   -0.33457  -0.30835
 Alpha virt. eigenvalues --   -0.12032  -0.10573  -0.09771  -0.08983  -0.07223
 Alpha virt. eigenvalues --   -0.06068  -0.05215  -0.03756  -0.03378  -0.03115
 Alpha virt. eigenvalues --   -0.01825  -0.01507  -0.00378  -0.00290   0.00682

 Mulliken charges:
               1
     1  N   -0.798657
     2  H    0.385940
     3  H    0.405166
     4  H    0.474990
     5  C   -0.090139
     6  H    0.191109
     7  C    0.655871
     8  C   -0.102914
     9  H    0.185976
    10  O   -0.532349
    11  C   -0.516820
    12  H    0.149642
    13  H    0.163169
    14  H    0.163383
    15  C   -0.450659
    16  H    0.136133
    17  H    0.181029
    18  H    0.182195
    19  N   -0.595535
    20  H    0.349887
    21  C   -0.052307
    22  H    0.181345
    23  C    0.663508
    24  C   -0.481030
    25  H    0.188665
    26  H    0.184519
    27  H    0.165584
    28  O   -0.580086
    29  N   -0.569138
    30  H    0.364127
    31  C   -0.110412
    32  H    0.183110
    33  C    0.620818
    34  C   -0.050727
    35  H    0.178904
    36  H    0.165461
    37  O   -0.550164
    38  O   -0.625165
    39  H    0.414508
    40  N   -0.604322
    41  H    0.356280
    42  C   -0.012229
    43  H    0.171038
    44  C    0.651507
    45  C   -0.307417
    46  H    0.161323
    47  H    0.152259
    48  O   -0.609324
    49  C   -0.083934
    50  H    0.141589
    51  C   -0.453192
    52  H    0.148661
    53  H    0.139030
    54  H    0.162634
    55  C   -0.446106
    56  H    0.149042
    57  H    0.149902
    58  H    0.157923
    59  N   -0.608569
    60  H    0.376440
    61  C   -0.033297
    62  H    0.179460
    63  C    0.605441
    64  C   -0.303598
    65  H    0.185163
    66  H    0.148443
    67  O   -0.517502
    68  C   -0.338275
    69  H    0.171283
    70  H    0.203277
    71  C   -0.135966
    72  H    0.188247
    73  H    0.179174
    74  N   -0.621981
    75  H    0.354586
    76  N   -0.838771
    77  H    0.421891
    78  H    0.436295
    79  N   -0.781627
    80  H    0.353434
    81  H    0.404577
    82  C    0.787979
    83  O   -0.669704
 Sum of Mulliken charges =   1.00000

 Dipole moment (field-independent basis, Debye):
    X=             -4.9076    Y=             17.1128    Z=             -0.7166  Tot=             17.8170
 Quadrupole moment (field-independent basis, Debye-Ang):
   XX=           -204.2026   YY=           -122.5453   ZZ=           -175.6294
   XY=            -31.6496   XZ=            -18.8568   YZ=            -13.8230

 Normal termination of Gaussian 16 at Sun Jun 26 14:46:44 2022.
