 Gaussian 16, Revision C.01,
 Gaussian 16:  ES64L-G16RevC.01  3-Jul-2019

 ----------------------------------------------------------------------
 # B3LYP/6-31G* empiricaldispersion=gd3 guess=read geom=check nosymm in
 tegral(ultrafinegrid)
 ----------------------------------------------------------------------

 ------------------------------------------------------
 Candidate Structure: Conf:472 Charge calc in gas phase
 ------------------------------------------------------
 Structure from the checkpoint file:  "conf-472.chk"
 Charge =  1 Multiplicity = 1

                          Input orientation:
 ---------------------------------------------------------------------
 Center     Atomic      Atomic             Coordinates (Angstroms)
 Number     Number       Type             X           Y           Z
 ---------------------------------------------------------------------
      1          7           0       -8.282705    1.305340    4.991249
      2          1           0       -8.292078    0.914846    5.937845
      3          1           0       -7.723157    2.207752    5.006213
      4          1           0       -9.248794    1.461747    4.693373
      5          6           0       -7.481992    0.466559    4.009439
      6          1           0       -7.428404   -0.556087    4.392505
      7          6           0       -6.101115    1.177575    4.051824
      8          6           0       -8.157244    0.486245    2.614861
      9          1           0       -8.222937    1.539253    2.304161
     10          8           0       -6.080158    2.354126    4.450260
     11          6           0       -7.310702   -0.275127    1.580050
     12          1           0       -7.151823   -1.316638    1.886101
     13          1           0       -6.334486    0.182102    1.407495
     14          1           0       -7.840566   -0.293662    0.623599
     15          6           0       -9.572370   -0.117091    2.675753
     16          1           0       -9.538939   -1.163056    3.002350
     17          1           0      -10.264341    0.421235    3.338173
     18          1           0      -10.026456   -0.092331    1.681228
     19          7           0       -5.050305    0.474541    3.659339
     20          1           0       -5.131743   -0.459261    3.247476
     21          6           0       -3.707828    1.027853    3.481776
     22          1           0       -3.797275    2.014871    3.013342
     23          6           0       -3.024912    0.046424    2.498876
     24          6           0       -2.963325    1.157847    4.817902
     25          1           0       -1.968001    1.586587    4.668395
     26          1           0       -3.521717    1.818406    5.486729
     27          1           0       -2.849001    0.177808    5.291353
     28          8           0       -3.623041   -0.972419    2.132717
     29          7           0       -1.788604    0.377952    2.110341
     30          1           0       -1.306810    1.203102    2.460787
     31          6           0       -0.958346   -0.465980    1.267689
     32          1           0       -1.107107   -1.515887    1.537960
     33          6           0        0.486657   -0.023074    1.495720
     34          6           0       -1.318678   -0.294399   -0.240621
     35          1           0       -2.357613   -0.616214   -0.364014
     36          1           0       -1.250277    0.774939   -0.488258
     37          8           0        0.741657    1.077772    1.985798
     38          8           0       -0.502939   -1.085203   -1.071789
     39          1           0        0.296299   -0.550670   -1.284309
     40          7           0        1.428788   -0.896964    1.056790
     41          1           0        1.075508   -1.638427    0.458841
     42          6           0        2.757987   -0.396487    0.723491
     43          1           0        3.164184    0.084121    1.616603
     44          6           0        2.628955    0.648167   -0.402422
     45          6           0        3.649243   -1.575245    0.282048
     46          1           0        3.203840   -2.012854   -0.622973
     47          1           0        3.590561   -2.339905    1.068310
     48          8           0        1.719156    0.586436   -1.245704
     49          6           0        5.130798   -1.247402    0.007687
     50          1           0        5.187671   -0.472105   -0.766668
     51          6           0        5.857021   -0.723851    1.255648
     52          1           0        5.836271   -1.470684    2.059888
     53          1           0        5.417038    0.198714    1.652771
     54          1           0        6.902945   -0.500779    1.023578
     55          6           0        5.836811   -2.498639   -0.535307
     56          1           0        5.819195   -3.310967    0.202756
     57          1           0        5.356404   -2.864709   -1.450265
     58          1           0        6.884547   -2.281797   -0.768934
     59          7           0        3.574699    1.598804   -0.423535
     60          1           0        4.362677    1.548579    0.214514
     61          6           0        3.766554    2.504834   -1.543458
     62          1           0        3.325237    2.045898   -2.430480
     63          6           0        5.272822    2.646430   -1.789616
     64          6           0        3.120174    3.885584   -1.295068
     65          1           0        3.522782    4.604598   -2.015455
     66          1           0        3.422759    4.229122   -0.298897
     67          8           0        5.587110    3.246951   -2.930883
     68          6           0        1.592649    3.856983   -1.406844
     69          1           0        1.178398    3.101697   -0.728633
     70          1           0        1.193064    4.829007   -1.086037
     71          6           0        1.095404    3.554344   -2.828176
     72          1           0        0.000426    3.483301   -2.820542
     73          1           0        1.469918    2.589460   -3.173916
     74          7           0        1.463496    4.559311   -3.821097
     75          1           0        1.004801    5.457771   -3.760651
     76          7           0        3.443189    3.590316   -4.608615
     77          1           0        3.977520    3.534565   -5.475703
     78          1           0        4.757991    3.404820   -3.483400
     79          7           0        2.404518    5.427013   -5.724185
     80          1           0        1.486448    5.602904   -6.113921
     81          1           0        3.140391    5.411084   -6.417448
     82          6           0        2.488637    4.468544   -4.721390
     83          8           0        6.099136    2.259612   -0.986011
 ---------------------------------------------------------------------

 SCF Done:  E(RB3LYP) =  -1868.12756528     A.U. after    1 cycles

 Alpha  occ. eigenvalues --  -19.27171 -19.22316 -19.21696 -19.20097 -19.20019
 Alpha  occ. eigenvalues --  -19.19353 -19.17560 -14.60520 -14.49654 -14.45777
 Alpha  occ. eigenvalues --  -14.43099 -14.42685 -14.42179 -14.42083 -14.36405
 Alpha  occ. eigenvalues --  -10.43899 -10.41120 -10.39342 -10.36534 -10.36332
 Alpha  occ. eigenvalues --  -10.35857 -10.35847 -10.35180 -10.35132 -10.31788
 Alpha  occ. eigenvalues --  -10.31153 -10.30529 -10.30307 -10.30182 -10.28767
 Alpha  occ. eigenvalues --  -10.28744 -10.28069 -10.25279 -10.24661 -10.24413
 Alpha  occ. eigenvalues --  -10.24399 -10.22412 -10.22080  -1.19662  -1.14595
 Alpha  occ. eigenvalues --   -1.14041  -1.13306  -1.12031  -1.10495  -1.07783
 Alpha  occ. eigenvalues --   -1.06421  -1.05400  -1.05023  -1.02279  -1.00084
 Alpha  occ. eigenvalues --   -0.99339  -0.95879  -0.95818  -0.91491  -0.89787
 Alpha  occ. eigenvalues --   -0.87536  -0.86078  -0.85542  -0.83665  -0.81975
 Alpha  occ. eigenvalues --   -0.81047  -0.79081  -0.77596  -0.75487  -0.74346
 Alpha  occ. eigenvalues --   -0.74051  -0.73317  -0.73180  -0.71544  -0.70758
 Alpha  occ. eigenvalues --   -0.70280  -0.68484  -0.67379  -0.67094  -0.66203
 Alpha  occ. eigenvalues --   -0.65174  -0.64781  -0.64266  -0.64177  -0.62026
 Alpha  occ. eigenvalues --   -0.61870  -0.60909  -0.60234  -0.59724  -0.59171
 Alpha  occ. eigenvalues --   -0.59094  -0.58779  -0.57508  -0.56826  -0.56153
 Alpha  occ. eigenvalues --   -0.55549  -0.55019  -0.54574  -0.54251  -0.53603
 Alpha  occ. eigenvalues --   -0.53252  -0.53189  -0.52884  -0.52577  -0.52007
 Alpha  occ. eigenvalues --   -0.51440  -0.51192  -0.50634  -0.50301  -0.49888
 Alpha  occ. eigenvalues --   -0.49566  -0.49399  -0.49122  -0.48641  -0.48424
 Alpha  occ. eigenvalues --   -0.48383  -0.47941  -0.47651  -0.47607  -0.47284
 Alpha  occ. eigenvalues --   -0.46756  -0.46387  -0.46207  -0.45598  -0.44968
 Alpha  occ. eigenvalues --   -0.44340  -0.43538  -0.43302  -0.43072  -0.42287
 Alpha  occ. eigenvalues --   -0.41688  -0.41547  -0.41238  -0.40320  -0.39737
 Alpha  occ. eigenvalues --   -0.39713  -0.39379  -0.38411  -0.38016  -0.37896
 Alpha  occ. eigenvalues --   -0.37031  -0.36429  -0.34992  -0.34597  -0.34457
 Alpha  occ. eigenvalues --   -0.33940  -0.32961  -0.32669  -0.32560  -0.31877
 Alpha  occ. eigenvalues --   -0.31113  -0.29869
 Alpha virt. eigenvalues --   -0.12992  -0.11514  -0.07915  -0.07025  -0.06222
 Alpha virt. eigenvalues --   -0.04863  -0.04593  -0.02873  -0.02659  -0.02347
 Alpha virt. eigenvalues --   -0.01569  -0.00383  -0.00301   0.00149   0.01633

 Mulliken charges:
               1
     1  N   -0.758090
     2  H    0.417158
     3  H    0.432071
     4  H    0.410160
     5  C   -0.104337
     6  H    0.207034
     7  C    0.646569
     8  C   -0.109594
     9  H    0.169480
    10  O   -0.545511
    11  C   -0.474829
    12  H    0.171211
    13  H    0.184702
    14  H    0.189130
    15  C   -0.472838
    16  H    0.178590
    17  H    0.138297
    18  H    0.203120
    19  N   -0.601815
    20  H    0.380725
    21  C   -0.062601
    22  H    0.197955
    23  C    0.632904
    24  C   -0.455049
    25  H    0.181986
    26  H    0.185188
    27  H    0.173231
    28  O   -0.548416
    29  N   -0.622894
    30  H    0.362911
    31  C   -0.067607
    32  H    0.190143
    33  C    0.609386
    34  C   -0.033072
    35  H    0.166383
    36  H    0.138783
    37  O   -0.543767
    38  O   -0.649329
    39  H    0.441682
    40  N   -0.599499
    41  H    0.346803
    42  C   -0.067012
    43  H    0.184601
    44  C    0.652676
    45  C   -0.284520
    46  H    0.148633
    47  H    0.156874
    48  O   -0.583140
    49  C   -0.096235
    50  H    0.150270
    51  C   -0.449094
    52  H    0.143593
    53  H    0.132839
    54  H    0.172581
    55  C   -0.445751
    56  H    0.143101
    57  H    0.145988
    58  H    0.159712
    59  N   -0.591545
    60  H    0.366457
    61  C   -0.102794
    62  H    0.206604
    63  C    0.612670
    64  C   -0.261114
    65  H    0.160437
    66  H    0.154420
    67  O   -0.608352
    68  C   -0.268144
    69  H    0.164511
    70  H    0.129239
    71  C   -0.143445
    72  H    0.143579
    73  H    0.201608
    74  N   -0.592597
    75  H    0.329857
    76  N   -0.733090
    77  H    0.296276
    78  H    0.469603
    79  N   -0.758153
    80  H    0.336247
    81  H    0.339772
    82  C    0.659123
    83  O   -0.482638
 Sum of Mulliken charges =   1.00000

 Dipole moment (field-independent basis, Debye):
    X=            -31.1791    Y=              7.5255    Z=             12.2211  Tot=             34.3239
 Quadrupole moment (field-independent basis, Debye-Ang):
   XX=             18.9272   YY=           -192.5206   ZZ=            -99.9282
   XY=            -33.0111   XZ=           -144.4195   YZ=            -26.7737

 Normal termination of Gaussian 16 at Sun Jun 26 14:46:03 2022.
