 Gaussian 16, Revision C.01,
 Gaussian 16:  ES64L-G16RevC.01  3-Jul-2019

 ----------------------------------------------------------------------
 # B3LYP/6-31G* empiricaldispersion=gd3 guess=read geom=check nosymm in
 tegral(ultrafinegrid)
 ----------------------------------------------------------------------

 ------------------------------------------------------
 Candidate Structure: Conf:549 Charge calc in gas phase
 ------------------------------------------------------
 Structure from the checkpoint file:  "conf-549.chk"
 Charge =  1 Multiplicity = 1

                          Input orientation:
 ---------------------------------------------------------------------
 Center     Atomic      Atomic             Coordinates (Angstroms)
 Number     Number       Type             X           Y           Z
 ---------------------------------------------------------------------
      1          7           0       -7.986049   -0.675361    3.481481
      2          1           0       -8.761134   -0.007405    3.510082
      3          1           0       -7.471837   -0.558025    2.559176
      4          1           0       -8.364421   -1.619911    3.585547
      5          6           0       -6.888787   -0.363528    4.486237
      6          1           0       -7.311098    0.280520    5.263073
      7          6           0       -5.865771    0.394764    3.597575
      8          6           0       -6.345472   -1.673629    5.113427
      9          1           0       -5.937230   -2.280245    4.293448
     10          8           0       -5.964511    0.257502    2.372256
     11          6           0       -5.200070   -1.376763    6.095768
     12          1           0       -5.510422   -0.652359    6.861628
     13          1           0       -4.311345   -1.024792    5.568935
     14          1           0       -4.926037   -2.297583    6.618548
     15          6           0       -7.467915   -2.447800    5.828383
     16          1           0       -7.902040   -1.852462    6.640581
     17          1           0       -8.288280   -2.771327    5.172144
     18          1           0       -7.058217   -3.361787    6.267105
     19          7           0       -4.969117    1.184211    4.200795
     20          1           0       -4.881288    1.110779    5.206952
     21          6           0       -3.768654    1.607157    3.475301
     22          1           0       -4.099188    2.087390    2.549327
     23          6           0       -2.941294    0.340853    3.114239
     24          6           0       -2.965890    2.591104    4.331361
     25          1           0       -2.086063    2.941119    3.785967
     26          1           0       -3.574046    3.461575    4.595729
     27          1           0       -2.614041    2.108968    5.251258
     28          8           0       -3.206756   -0.757890    3.604946
     29          7           0       -1.933685    0.564189    2.258938
     30          1           0       -1.716365    1.489351    1.893697
     31          6           0       -0.973041   -0.450195    1.863337
     32          1           0       -0.713339   -1.069582    2.727897
     33          6           0        0.249671    0.297020    1.325195
     34          6           0       -1.554675   -1.384865    0.759836
     35          1           0       -2.444922   -1.862770    1.181115
     36          1           0       -1.862340   -0.761839   -0.092188
     37          8           0        0.183477    1.491473    1.033265
     38          8           0       -0.640697   -2.387919    0.382611
     39          1           0       -0.095382   -2.021105   -0.353469
     40          7           0        1.357994   -0.471136    1.168413
     41          1           0        1.194436   -1.471068    1.244021
     42          6           0        2.392076   -0.073778    0.225460
     43          1           0        2.541520    1.001862    0.344994
     44          6           0        1.901699   -0.333960   -1.219054
     45          6           0        3.702145   -0.832332    0.503710
     46          1           0        4.451502   -0.504309   -0.227560
     47          1           0        3.532989   -1.901381    0.308126
     48          8           0        0.912992   -1.047162   -1.465631
     49          6           0        4.264973   -0.651834    1.925928
     50          1           0        3.515082   -1.028269    2.635875
     51          6           0        5.540722   -1.491132    2.085955
     52          1           0        6.325873   -1.141854    1.403340
     53          1           0        5.355435   -2.549841    1.868535
     54          1           0        5.931669   -1.420142    3.107199
     55          6           0        4.534020    0.822649    2.257954
     56          1           0        5.222546    1.268236    1.528041
     57          1           0        3.614408    1.418234    2.264705
     58          1           0        4.993740    0.917937    3.248097
     59          7           0        2.642491    0.236967   -2.171735
     60          1           0        3.442711    0.834315   -1.965640
     61          6           0        2.466214    0.039849   -3.605808
     62          1           0        2.243540   -1.017853   -3.781443
     63          6           0        3.836630    0.403645   -4.259506
     64          6           0        1.286867    0.915956   -4.095441
     65          1           0        1.471216    1.934002   -3.732038
     66          1           0        0.390828    0.550082   -3.579064
     67          8           0        4.075194   -0.209084   -5.357852
     68          6           0        1.003646    1.005473   -5.606258
     69          1           0        0.109112    1.629571   -5.727485
     70          1           0        1.820014    1.535382   -6.112544
     71          6           0        0.757839   -0.325534   -6.353869
     72          1           0        0.113301   -0.155021   -7.221122
     73          1           0        0.251405   -1.052338   -5.710352
     74          7           0        2.028672   -0.919715   -6.803820
     75          1           0        2.773307   -0.885096   -6.056115
     76          7           0        1.846597   -0.568154   -9.113318
     77          1           0        2.265304   -0.295409   -9.989859
     78          1           0        0.972390   -1.069835   -9.156402
     79          7           0        3.902300   -0.379148   -8.025823
     80          1           0        4.373971   -0.197099   -7.123093
     81          1           0        4.428828   -0.436065   -8.884803
     82          6           0        2.589940   -0.625905   -7.982147
     83          8           0        4.546916    1.224761   -3.669901
 ---------------------------------------------------------------------

 SCF Done:  E(RB3LYP) =  -1868.12019839     A.U. after    2 cycles

 Alpha  occ. eigenvalues --  -19.26895 -19.20698 -19.18883 -19.18732 -19.17477
 Alpha  occ. eigenvalues --  -19.13752 -19.12425 -14.59798 -14.49663 -14.46333
 Alpha  occ. eigenvalues --  -14.44378 -14.44247 -14.42391 -14.41856 -14.40346
 Alpha  occ. eigenvalues --  -10.43551 -10.41028 -10.40541 -10.37876 -10.35370
 Alpha  occ. eigenvalues --  -10.34492 -10.34018 -10.33991 -10.31017 -10.30980
 Alpha  occ. eigenvalues --  -10.29944 -10.29644 -10.29321 -10.28960 -10.28937
 Alpha  occ. eigenvalues --  -10.28693 -10.26391 -10.24892 -10.24108 -10.23740
 Alpha  occ. eigenvalues --  -10.23606 -10.21733 -10.21611  -1.19467  -1.13871
 Alpha  occ. eigenvalues --   -1.12530  -1.10608  -1.09648  -1.08698  -1.06549
 Alpha  occ. eigenvalues --   -1.06240  -1.06191  -1.00882  -0.99309  -0.98860
 Alpha  occ. eigenvalues --   -0.97910  -0.97690  -0.96581  -0.94924  -0.89159
 Alpha  occ. eigenvalues --   -0.86424  -0.85437  -0.84876  -0.82746  -0.81007
 Alpha  occ. eigenvalues --   -0.80450  -0.78067  -0.76002  -0.74581  -0.73915
 Alpha  occ. eigenvalues --   -0.73793  -0.72683  -0.72614  -0.71536  -0.71256
 Alpha  occ. eigenvalues --   -0.69808  -0.69578  -0.67136  -0.66626  -0.65842
 Alpha  occ. eigenvalues --   -0.65388  -0.64241  -0.63487  -0.63446  -0.62581
 Alpha  occ. eigenvalues --   -0.62025  -0.60973  -0.59680  -0.59227  -0.58429
 Alpha  occ. eigenvalues --   -0.58324  -0.57748  -0.57739  -0.56700  -0.55518
 Alpha  occ. eigenvalues --   -0.54995  -0.54519  -0.54344  -0.53599  -0.53100
 Alpha  occ. eigenvalues --   -0.52735  -0.51940  -0.51705  -0.51467  -0.51008
 Alpha  occ. eigenvalues --   -0.50681  -0.50366  -0.50147  -0.49564  -0.49391
 Alpha  occ. eigenvalues --   -0.49384  -0.48930  -0.48291  -0.48140  -0.47907
 Alpha  occ. eigenvalues --   -0.47835  -0.47391  -0.46698  -0.46237  -0.46029
 Alpha  occ. eigenvalues --   -0.45847  -0.45607  -0.44994  -0.44545  -0.43969
 Alpha  occ. eigenvalues --   -0.43546  -0.42906  -0.42720  -0.42527  -0.41994
 Alpha  occ. eigenvalues --   -0.41384  -0.40902  -0.40132  -0.39792  -0.39748
 Alpha  occ. eigenvalues --   -0.38914  -0.38406  -0.37399  -0.37223  -0.37137
 Alpha  occ. eigenvalues --   -0.36847  -0.35648  -0.34638  -0.33501  -0.33140
 Alpha  occ. eigenvalues --   -0.32582  -0.31535  -0.30992  -0.30414  -0.28659
 Alpha  occ. eigenvalues --   -0.27953  -0.26667
 Alpha virt. eigenvalues --   -0.12598  -0.10943  -0.06713  -0.06667  -0.06402
 Alpha virt. eigenvalues --   -0.05146  -0.04615  -0.02927  -0.02471  -0.01851
 Alpha virt. eigenvalues --   -0.01167  -0.00567   0.00681   0.00974   0.01842

 Mulliken charges:
               1
     1  N   -0.759579
     2  H    0.414885
     3  H    0.434145
     4  H    0.410193
     5  C   -0.118045
     6  H    0.202068
     7  C    0.672554
     8  C   -0.097532
     9  H    0.186249
    10  O   -0.535052
    11  C   -0.501502
    12  H    0.143332
    13  H    0.218342
    14  H    0.187350
    15  C   -0.475192
    16  H    0.172964
    17  H    0.135846
    18  H    0.203657
    19  N   -0.578172
    20  H    0.352431
    21  C   -0.077398
    22  H    0.201976
    23  C    0.647303
    24  C   -0.481289
    25  H    0.196885
    26  H    0.180642
    27  H    0.169944
    28  O   -0.542286
    29  N   -0.615501
    30  H    0.360106
    31  C   -0.067939
    32  H    0.184460
    33  C    0.605312
    34  C   -0.032232
    35  H    0.161070
    36  H    0.141318
    37  O   -0.541234
    38  O   -0.653912
    39  H    0.444093
    40  N   -0.589595
    41  H    0.342606
    42  C   -0.088420
    43  H    0.193607
    44  C    0.649734
    45  C   -0.283859
    46  H    0.161364
    47  H    0.142548
    48  O   -0.587765
    49  C   -0.062980
    50  H    0.128771
    51  C   -0.445387
    52  H    0.150065
    53  H    0.143401
    54  H    0.147850
    55  C   -0.457881
    56  H    0.148727
    57  H    0.151631
    58  H    0.149001
    59  N   -0.603341
    60  H    0.358849
    61  C   -0.058811
    62  H    0.154600
    63  C    0.606639
    64  C   -0.267097
    65  H    0.157243
    66  H    0.160508
    67  O   -0.645801
    68  C   -0.284617
    69  H    0.149007
    70  H    0.163551
    71  C   -0.169372
    72  H    0.146429
    73  H    0.179240
    74  N   -0.600008
    75  H    0.408177
    76  N   -0.748633
    77  H    0.362245
    78  H    0.369277
    79  N   -0.765236
    80  H    0.423573
    81  H    0.350431
    82  C    0.750946
    83  O   -0.541475
 Sum of Mulliken charges =   1.00000

 Dipole moment (field-independent basis, Debye):
    X=            -27.9547    Y=             -1.9391    Z=              3.7814  Tot=             28.2759
 Quadrupole moment (field-independent basis, Debye-Ang):
   XX=             -6.5025   YY=           -225.0181   ZZ=             26.5104
   XY=              2.8736   XZ=           -141.9512   YZ=             10.5087

 Normal termination of Gaussian 16 at Sun Jun 26 14:46:17 2022.
