 Gaussian 16, Revision C.01,
 Gaussian 16:  ES64L-G16RevC.01  3-Jul-2019

 ----------------------------------------------------------------------
 # B3LYP/6-31G* empiricaldispersion=gd3 guess=read geom=check nosymm in
 tegral(ultrafinegrid)
 ----------------------------------------------------------------------

 ------------------------------------------------------
 Candidate Structure: Conf:879 Charge calc in gas phase
 ------------------------------------------------------
 Structure from the checkpoint file:  "conf-879.chk"
 Charge =  1 Multiplicity = 1

                          Input orientation:
 ---------------------------------------------------------------------
 Center     Atomic      Atomic             Coordinates (Angstroms)
 Number     Number       Type             X           Y           Z
 ---------------------------------------------------------------------
      1          7           0       -5.942161   -3.228705    2.691260
      2          1           0       -5.241977   -3.953954    2.512178
      3          1           0       -6.008462   -3.075223    3.740449
      4          1           0       -6.835019   -3.533048    2.295730
      5          6           0       -5.509269   -1.855480    2.205771
      6          1           0       -4.718653   -1.988309    1.462653
      7          6           0       -4.951142   -1.228747    3.514219
      8          6           0       -6.710808   -1.097847    1.588524
      9          1           0       -7.487000   -1.032096    2.365030
     10          8           0       -5.300464   -1.741283    4.590427
     11          6           0       -6.312655    0.330107    1.175998
     12          1           0       -5.479935    0.319075    0.461380
     13          1           0       -6.028802    0.956773    2.023835
     14          1           0       -7.159735    0.812168    0.680094
     15          6           0       -7.270599   -1.853924    0.369702
     16          1           0       -6.510686   -1.948185   -0.414865
     17          1           0       -7.646166   -2.861037    0.597631
     18          1           0       -8.117117   -1.302889   -0.049367
     19          7           0       -4.125040   -0.203457    3.374224
     20          1           0       -3.965059    0.233600    2.466154
     21          6           0       -3.545843    0.566860    4.477445
     22          1           0       -4.355855    0.882719    5.146918
     23          6           0       -2.955274    1.815260    3.776452
     24          6           0       -2.518077   -0.257271    5.264724
     25          1           0       -2.179650    0.284888    6.153083
     26          1           0       -2.980766   -1.185619    5.607681
     27          1           0       -1.647369   -0.491756    4.644667
     28          8           0       -3.284093    2.074631    2.612890
     29          7           0       -2.074783    2.543020    4.480443
     30          1           0       -1.704266    2.208726    5.365377
     31          6           0       -1.203931    3.539780    3.846361
     32          1           0       -1.816364    4.234213    3.264497
     33          6           0       -0.206339    2.770963    2.951401
     34          6           0       -0.455630    4.266508    4.978672
     35          1           0        0.309543    4.923094    4.541748
     36          1           0       -1.157693    4.884680    5.546038
     37          8           0        0.781270    2.217173    3.457186
     38          8           0        0.097008    3.326460    5.885978
     39          1           0        0.717890    2.794939    5.344925
     40          7           0       -0.529211    2.701419    1.651903
     41          1           0       -1.360883    3.167090    1.305310
     42          6           0        0.185078    1.911504    0.660889
     43          1           0        1.190033    1.722456    1.044463
     44          6           0        0.209843    2.738823   -0.637911
     45          6           0       -0.554365    0.586542    0.353180
     46          1           0        0.022853    0.044734   -0.408319
     47          1           0       -1.511563    0.860559   -0.110803
     48          8           0       -0.741930    3.476859   -0.908840
     49          6           0       -0.818251   -0.334626    1.555821
     50          1           0       -1.345242    0.259531    2.311945
     51          6           0       -1.751216   -1.480914    1.132854
     52          1           0       -1.269006   -2.128092    0.390230
     53          1           0       -2.673611   -1.091878    0.676969
     54          1           0       -2.021939   -2.104922    1.995003
     55          6           0        0.470480   -0.878201    2.185863
     56          1           0        1.060538   -1.436509    1.447961
     57          1           0        1.084682   -0.068171    2.588052
     58          1           0        0.242293   -1.562640    3.012931
     59          7           0        1.265570    2.525622   -1.437034
     60          1           0        2.044588    1.923162   -1.179102
     61          6           0        1.403470    3.078233   -2.780347
     62          1           0        0.438639    3.018668   -3.292503
     63          6           0        2.451194    2.189804   -3.503307
     64          6           0        1.835681    4.568740   -2.676284
     65          1           0        2.854416    4.598894   -2.266340
     66          1           0        1.177692    5.007638   -1.920279
     67          8           0        3.306655    1.631108   -2.794762
     68          6           0        1.735755    5.436984   -3.954295
     69          1           0        1.012504    5.002256   -4.656427
     70          1           0        1.336417    6.421885   -3.685462
     71          6           0        3.057679    5.696637   -4.696213
     72          1           0        3.801642    6.094396   -3.994642
     73          1           0        2.900302    6.447021   -5.481388
     74          7           0        3.553272    4.453742   -5.290432
     75          1           0        2.856933    3.679548   -5.325015
     76          7           0        5.841498    4.832066   -4.999293
     77          1           0        6.784089    4.473574   -5.048457
     78          1           0        5.734804    5.807043   -5.238933
     79          7           0        4.996906    2.674666   -5.372471
     80          1           0        4.160453    2.082740   -5.185817
     81          1           0        5.913927    2.279382   -5.224866
     82          6           0        4.799951    3.989435   -5.218675
     83          8           0        2.382337    2.162895   -4.781103
 ---------------------------------------------------------------------

 SCF Done:  E(RB3LYP) =  -1868.12544744     A.U. after    1 cycles

 Alpha  occ. eigenvalues --  -19.26863 -19.22645 -19.21253 -19.19550 -19.16736
 Alpha  occ. eigenvalues --  -19.13944 -19.13453 -14.60003 -14.49424 -14.46250
 Alpha  occ. eigenvalues --  -14.46059 -14.43485 -14.43265 -14.43157 -14.40565
 Alpha  occ. eigenvalues --  -10.43520 -10.40890 -10.40499 -10.39574 -10.36653
 Alpha  occ. eigenvalues --  -10.35209 -10.34657 -10.33972 -10.31874 -10.31519
 Alpha  occ. eigenvalues --  -10.31316 -10.31098 -10.30094 -10.29861 -10.29845
 Alpha  occ. eigenvalues --  -10.28585 -10.26814 -10.26730 -10.26730 -10.25838
 Alpha  occ. eigenvalues --  -10.25438 -10.24120 -10.23852  -1.19309  -1.14741
 Alpha  occ. eigenvalues --   -1.13807  -1.11522  -1.09711  -1.08845  -1.08446
 Alpha  occ. eigenvalues --   -1.06972  -1.06236  -1.02383  -0.99945  -0.99469
 Alpha  occ. eigenvalues --   -0.98219  -0.97486  -0.96741  -0.95348  -0.89671
 Alpha  occ. eigenvalues --   -0.88716  -0.85864  -0.85468  -0.84107  -0.81983
 Alpha  occ. eigenvalues --   -0.81516  -0.79213  -0.77700  -0.76157  -0.75060
 Alpha  occ. eigenvalues --   -0.74073  -0.73834  -0.73337  -0.72202  -0.71281
 Alpha  occ. eigenvalues --   -0.70391  -0.70122  -0.68769  -0.67070  -0.66374
 Alpha  occ. eigenvalues --   -0.66031  -0.65534  -0.64127  -0.63853  -0.63228
 Alpha  occ. eigenvalues --   -0.62933  -0.61832  -0.60442  -0.59712  -0.58564
 Alpha  occ. eigenvalues --   -0.58146  -0.58061  -0.57518  -0.57125  -0.56891
 Alpha  occ. eigenvalues --   -0.55682  -0.55213  -0.54737  -0.54557  -0.54306
 Alpha  occ. eigenvalues --   -0.53812  -0.53275  -0.53072  -0.52341  -0.52139
 Alpha  occ. eigenvalues --   -0.51828  -0.51040  -0.50945  -0.50521  -0.50133
 Alpha  occ. eigenvalues --   -0.49741  -0.49447  -0.49398  -0.49114  -0.48982
 Alpha  occ. eigenvalues --   -0.48505  -0.48253  -0.47627  -0.47418  -0.47138
 Alpha  occ. eigenvalues --   -0.47041  -0.46544  -0.46376  -0.46053  -0.45844
 Alpha  occ. eigenvalues --   -0.45369  -0.45006  -0.44732  -0.43909  -0.43067
 Alpha  occ. eigenvalues --   -0.41841  -0.41289  -0.41257  -0.40869  -0.40350
 Alpha  occ. eigenvalues --   -0.40166  -0.39990  -0.39697  -0.39270  -0.38787
 Alpha  occ. eigenvalues --   -0.37385  -0.36751  -0.36556  -0.34699  -0.33464
 Alpha  occ. eigenvalues --   -0.33353  -0.32150  -0.31014  -0.30752  -0.29324
 Alpha  occ. eigenvalues --   -0.28166  -0.27670
 Alpha virt. eigenvalues --   -0.12662  -0.11162  -0.08834  -0.06693  -0.05696
 Alpha virt. eigenvalues --   -0.05659  -0.05130  -0.02927  -0.02275  -0.02020
 Alpha virt. eigenvalues --   -0.01772  -0.00876   0.00042   0.00245   0.01258

 Mulliken charges:
               1
     1  N   -0.760361
     2  H    0.417184
     3  H    0.432137
     4  H    0.409872
     5  C   -0.110709
     6  H    0.212957
     7  C    0.652188
     8  C   -0.109343
     9  H    0.168939
    10  O   -0.546444
    11  C   -0.481124
    12  H    0.171361
    13  H    0.188817
    14  H    0.189830
    15  C   -0.471842
    16  H    0.178589
    17  H    0.136999
    18  H    0.202351
    19  N   -0.610681
    20  H    0.391299
    21  C   -0.044590
    22  H    0.208240
    23  C    0.629552
    24  C   -0.488153
    25  H    0.180499
    26  H    0.192503
    27  H    0.189455
    28  O   -0.549426
    29  N   -0.600540
    30  H    0.362374
    31  C   -0.085569
    32  H    0.179707
    33  C    0.628514
    34  C   -0.055922
    35  H    0.160977
    36  H    0.167204
    37  O   -0.559117
    38  O   -0.635289
    39  H    0.425858
    40  N   -0.569890
    41  H    0.362314
    42  C   -0.083543
    43  H    0.183110
    44  C    0.632690
    45  C   -0.254626
    46  H    0.156011
    47  H    0.144939
    48  O   -0.560580
    49  C   -0.080589
    50  H    0.123760
    51  C   -0.459181
    52  H    0.164948
    53  H    0.117398
    54  H    0.119431
    55  C   -0.470621
    56  H    0.147794
    57  H    0.194823
    58  H    0.134239
    59  N   -0.613841
    60  H    0.351248
    61  C   -0.027334
    62  H    0.163813
    63  C    0.582706
    64  C   -0.274988
    65  H    0.141408
    66  H    0.174161
    67  O   -0.564885
    68  C   -0.303235
    69  H    0.170715
    70  H    0.158582
    71  C   -0.149187
    72  H    0.159090
    73  H    0.166013
    74  N   -0.603681
    75  H    0.405562
    76  N   -0.754274
    77  H    0.361924
    78  H    0.368121
    79  N   -0.756480
    80  H    0.411997
    81  H    0.346953
    82  C    0.759338
    83  O   -0.644449
 Sum of Mulliken charges =   1.00000

 Dipole moment (field-independent basis, Debye):
    X=            -13.6934    Y=             -0.5010    Z=              3.2311  Tot=             14.0783
 Quadrupole moment (field-independent basis, Debye-Ang):
   XX=            -27.0254   YY=           -130.6799   ZZ=           -174.0139
   XY=            109.3707   XZ=           -102.5935   YZ=            -60.7388

 Normal termination of Gaussian 16 at Sun Jun 26 14:46:09 2022.
