 Gaussian 16, Revision C.01,
 Gaussian 16:  ES64L-G16RevC.01  3-Jul-2019

 ----------------------------------------------------------------------
 # B3LYP/6-31G* empiricaldispersion=gd3 guess=read geom=check nosymm in
 tegral(ultrafinegrid)
 ----------------------------------------------------------------------

 ------------------------------------------------------
 Candidate Structure: Conf:883 Charge calc in gas phase
 ------------------------------------------------------
 Structure from the checkpoint file:  "conf-883.chk"
 Charge =  1 Multiplicity = 1

                          Input orientation:
 ---------------------------------------------------------------------
 Center     Atomic      Atomic             Coordinates (Angstroms)
 Number     Number       Type             X           Y           Z
 ---------------------------------------------------------------------
      1          7           0       -4.760461   -0.134651    4.878967
      2          1           0       -5.298468    0.205271    5.680079
      3          1           0       -3.763718   -0.217464    5.127164
      4          1           0       -4.785633    0.590165    4.101496
      5          6           0       -5.210815   -1.516411    4.428504
      6          1           0       -5.077806   -2.165874    5.301183
      7          6           0       -4.112133   -1.897593    3.404542
      8          6           0       -6.689940   -1.522656    4.004007
      9          1           0       -6.872075   -2.536899    3.620506
     10          8           0       -2.970348   -1.484241    3.645474
     11          6           0       -7.613044   -1.338121    5.221282
     12          1           0       -7.527099   -0.330683    5.650069
     13          1           0       -7.404365   -2.069513    6.009805
     14          1           0       -8.657791   -1.459147    4.921054
     15          6           0       -7.018078   -0.502339    2.901322
     16          1           0       -6.973631    0.523684    3.285925
     17          1           0       -6.335229   -0.567575    2.049508
     18          1           0       -8.037799   -0.662969    2.540075
     19          7           0       -4.443196   -2.553969    2.281956
     20          1           0       -5.415835   -2.772944    2.109811
     21          6           0       -3.552803   -2.576027    1.100884
     22          1           0       -2.531017   -2.670854    1.482851
     23          6           0       -3.623927   -1.221273    0.328067
     24          6           0       -3.890999   -3.750469    0.190780
     25          1           0       -3.251953   -3.715524   -0.693070
     26          1           0       -3.735665   -4.697999    0.713429
     27          1           0       -4.929323   -3.696400   -0.156783
     28          8           0       -3.499295   -1.155945   -0.882614
     29          7           0       -3.858439   -0.138955    1.135962
     30          1           0       -3.543301   -0.228879    2.093039
     31          6           0       -3.809224    1.248576    0.684823
     32          1           0       -4.139167    1.290900   -0.356184
     33          6           0       -2.345505    1.696617    0.858040
     34          6           0       -4.738274    2.063321    1.596695
     35          1           0       -4.663581    3.130920    1.362055
     36          1           0       -5.773208    1.743058    1.466788
     37          8           0       -1.991249    2.211621    1.936809
     38          8           0       -4.391776    1.851050    2.981393
     39          1           0       -3.432221    2.111998    2.999064
     40          7           0       -1.515810    1.352532   -0.127641
     41          1           0       -1.873977    0.963810   -0.997126
     42          6           0       -0.060865    1.354013   -0.018436
     43          1           0        0.224054    2.108061    0.718510
     44          6           0        0.489549    1.693628   -1.413778
     45          6           0        0.459732   -0.047933    0.386690
     46          1           0        1.556590   -0.007611    0.414360
     47          1           0        0.190888   -0.734614   -0.427616
     48          8           0       -0.176409    1.428483   -2.421982
     49          6           0       -0.070075   -0.602888    1.721319
     50          1           0       -1.165561   -0.538164    1.707637
     51          6           0        0.293287   -2.088976    1.855300
     52          1           0        1.380363   -2.227586    1.900620
     53          1           0       -0.076045   -2.672849    1.001883
     54          1           0       -0.136577   -2.510224    2.771674
     55          6           0        0.429579    0.193898    2.933275
     56          1           0        1.524903    0.167151    2.991861
     57          1           0        0.107056    1.237845    2.889231
     58          1           0        0.035247   -0.237874    3.860932
     59          7           0        1.724819    2.206754   -1.431551
     60          1           0        2.272157    2.418405   -0.594815
     61          6           0        2.491556    2.420496   -2.645363
     62          1           0        2.503321    1.483684   -3.215829
     63          6           0        3.966662    2.722753   -2.190569
     64          6           0        1.889135    3.547692   -3.540212
     65          1           0        2.680707    4.269002   -3.762335
     66          1           0        1.151259    4.096139   -2.947852
     67          8           0        4.847792    2.704158   -3.117976
     68          6           0        1.233720    3.033591   -4.845302
     69          1           0        1.562357    2.008380   -5.038200
     70          1           0        0.151965    2.944222   -4.708163
     71          6           0        1.451537    3.895462   -6.106229
     72          1           0        0.848045    4.806405   -6.036465
     73          1           0        1.100315    3.348194   -6.988843
     74          7           0        2.839006    4.374273   -6.338289
     75          1           0        2.924192    5.337452   -6.635769
     76          7           0        4.099073    2.550133   -5.542734
     77          1           0        4.470409    2.356115   -4.527620
     78          1           0        3.425072    1.925603   -5.961823
     79          7           0        4.935376    4.679257   -5.363826
     80          1           0        4.673922    5.605228   -5.049684
     81          1           0        5.646144    4.239199   -4.784074
     82          6           0        3.937711    3.848956   -5.755705
     83          8           0        4.145424    2.952791   -0.988549
 ---------------------------------------------------------------------

 SCF Done:  E(RB3LYP) =  -1868.11452732     A.U. after    2 cycles

 Alpha  occ. eigenvalues --  -19.27655 -19.26910 -19.23134 -19.22127 -19.17617
 Alpha  occ. eigenvalues --  -19.14102 -19.13122 -14.58807 -14.51000 -14.46958
 Alpha  occ. eigenvalues --  -14.46249 -14.45187 -14.44984 -14.42407 -14.40893
 Alpha  occ. eigenvalues --  -10.44319 -10.40925 -10.40772 -10.40095 -10.38863
 Alpha  occ. eigenvalues --  -10.35532 -10.35162 -10.35127 -10.34683 -10.34290
 Alpha  occ. eigenvalues --  -10.31683 -10.31563 -10.31392 -10.31088 -10.30612
 Alpha  occ. eigenvalues --  -10.28536 -10.27445 -10.26221 -10.26024 -10.25769
 Alpha  occ. eigenvalues --  -10.25215 -10.24294 -10.23400  -1.19531  -1.15483
 Alpha  occ. eigenvalues --   -1.14681  -1.13257  -1.12420  -1.09933  -1.09409
 Alpha  occ. eigenvalues --   -1.07223  -1.06847  -1.03804  -1.01541  -0.99884
 Alpha  occ. eigenvalues --   -0.98802  -0.97379  -0.96696  -0.95783  -0.89951
 Alpha  occ. eigenvalues --   -0.88361  -0.86682  -0.86305  -0.85767  -0.82897
 Alpha  occ. eigenvalues --   -0.82454  -0.80048  -0.77538  -0.75277  -0.74805
 Alpha  occ. eigenvalues --   -0.74668  -0.74269  -0.73732  -0.72470  -0.72200
 Alpha  occ. eigenvalues --   -0.70907  -0.70575  -0.69813  -0.68265  -0.67375
 Alpha  occ. eigenvalues --   -0.66426  -0.65820  -0.65208  -0.63864  -0.63368
 Alpha  occ. eigenvalues --   -0.62379  -0.62249  -0.61540  -0.61355  -0.60134
 Alpha  occ. eigenvalues --   -0.59660  -0.59304  -0.58787  -0.58094  -0.57204
 Alpha  occ. eigenvalues --   -0.57104  -0.55892  -0.55538  -0.55472  -0.55272
 Alpha  occ. eigenvalues --   -0.54510  -0.53914  -0.53653  -0.53339  -0.53120
 Alpha  occ. eigenvalues --   -0.52681  -0.52218  -0.51768  -0.51557  -0.51262
 Alpha  occ. eigenvalues --   -0.50610  -0.50226  -0.49847  -0.49519  -0.49212
 Alpha  occ. eigenvalues --   -0.48708  -0.48527  -0.48322  -0.48102  -0.47822
 Alpha  occ. eigenvalues --   -0.47349  -0.47199  -0.46730  -0.46391  -0.46293
 Alpha  occ. eigenvalues --   -0.45756  -0.45420  -0.44840  -0.44623  -0.43982
 Alpha  occ. eigenvalues --   -0.42902  -0.41970  -0.41857  -0.41470  -0.41207
 Alpha  occ. eigenvalues --   -0.40856  -0.40568  -0.39809  -0.39420  -0.39412
 Alpha  occ. eigenvalues --   -0.39103  -0.38699  -0.36237  -0.35965  -0.35401
 Alpha  occ. eigenvalues --   -0.34920  -0.34410  -0.31748  -0.31186  -0.29120
 Alpha  occ. eigenvalues --   -0.28661  -0.27420
 Alpha virt. eigenvalues --   -0.14497  -0.10230  -0.09253  -0.07653  -0.07011
 Alpha virt. eigenvalues --   -0.05825  -0.04198  -0.03748  -0.03006  -0.02611
 Alpha virt. eigenvalues --   -0.01791  -0.00945  -0.00741  -0.00162  -0.00065

 Mulliken charges:
               1
     1  N   -0.785907
     2  H    0.405295
     3  H    0.421365
     4  H    0.464042
     5  C   -0.108864
     6  H    0.224344
     7  C    0.619568
     8  C   -0.122502
     9  H    0.169511
    10  O   -0.526675
    11  C   -0.469859
    12  H    0.147255
    13  H    0.174860
    14  H    0.197441
    15  C   -0.492374
    16  H    0.163676
    17  H    0.175002
    18  H    0.192257
    19  N   -0.576441
    20  H    0.354351
    21  C   -0.103087
    22  H    0.238893
    23  C    0.616593
    24  C   -0.465128
    25  H    0.211318
    26  H    0.175514
    27  H    0.159859
    28  O   -0.485803
    29  N   -0.627297
    30  H    0.360729
    31  C   -0.102669
    32  H    0.198947
    33  C    0.647700
    34  C   -0.045503
    35  H    0.182295
    36  H    0.167617
    37  O   -0.571438
    38  O   -0.687068
    39  H    0.443050
    40  N   -0.578997
    41  H    0.369958
    42  C   -0.089729
    43  H    0.187646
    44  C    0.630349
    45  C   -0.258412
    46  H    0.163041
    47  H    0.149339
    48  O   -0.561775
    49  C   -0.077590
    50  H    0.105797
    51  C   -0.452343
    52  H    0.159129
    53  H    0.134357
    54  H    0.146652
    55  C   -0.462724
    56  H    0.151737
    57  H    0.171206
    58  H    0.135569
    59  N   -0.621657
    60  H    0.357756
    61  C   -0.040614
    62  H    0.149907
    63  C    0.593660
    64  C   -0.275347
    65  H    0.140061
    66  H    0.161448
    67  O   -0.641620
    68  C   -0.289009
    69  H    0.144335
    70  H    0.186424
    71  C   -0.151565
    72  H    0.169066
    73  H    0.177585
    74  N   -0.587530
    75  H    0.347621
    76  N   -0.728142
    77  H    0.427862
    78  H    0.342548
    79  N   -0.715560
    80  H    0.349962
    81  H    0.389991
    82  C    0.686999
    83  O   -0.538261
 Sum of Mulliken charges =   1.00000

 Dipole moment (field-independent basis, Debye):
    X=            -22.8838    Y=              1.9437    Z=              6.4362  Tot=             23.8510
 Quadrupole moment (field-independent basis, Debye-Ang):
   XX=           -104.8367   YY=           -166.1729   ZZ=            -83.8872
   XY=             34.8979   XZ=           -119.9096   YZ=            -68.8991

 Normal termination of Gaussian 16 at Sun Jun 26 14:46:27 2022.
