 Gaussian 16, Revision C.01,
 Gaussian 16:  ES64L-G16RevC.01  3-Jul-2019

 ----------------------------------------------------------------------
 # B3LYP/6-31G* empiricaldispersion=gd3 guess=read geom=check nosymm in
 tegral(ultrafinegrid)
 ----------------------------------------------------------------------

 ------------------------------------------------------
 Candidate Structure: Conf:961 Charge calc in gas phase
 ------------------------------------------------------
 Structure from the checkpoint file:  "conf-961.chk"
 Charge =  1 Multiplicity = 1

                          Input orientation:
 ---------------------------------------------------------------------
 Center     Atomic      Atomic             Coordinates (Angstroms)
 Number     Number       Type             X           Y           Z
 ---------------------------------------------------------------------
      1          7           0       -4.878875    3.151575    2.530815
      2          1           0       -5.728931    3.710012    2.539413
      3          1           0       -4.259288    3.491836    3.268381
      4          1           0       -3.953688    3.446731    1.208020
      5          6           0       -5.177304    1.724893    2.797528
      6          1           0       -6.133475    1.618024    3.333726
      7          6           0       -4.056297    1.209949    3.724437
      8          6           0       -5.296827    0.954002    1.445698
      9          1           0       -4.326434    1.056322    0.952123
     10          8           0       -3.048945    1.880394    3.940418
     11          6           0       -5.607357   -0.545393    1.588592
     12          1           0       -6.503505   -0.717949    2.200810
     13          1           0       -4.777365   -1.119105    2.012034
     14          1           0       -5.820518   -0.972323    0.601823
     15          6           0       -6.366058    1.622950    0.565764
     16          1           0       -7.355791    1.574789    1.038183
     17          1           0       -6.132230    2.671469    0.360383
     18          1           0       -6.440315    1.109660   -0.399937
     19          7           0       -4.251384   -0.005313    4.305787
     20          1           0       -5.061110   -0.553643    4.051326
     21          6           0       -3.146283   -0.722781    4.957438
     22          1           0       -2.583475    0.015237    5.533965
     23          6           0       -2.275383   -1.281222    3.817340
     24          6           0       -3.678975   -1.829839    5.857883
     25          1           0       -2.852028   -2.324739    6.375008
     26          1           0       -4.359606   -1.413947    6.606157
     27          1           0       -4.200424   -2.588023    5.265743
     28          8           0       -2.549771   -2.363539    3.275065
     29          7           0       -1.277874   -0.478728    3.389064
     30          1           0       -1.242913    0.495144    3.688442
     31          6           0       -0.589028   -0.796175    2.154848
     32          1           0       -0.038576   -1.738548    2.275965
     33          6           0        0.402647    0.323846    1.823112
     34          6           0       -1.579902   -0.999638    0.965736
     35          1           0       -2.533654   -0.535609    1.223715
     36          1           0       -1.212759   -0.502001    0.069604
     37          8           0        0.405633    1.406531    2.388474
     38          8           0       -1.739918   -2.380616    0.630215
     39          1           0       -2.063890   -2.789343    1.465956
     40          7           0        1.242396    0.019746    0.780545
     41          1           0        1.126574   -0.882335    0.335258
     42          6           0        1.789198    1.082504   -0.071510
     43          1           0        2.103449    1.886847    0.595435
     44          6           0        0.606518    1.545496   -0.953777
     45          6           0        2.974044    0.588112   -0.899667
     46          1           0        3.341185    1.436056   -1.493365
     47          1           0        2.613290   -0.152359   -1.626339
     48          8           0        0.281468    0.890494   -1.958537
     49          6           0        4.133806   -0.005224   -0.076755
     50          1           0        3.750635   -0.881761    0.465498
     51          6           0        5.245427   -0.479254   -1.023643
     52          1           0        5.675766    0.366349   -1.574813
     53          1           0        4.869861   -1.201498   -1.758548
     54          1           0        6.056066   -0.958839   -0.464894
     55          6           0        4.679661    0.987238    0.959810
     56          1           0        5.006847    1.917140    0.476612
     57          1           0        3.934710    1.241477    1.722105
     58          1           0        5.545131    0.562928    1.479614
     59          7           0       -0.043006    2.627362   -0.480306
     60          1           0        0.279755    2.923729    0.435259
     61          6           0       -1.360714    3.188563   -0.815792
     62          1           0       -1.233413    4.274481   -0.849899
     63          6           0       -2.325444    2.856984    0.337333
     64          6           0       -1.987508    2.734889   -2.166039
     65          1           0       -1.177060    2.506962   -2.859030
     66          1           0       -2.525887    3.596160   -2.571640
     67          8           0       -3.332506    3.702943    0.412661
     68          6           0       -2.977154    1.551074   -2.050874
     69          1           0       -2.711374    0.909157   -1.206401
     70          1           0       -3.973729    1.946593   -1.823449
     71          6           0       -3.063663    0.663455   -3.301940
     72          1           0       -3.010246    1.247446   -4.224710
     73          1           0       -4.018121    0.129856   -3.341664
     74          7           0       -1.965871   -0.320305   -3.359943
     75          1           0       -1.074825    0.066084   -3.651830
     76          7           0       -2.908305   -1.883167   -1.885385
     77          1           0       -2.776786   -2.343277   -0.977976
     78          1           0       -3.842114   -1.675392   -2.203679
     79          7           0       -0.613721   -1.743668   -2.126416
     80          1           0        0.118602   -1.030321   -2.123835
     81          1           0       -0.555905   -2.476686   -1.427571
     82          6           0       -1.842853   -1.303946   -2.449967
     83          8           0       -2.173147    1.865186    1.032409
 ---------------------------------------------------------------------

 SCF Done:  E(RB3LYP) =  -1868.18098386     A.U. after    1 cycles

 Alpha  occ. eigenvalues --  -19.26633 -19.26471 -19.23934 -19.22863 -19.22861
 Alpha  occ. eigenvalues --  -19.22374 -19.21874 -14.49992 -14.49869 -14.49140
 Alpha  occ. eigenvalues --  -14.47759 -14.47078 -14.46328 -14.45792 -14.44140
 Alpha  occ. eigenvalues --  -10.46162 -10.40975 -10.40660 -10.39882 -10.38895
 Alpha  occ. eigenvalues --  -10.38810 -10.35405 -10.34647 -10.34326 -10.34037
 Alpha  occ. eigenvalues --  -10.33812 -10.33300 -10.33031 -10.30277 -10.30254
 Alpha  occ. eigenvalues --  -10.29461 -10.28086 -10.27926 -10.27327 -10.27245
 Alpha  occ. eigenvalues --  -10.26874 -10.24813 -10.24757  -1.18558  -1.15638
 Alpha  occ. eigenvalues --   -1.14967  -1.14823  -1.14212  -1.13731  -1.12707
 Alpha  occ. eigenvalues --   -1.09897  -1.04441  -1.04276  -1.03438  -1.02808
 Alpha  occ. eigenvalues --   -1.02751  -1.02307  -1.00314  -0.91583  -0.90290
 Alpha  occ. eigenvalues --   -0.89704  -0.87628  -0.86791  -0.85555  -0.82993
 Alpha  occ. eigenvalues --   -0.80176  -0.79152  -0.78452  -0.77095  -0.76592
 Alpha  occ. eigenvalues --   -0.75872  -0.74705  -0.73546  -0.73171  -0.71636
 Alpha  occ. eigenvalues --   -0.70756  -0.69730  -0.68880  -0.68174  -0.68036
 Alpha  occ. eigenvalues --   -0.67160  -0.66599  -0.65762  -0.64254  -0.63946
 Alpha  occ. eigenvalues --   -0.63418  -0.62968  -0.62747  -0.61506  -0.60346
 Alpha  occ. eigenvalues --   -0.59949  -0.59433  -0.59041  -0.58766  -0.58275
 Alpha  occ. eigenvalues --   -0.57431  -0.57317  -0.56756  -0.56260  -0.55700
 Alpha  occ. eigenvalues --   -0.55210  -0.54974  -0.54699  -0.54226  -0.53865
 Alpha  occ. eigenvalues --   -0.53467  -0.53254  -0.52948  -0.52322  -0.51880
 Alpha  occ. eigenvalues --   -0.51341  -0.50966  -0.50562  -0.50229  -0.50085
 Alpha  occ. eigenvalues --   -0.49557  -0.49255  -0.48828  -0.48475  -0.48152
 Alpha  occ. eigenvalues --   -0.48049  -0.47637  -0.46859  -0.46664  -0.46546
 Alpha  occ. eigenvalues --   -0.46134  -0.46088  -0.45888  -0.45643  -0.45611
 Alpha  occ. eigenvalues --   -0.45146  -0.44574  -0.44146  -0.43657  -0.43313
 Alpha  occ. eigenvalues --   -0.41533  -0.40977  -0.40775  -0.40650  -0.40161
 Alpha  occ. eigenvalues --   -0.39921  -0.39693  -0.38654  -0.38106  -0.37810
 Alpha  occ. eigenvalues --   -0.37305  -0.36534  -0.36056  -0.35668  -0.35359
 Alpha  occ. eigenvalues --   -0.34951  -0.34219
 Alpha virt. eigenvalues --   -0.12043  -0.10713  -0.09279  -0.08782  -0.08003
 Alpha virt. eigenvalues --   -0.07356  -0.06392  -0.04766  -0.02637  -0.02384
 Alpha virt. eigenvalues --   -0.02054  -0.01318  -0.00723   0.00055   0.00291

 Mulliken charges:
               1
     1  N   -0.806914
     2  H    0.339806
     3  H    0.363880
     4  H    0.489418
     5  C   -0.046850
     6  H    0.155030
     7  C    0.618094
     8  C   -0.088761
     9  H    0.166480
    10  O   -0.522664
    11  C   -0.495734
    12  H    0.154046
    13  H    0.166514
    14  H    0.143638
    15  C   -0.459002
    16  H    0.155153
    17  H    0.160643
    18  H    0.143331
    19  N   -0.596964
    20  H    0.344346
    21  C   -0.053989
    22  H    0.191552
    23  C    0.638949
    24  C   -0.471201
    25  H    0.180710
    26  H    0.172709
    27  H    0.175601
    28  O   -0.574088
    29  N   -0.606367
    30  H    0.395540
    31  C   -0.041598
    32  H    0.190682
    33  C    0.612747
    34  C   -0.089834
    35  H    0.190788
    36  H    0.156431
    37  O   -0.507188
    38  O   -0.677655
    39  H    0.446176
    40  N   -0.595373
    41  H    0.325575
    42  C   -0.077648
    43  H    0.190784
    44  C    0.649393
    45  C   -0.283927
    46  H    0.160251
    47  H    0.136654
    48  O   -0.605033
    49  C   -0.070849
    50  H    0.127179
    51  C   -0.445023
    52  H    0.151773
    53  H    0.141045
    54  H    0.160375
    55  C   -0.459695
    56  H    0.147718
    57  H    0.156450
    58  H    0.162680
    59  N   -0.582012
    60  H    0.370633
    61  C   -0.038937
    62  H    0.195676
    63  C    0.587228
    64  C   -0.285956
    65  H    0.181450
    66  H    0.178459
    67  O   -0.614511
    68  C   -0.299719
    69  H    0.173530
    70  H    0.176196
    71  C   -0.196521
    72  H    0.196531
    73  H    0.167083
    74  N   -0.555833
    75  H    0.375412
    76  N   -0.758684
    77  H    0.407562
    78  H    0.368132
    79  N   -0.760683
    80  H    0.393934
    81  H    0.375699
    82  C    0.747001
    83  O   -0.487452
 Sum of Mulliken charges =   1.00000

 Dipole moment (field-independent basis, Debye):
    X=            -12.1011    Y=              1.0732    Z=             -1.1698  Tot=             12.2047
 Quadrupole moment (field-independent basis, Debye-Ang):
   XX=           -139.2870   YY=           -206.9294   ZZ=           -185.6905
   XY=             -9.4578   XZ=            -15.2903   YZ=             -2.6942

 Normal termination of Gaussian 16 at Sun Jun 26 14:46:17 2022.
