 Gaussian 16, Revision C.01,
 Gaussian 16:  ES64L-G16RevC.01  3-Jul-2019

 ----------------------------------------------------------------------
 # B3LYP/6-31G* empiricaldispersion=gd3 guess=read geom=check nosymm in
 tegral(ultrafinegrid)
 ----------------------------------------------------------------------

 ------------------------------------------------------
 Candidate Structure: Conf:981 Charge calc in gas phase
 ------------------------------------------------------
 Structure from the checkpoint file:  "conf-981.chk"
 Charge =  1 Multiplicity = 1

                          Input orientation:
 ---------------------------------------------------------------------
 Center     Atomic      Atomic             Coordinates (Angstroms)
 Number     Number       Type             X           Y           Z
 ---------------------------------------------------------------------
      1          7           0       -2.915773    1.862508    4.821750
      2          1           0       -3.590125    1.232184    5.251086
      3          1           0       -1.988379    1.569605    5.129927
      4          1           0       -2.762018    3.620920    5.327611
      5          6           0       -3.000023    1.850387    3.369126
      6          1           0       -4.054767    1.959747    3.089635
      7          6           0       -2.468791    0.566858    2.734162
      8          6           0       -2.206050    3.035196    2.750495
      9          1           0       -1.170949    2.987936    3.111685
     10          1           0       -2.155672    2.900287    1.665394
     11          8           0       -1.605657   -0.111407    3.395176
     12          6           0       -2.825939    4.422965    3.034822
     13          1           0       -3.917321    4.334380    3.130934
     14          1           0       -2.627719    5.075320    2.182518
     15          6           0       -2.283373    5.164706    4.264865
     16          8           0       -1.818065    6.275105    4.179649
     17          8           0       -2.362049    4.518772    5.440688
     18          7           0       -2.869182    0.281183    1.510402
     19          1           0       -3.481819    0.976987    1.077106
     20          6           0       -2.525794   -0.784140    0.539113
     21          1           0       -2.947690   -1.725384    0.914960
     22          6           0       -1.006536   -1.049753    0.494041
     23          6           0       -3.253316   -0.409357   -0.804625
     24          1           0       -4.232385   -0.898281   -0.789868
     25          1           0       -2.720053   -0.861846   -1.646018
     26          8           0       -0.368996   -1.138367    1.572169
     27          6           0       -3.456401    1.069057   -0.992014
     28          6           0       -4.689575    1.690172   -1.046995
     29          1           0       -5.677428    1.249689   -1.076962
     30          6           0       -2.464054    2.123690   -0.990136
     31          6           0       -3.173903    3.355159   -1.028395
     32          6           0       -1.058130    2.155460   -0.918203
     33          1           0       -0.478540    1.241437   -0.952475
     34          7           0       -4.523853    3.052578   -1.078723
     35          1           0       -5.269064    3.726944   -1.172754
     36          6           0       -1.142313    4.592252   -0.886865
     37          1           0       -0.591950    5.527570   -0.860783
     38          6           0       -2.529870    4.597599   -0.976754
     39          1           0       -3.092148    5.526561   -1.006683
     40          6           0       -0.413509    3.382366   -0.862322
     41          1           0        0.669363    3.442636   -0.863145
     42          7           0       -0.420452   -1.287531   -0.670334
     43          1           0       -0.862077   -1.051882   -1.562681
     44          6           0        1.027743   -1.426652   -0.834565
     45          1           0        1.526566   -0.893475   -0.018800
     46          6           0        1.315225   -0.768966   -2.204528
     47          6           0        1.497018   -2.909528   -0.848977
     48          1           0        2.589286   -2.883741   -0.937314
     49          8           0        0.382411   -0.508399   -2.968486
     50          6           0        1.114638   -3.675690    0.413898
     51          1           0        1.495751   -3.185974    1.314299
     52          1           0        1.519727   -4.689522    0.355677
     53          1           0        0.024113   -3.747897    0.509353
     54          8           0        1.052442   -3.556849   -2.029184
     55          1           0        0.114608   -3.782516   -1.921147
     56          7           0        2.609009   -0.547185   -2.471773
     57          1           0        3.330521   -0.756426   -1.789277
     58          6           0        3.102455   -0.079130   -3.764742
     59          1           0        2.628567   -0.663735   -4.560537
     60          6           0        4.597547   -0.380745   -3.759894
     61          6           0        2.788162    1.420657   -3.987741
     62          1           0        3.154474    1.983528   -3.121798
     63          1           0        1.697304    1.510962   -3.981341
     64          8           0        5.242837   -0.579320   -2.750910
     65          6           0        3.361210    2.005389   -5.288139
     66          1           0        4.446146    2.138002   -5.193713
     67          1           0        3.217111    1.301745   -6.118544
     68          6           0        2.713086    3.343887   -5.681152
     69          1           0        3.205110    3.736512   -6.578166
     70          1           0        1.665758    3.176270   -5.940112
     71          7           0        2.769060    4.377437   -4.642926
     72          1           0        3.710110    4.616621   -4.352891
     73          7           0        0.544389    4.121043   -3.984352
     74          1           0       -0.118831    4.321839   -3.245600
     75          1           0        0.253265    4.518267   -4.871026
     76          7           0        2.078943    4.808428   -2.385586
     77          1           0        3.081775    4.905012   -2.215882
     78          6           0        1.844001    4.460623   -3.604631
     79          8           0        5.116910   -0.392953   -4.996256
     80          1           0        6.074196   -0.569045   -4.910541
     81          1           0       -1.043105   -0.718210    2.710127
 ---------------------------------------------------------------------

 SCF Done:  E(RB3LYP) =  -2054.00602287     A.U. after    1 cycles

 Alpha  occ. eigenvalues --  -19.33649 -19.29456 -19.28937 -19.24787 -19.24017
 Alpha  occ. eigenvalues --  -19.23840 -19.23011 -19.18661 -14.54332 -14.50990
 Alpha  occ. eigenvalues --  -14.49577 -14.46760 -14.46665 -14.41951 -14.40721
 Alpha  occ. eigenvalues --  -14.35396 -10.47381 -10.45425 -10.41979 -10.40624
 Alpha  occ. eigenvalues --  -10.40088 -10.37804 -10.37641 -10.35371 -10.35179
 Alpha  occ. eigenvalues --  -10.35000 -10.34308 -10.34307 -10.33643 -10.32937
 Alpha  occ. eigenvalues --  -10.31513 -10.30885 -10.29801 -10.29497 -10.29216
 Alpha  occ. eigenvalues --  -10.28998 -10.28867 -10.28122 -10.27828 -10.27425
 Alpha  occ. eigenvalues --  -10.27307 -10.26552  -1.25144  -1.20558  -1.20022
 Alpha  occ. eigenvalues --   -1.15128  -1.14957  -1.12490  -1.11674  -1.11515
 Alpha  occ. eigenvalues --   -1.09510  -1.07363  -1.06900  -1.04302  -1.03890
 Alpha  occ. eigenvalues --   -1.03489  -0.95574  -0.95460  -0.94182  -0.91071
 Alpha  occ. eigenvalues --   -0.90827  -0.90409  -0.89022  -0.87588  -0.84367
 Alpha  occ. eigenvalues --   -0.83994  -0.83790  -0.82990  -0.81735  -0.79818
 Alpha  occ. eigenvalues --   -0.78020  -0.75880  -0.75364  -0.74028  -0.73185
 Alpha  occ. eigenvalues --   -0.72860  -0.72609  -0.71045  -0.70261  -0.69446
 Alpha  occ. eigenvalues --   -0.68367  -0.67785  -0.67107  -0.66721  -0.66552
 Alpha  occ. eigenvalues --   -0.65227  -0.64774  -0.64564  -0.62964  -0.62644
 Alpha  occ. eigenvalues --   -0.61535  -0.61458  -0.60199  -0.59530  -0.59346
 Alpha  occ. eigenvalues --   -0.59050  -0.59027  -0.58016  -0.57677  -0.57473
 Alpha  occ. eigenvalues --   -0.56630  -0.56162  -0.55908  -0.55776  -0.55224
 Alpha  occ. eigenvalues --   -0.55062  -0.54874  -0.54374  -0.53851  -0.53790
 Alpha  occ. eigenvalues --   -0.53569  -0.53213  -0.53004  -0.52636  -0.52510
 Alpha  occ. eigenvalues --   -0.51785  -0.51562  -0.51288  -0.51027  -0.50784
 Alpha  occ. eigenvalues --   -0.50122  -0.49606  -0.49404  -0.49186  -0.48705
 Alpha  occ. eigenvalues --   -0.48611  -0.47843  -0.47219  -0.47004  -0.46013
 Alpha  occ. eigenvalues --   -0.45633  -0.45530  -0.45307  -0.45068  -0.44237
 Alpha  occ. eigenvalues --   -0.44035  -0.43709  -0.43432  -0.43302  -0.42535
 Alpha  occ. eigenvalues --   -0.42146  -0.42062  -0.41314  -0.41175  -0.38863
 Alpha  occ. eigenvalues --   -0.38714  -0.37910  -0.37701  -0.36724  -0.36543
 Alpha  occ. eigenvalues --   -0.35929  -0.33763  -0.32819  -0.32380  -0.32316
 Alpha  occ. eigenvalues --   -0.31814  -0.29303
 Alpha virt. eigenvalues --   -0.16669  -0.14555  -0.12027  -0.09312  -0.08210
 Alpha virt. eigenvalues --   -0.07898  -0.06401  -0.05872  -0.04559  -0.04226
 Alpha virt. eigenvalues --   -0.03131  -0.02849  -0.02350  -0.02180  -0.01903

 Mulliken charges:
               1
     1  N   -0.743821
     2  H    0.344416
     3  H    0.355582
     4  H    0.450245
     5  C   -0.072519
     6  H    0.180868
     7  C    0.621674
     8  C   -0.309510
     9  H    0.184704
    10  H    0.188351
    11  O   -0.561565
    12  C   -0.384427
    13  H    0.162931
    14  H    0.196336
    15  C    0.584636
    16  O   -0.434561
    17  O   -0.588791
    18  N   -0.589473
    19  H    0.383548
    20  C   -0.051352
    21  H    0.225570
    22  C    0.661218
    23  C   -0.416805
    24  H    0.188595
    25  H    0.197520
    26  O   -0.590374
    27  C   -0.030641
    28  C    0.016569
    29  H    0.180257
    30  C    0.086043
    31  C    0.307798
    32  C   -0.204218
    33  H    0.123221
    34  N   -0.670987
    35  H    0.351844
    36  C   -0.184288
    37  H    0.183069
    38  C   -0.166030
    39  H    0.156310
    40  C   -0.152699
    41  H    0.186376
    42  N   -0.617041
    43  H    0.392959
    44  C   -0.099104
    45  H    0.194450
    46  C    0.673991
    47  C    0.134627
    48  H    0.166220
    49  O   -0.545440
    50  C   -0.465273
    51  H    0.172815
    52  H    0.188888
    53  H    0.131842
    54  O   -0.604458
    55  H    0.395412
    56  N   -0.630687
    57  H    0.363052
    58  C   -0.025079
    59  H    0.203848
    60  C    0.582559
    61  C   -0.282713
    62  H    0.153177
    63  H    0.203527
    64  O   -0.466010
    65  C   -0.271684
    66  H    0.142656
    67  H    0.156594
    68  C   -0.154987
    69  H    0.163384
    70  H    0.166373
    71  N   -0.581382
    72  H    0.315733
    73  N   -0.752706
    74  H    0.350351
    75  H    0.328955
    76  N   -0.661610
    77  H    0.268846
    78  C    0.573363
    79  O   -0.551959
    80  H    0.429486
    81  H    0.491407
 Sum of Mulliken charges =   1.00000

 Dipole moment (field-independent basis, Debye):
    X=             -8.6230    Y=             -1.7289    Z=             -4.6839  Tot=              9.9642
 Quadrupole moment (field-independent basis, Debye-Ang):
   XX=           -142.7873   YY=           -252.3250   ZZ=           -208.3838
   XY=             -8.8174   XZ=            -38.9672   YZ=            -46.1439

 Normal termination of Gaussian 16 at Sat May 14 21:08:54 2022.
