 Gaussian 16, Revision C.01,
 Gaussian 16:  ES64L-G16RevC.01  3-Jul-2019

 ----------------------------------------------------------------------
 # B3LYP/6-31G* empiricaldispersion=gd3 guess=read geom=check nosymm in
 tegral(ultrafinegrid)
 ----------------------------------------------------------------------

 ------------------------------------------------------
 Candidate Structure: Conf:966 Charge calc in gas phase
 ------------------------------------------------------
 Structure from the checkpoint file:  "conf-966.chk"
 Charge =  1 Multiplicity = 1

                          Input orientation:
 ---------------------------------------------------------------------
 Center     Atomic      Atomic             Coordinates (Angstroms)
 Number     Number       Type             X           Y           Z
 ---------------------------------------------------------------------
      1          7           0       -4.351666   -0.447469    2.727893
      2          1           0       -5.027053   -0.680778    1.970647
      3          1           0       -3.687172   -1.242157    2.810000
      4          1           0       -4.851440   -0.296186    3.608594
      5          6           0       -3.496237    0.734739    2.304170
      6          1           0       -4.165277    1.422988    1.782106
      7          6           0       -2.517430    0.056683    1.325267
      8          6           0       -2.852736    1.437624    3.509992
      9          1           0       -2.340595    2.318421    3.109527
     10          1           0       -3.661598    1.805527    4.154876
     11          8           0       -2.088839   -1.075888    1.608115
     12          6           0       -1.851514    0.616329    4.329880
     13          1           0       -2.222323   -0.387686    4.573409
     14          1           0       -1.674156    1.105785    5.293963
     15          6           0       -0.515198    0.460593    3.624831
     16          8           0        0.284479   -0.384300    4.268410
     17          8           0       -0.235163    1.035211    2.586359
     18          7           0       -2.306879    0.684841    0.176463
     19          1           0       -2.654542    1.620123    0.012084
     20          6           0       -1.606761    0.036285   -0.926787
     21          1           0       -1.710749   -1.038652   -0.759742
     22          6           0       -0.151592    0.483346   -0.763444
     23          6           0       -2.222177    0.442197   -2.285984
     24          1           0       -2.023862   -0.381764   -2.984323
     25          1           0       -1.687266    1.320624   -2.659889
     26          8           0        0.114027    1.677754   -0.839788
     27          6           0       -3.690532    0.767077   -2.212864
     28          6           0       -4.273438    1.857471   -2.813070
     29          1           0       -3.817633    2.585486   -3.473056
     30          6           0       -4.734842    0.106910   -1.461798
     31          6           0       -5.922601    0.878005   -1.635058
     32          6           0       -4.791511   -1.027757   -0.630911
     33          1           0       -3.924154   -1.669951   -0.508265
     34          7           0       -5.610153    1.922188   -2.475227
     35          1           0       -6.261589    2.611909   -2.819453
     36          6           0       -7.139572   -0.538895   -0.143492
     37          1           0       -8.061536   -0.814827    0.359522
     38          6           0       -7.121929    0.570505   -0.980174
     39          1           0       -8.011645    1.176626   -1.124611
     40          6           0       -5.984177   -1.339833    0.025486
     41          1           0       -6.057002   -2.263921    0.597638
     42          7           0        0.745205   -0.470161   -0.424173
     43          1           0        0.524145   -1.446759   -0.574241
     44          6           0        2.095083   -0.145029    0.047134
     45          1           0        2.006787    0.796199    0.599586
     46          6           0        3.027593    0.020231   -1.180172
     47          6           0        2.528646   -1.256786    1.013158
     48          1           0        2.627752   -2.191098    0.441642
     49          8           0        3.857871   -0.827350   -1.493270
     50          6           0        3.844111   -0.955547    1.709313
     51          1           0        4.652532   -0.936287    0.975145
     52          1           0        4.055658   -1.735124    2.446984
     53          1           0        3.798646    0.008124    2.229077
     54          8           0        1.524938   -1.435493    2.033527
     55          1           0        1.070149   -0.525917    3.632628
     56          7           0        2.759118    1.146496   -1.883745
     57          1           0        2.022229    1.766879   -1.549339
     58          6           0        3.213593    1.398323   -3.245322
     59          1           0        4.305023    1.513233   -3.263812
     60          6           0        2.601680    2.743124   -3.643394
     61          6           0        2.826191    0.255186   -4.217034
     62          1           0        3.356124   -0.631294   -3.861457
     63          1           0        3.237998    0.491759   -5.204022
     64          8           0        1.915959    3.422811   -2.912120
     65          6           0        1.303049   -0.044951   -4.279835
     66          1           0        1.140016   -1.061770   -3.897114
     67          1           0        0.747771    0.623922   -3.608869
     68          6           0        0.665413    0.015040   -5.682065
     69          1           0        1.261109   -0.569626   -6.390397
     70          1           0       -0.322535   -0.459904   -5.659869
     71          7           0        0.502280    1.350847   -6.249076
     72          1           0        1.389817    1.780761   -6.483751
     73          7           0       -0.054216    3.595507   -5.963290
     74          1           0       -0.814913    4.201056   -5.667965
     75          1           0        0.130112    3.742989   -6.954169
     76          7           0       -1.433887    1.995656   -4.972610
     77          1           0       -1.517240    0.991520   -4.828388
     78          6           0       -0.390222    2.249775   -5.681949
     79          8           0        2.872470    3.076176   -4.919538
     80          1           0        2.231024    3.787386   -5.151214
     81          1           0        0.658650   -1.340850    1.618826
 ---------------------------------------------------------------------

 SCF Done:  E(RB3LYP) =  -2054.03842874     A.U. after    1 cycles

 Alpha  occ. eigenvalues --  -19.27870 -19.26815 -19.26060 -19.24047 -19.23304
 Alpha  occ. eigenvalues --  -19.21799 -19.21415 -19.18908 -14.60078 -14.49843
 Alpha  occ. eigenvalues --  -14.48328 -14.47031 -14.42727 -14.42383 -14.42306
 Alpha  occ. eigenvalues --  -14.36810 -10.43292 -10.41675 -10.40676 -10.39404
 Alpha  occ. eigenvalues --  -10.39048 -10.36159 -10.36031 -10.34892 -10.33881
 Alpha  occ. eigenvalues --  -10.32817 -10.32468 -10.32005 -10.31863 -10.31758
 Alpha  occ. eigenvalues --  -10.31354 -10.30188 -10.30113 -10.29817 -10.29806
 Alpha  occ. eigenvalues --  -10.29627 -10.29578 -10.29415 -10.28637 -10.26654
 Alpha  occ. eigenvalues --  -10.26269 -10.24530  -1.19353  -1.18549  -1.17918
 Alpha  occ. eigenvalues --   -1.14424  -1.13810  -1.11363  -1.10578  -1.10338
 Alpha  occ. eigenvalues --   -1.08972  -1.08326  -1.06554  -1.05421  -1.02863
 Alpha  occ. eigenvalues --   -0.99532  -0.96498  -0.94937  -0.94452  -0.92236
 Alpha  occ. eigenvalues --   -0.91316  -0.88490  -0.87343  -0.86181  -0.85424
 Alpha  occ. eigenvalues --   -0.84477  -0.82729  -0.82111  -0.79210  -0.79091
 Alpha  occ. eigenvalues --   -0.76109  -0.75218  -0.73887  -0.73099  -0.73056
 Alpha  occ. eigenvalues --   -0.72440  -0.70837  -0.69987  -0.69676  -0.68710
 Alpha  occ. eigenvalues --   -0.68285  -0.67733  -0.66979  -0.65540  -0.65002
 Alpha  occ. eigenvalues --   -0.64342  -0.63669  -0.62709  -0.62224  -0.62026
 Alpha  occ. eigenvalues --   -0.61017  -0.60419  -0.59690  -0.59506  -0.59216
 Alpha  occ. eigenvalues --   -0.58925  -0.58689  -0.57944  -0.57580  -0.56955
 Alpha  occ. eigenvalues --   -0.56330  -0.55483  -0.54977  -0.54682  -0.54310
 Alpha  occ. eigenvalues --   -0.54252  -0.54009  -0.53665  -0.53315  -0.53151
 Alpha  occ. eigenvalues --   -0.52677  -0.52201  -0.51940  -0.51532  -0.51271
 Alpha  occ. eigenvalues --   -0.50961  -0.50303  -0.50111  -0.49574  -0.49120
 Alpha  occ. eigenvalues --   -0.48852  -0.48700  -0.48218  -0.48107  -0.47887
 Alpha  occ. eigenvalues --   -0.47447  -0.46896  -0.46687  -0.46301  -0.45823
 Alpha  occ. eigenvalues --   -0.45496  -0.45153  -0.44542  -0.44327  -0.44168
 Alpha  occ. eigenvalues --   -0.43687  -0.42814  -0.42248  -0.42189  -0.41308
 Alpha  occ. eigenvalues --   -0.40641  -0.40520  -0.40046  -0.39145  -0.38022
 Alpha  occ. eigenvalues --   -0.37682  -0.36874  -0.36080  -0.35473  -0.35062
 Alpha  occ. eigenvalues --   -0.34829  -0.34184  -0.33487  -0.32522  -0.31782
 Alpha  occ. eigenvalues --   -0.30933  -0.30703
 Alpha virt. eigenvalues --   -0.13269  -0.11890  -0.10662  -0.09099  -0.08803
 Alpha virt. eigenvalues --   -0.08240  -0.06914  -0.05700  -0.05002  -0.04393
 Alpha virt. eigenvalues --   -0.04114  -0.03505  -0.02869  -0.01839  -0.01210

 Mulliken charges:
               1
     1  N   -0.755105
     2  H    0.407946
     3  H    0.421625
     4  H    0.406388
     5  C   -0.123081
     6  H    0.210137
     7  C    0.697325
     8  C   -0.286640
     9  H    0.220409
    10  H    0.168866
    11  O   -0.572716
    12  C   -0.373592
    13  H    0.167321
    14  H    0.216830
    15  C    0.613484
    16  O   -0.573266
    17  O   -0.486079
    18  N   -0.566284
    19  H    0.362379
    20  C   -0.073960
    21  H    0.176268
    22  C    0.673718
    23  C   -0.411608
    24  H    0.164142
    25  H    0.235810
    26  O   -0.521923
    27  C    0.025463
    28  C    0.014440
    29  H    0.210424
    30  C    0.088285
    31  C    0.316338
    32  C   -0.237199
    33  H    0.150755
    34  N   -0.680419
    35  H    0.348666
    36  C   -0.153669
    37  H    0.153068
    38  C   -0.156144
    39  H    0.155542
    40  C   -0.234934
    41  H    0.149716
    42  N   -0.643990
    43  H    0.343980
    44  C   -0.089447
    45  H    0.205419
    46  C    0.641928
    47  C    0.131052
    48  H    0.150785
    49  O   -0.527418
    50  C   -0.474910
    51  H    0.194867
    52  H    0.172937
    53  H    0.152537
    54  O   -0.661696
    55  H    0.447684
    56  N   -0.651147
    57  H    0.408415
    58  C   -0.036532
    59  H    0.199544
    60  C    0.596976
    61  C   -0.293934
    62  H    0.199320
    63  H    0.158353
    64  O   -0.453820
    65  C   -0.290860
    66  H    0.138366
    67  H    0.160275
    68  C   -0.175648
    69  H    0.170546
    70  H    0.153197
    71  N   -0.573915
    72  H    0.333541
    73  N   -0.770399
    74  H    0.343554
    75  H    0.333870
    76  N   -0.671371
    77  H    0.286986
    78  C    0.587200
    79  O   -0.591370
    80  H    0.431939
    81  H    0.414458
 Sum of Mulliken charges =   1.00000

 Dipole moment (field-independent basis, Debye):
    X=            -18.6541    Y=              2.9747    Z=              0.8395  Tot=             18.9085
 Quadrupole moment (field-independent basis, Debye-Ang):
   XX=           -139.1243   YY=           -226.5464   ZZ=           -157.1419
   XY=            -12.3482   XZ=            -37.6828   YZ=            -19.7907

 Normal termination of Gaussian 16 at Sat May 14 21:08:57 2022.
