 Gaussian 16, Revision C.01,
 Gaussian 16:  ES64L-G16RevC.01  3-Jul-2019

 ----------------------------------------------------------------------
 # B3LYP/6-31G* empiricaldispersion=gd3 guess=read geom=check nosymm in
 tegral(ultrafinegrid)
 ----------------------------------------------------------------------

 ------------------------------------------------------
 Candidate Structure: Conf:549 Charge calc in gas phase
 ------------------------------------------------------
 Structure from the checkpoint file:  "conf-549.chk"
 Charge =  1 Multiplicity = 1

                          Input orientation:
 ---------------------------------------------------------------------
 Center     Atomic      Atomic             Coordinates (Angstroms)
 Number     Number       Type             X           Y           Z
 ---------------------------------------------------------------------
      1          7           0       -3.477393   -0.236211    3.681790
      2          1           0       -4.030321   -0.976274    3.253928
      3          1           0       -2.724481   -0.677214    4.206654
      4          1           0       -4.712087    1.101968    4.406527
      5          6           0       -2.960559    0.698948    2.693944
      6          1           0       -3.818245    1.184219    2.214001
      7          6           0       -2.099460    0.080884    1.601951
      8          6           0       -2.093802    1.804777    3.362387
      9          1           0       -1.118316    1.384001    3.635033
     10          1           0       -1.909427    2.582103    2.614829
     11          8           0       -1.390328   -0.940810    1.983084
     12          6           0       -2.742941    2.428841    4.615270
     13          1           0       -2.135758    3.280590    4.928952
     14          1           0       -2.757218    1.701364    5.433707
     15          6           0       -4.160345    2.945346    4.358865
     16          8           0       -4.419602    4.110368    4.180054
     17          8           0       -5.119114    1.995707    4.312115
     18          7           0       -2.102540    0.654304    0.427956
     19          1           0       -2.771112    1.427079    0.323931
     20          6           0       -1.160053    0.535361   -0.702648
     21          1           0       -1.478689   -0.310303   -1.323166
     22          6           0        0.236452    0.320812   -0.107656
     23          6           0       -1.212001    1.851824   -1.523676
     24          1           0       -0.589529    1.708133   -2.412119
     25          1           0       -0.736613    2.631133   -0.917906
     26          8           0        0.704864    1.103605    0.714005
     27          6           0       -2.618620    2.241453   -1.863949
     28          6           0       -3.399842    1.801156   -2.909658
     29          1           0       -3.131448    1.203715   -3.770744
     30          6           0       -3.489539    3.005058   -0.995014
     31          6           0       -4.790902    2.961231   -1.563285
     32          6           0       -3.284939    3.700611    0.218346
     33          1           0       -2.274998    3.846466    0.595429
     34          7           0       -4.695689    2.235800   -2.736013
     35          1           0       -5.449658    2.087108   -3.390173
     36          6           0       -5.672701    4.195043    0.275216
     37          1           0       -6.507771    4.655205    0.794203
     38          6           0       -5.893037    3.558917   -0.941258
     39          1           0       -6.883545    3.519037   -1.385407
     40          6           0       -4.383741    4.274850    0.847086
     41          1           0       -4.255261    4.796574    1.789077
     42          7           0        0.853279   -0.817549   -0.493676
     43          1           0        0.406831   -1.429231   -1.164508
     44          6           0        1.966276   -1.371761    0.274084
     45          1           0        1.976642   -0.832809    1.227210
     46          6           0        3.278507   -1.113969   -0.487653
     47          6           0        1.668333   -2.841676    0.552596
     48          1           0        1.671689   -3.396293   -0.395187
     49          8           0        3.807463   -1.970226   -1.183134
     50          6           0        2.659286   -3.465335    1.522064
     51          1           0        3.658657   -3.455738    1.078152
     52          1           0        2.395633   -4.508988    1.727941
     53          1           0        2.677394   -2.915304    2.468968
     54          8           0        0.316182   -2.824942    1.090801
     55          1           0        0.113881   -3.696612    1.464915
     56          7           0        3.697660    0.169377   -0.349707
     57          1           0        3.158803    0.780992    0.251673
     58          6           0        4.733522    0.765823   -1.177408
     59          1           0        5.151872   -0.054898   -1.772502
     60          6           0        5.893228    1.312391   -0.334352
     61          6           0        4.174276    1.858264   -2.109958
     62          1           0        3.541259    1.378340   -2.865743
     63          1           0        5.022186    2.314947   -2.629534
     64          8           0        6.612066    2.219946   -0.683722
     65          6           0        3.372780    2.930202   -1.357538
     66          1           0        2.438029    2.505365   -0.969993
     67          1           0        3.951488    3.270965   -0.485622
     68          6           0        3.023484    4.165546   -2.199420
     69          1           0        3.935903    4.695548   -2.492159
     70          1           0        2.509169    3.874028   -3.119239
     71          7           0        2.159693    5.101341   -1.461618
     72          1           0        2.572072    5.378664   -0.576846
     73          7           0        0.156781    4.605921   -2.540542
     74          1           0       -0.852048    4.569257   -2.443074
     75          1           0        0.453919    5.247996   -3.267074
     76          7           0        0.137092    4.665159   -0.222836
     77          1           0        0.764804    4.674421    0.581779
     78          6           0        0.800212    4.795860   -1.321375
     79          8           0        6.043209    0.646789    0.830902
     80          1           0        6.832129    1.026056    1.264111
     81          1           0       -0.767245   -1.435984    1.376085
 ---------------------------------------------------------------------

 SCF Done:  E(RB3LYP) =  -2054.00772838     A.U. after    1 cycles

 Alpha  occ. eigenvalues --  -19.36245 -19.29862 -19.28119 -19.25679 -19.25462
 Alpha  occ. eigenvalues --  -19.22372 -19.21970 -19.20437 -14.54366 -14.50320
 Alpha  occ. eigenvalues --  -14.47857 -14.46815 -14.46209 -14.42485 -14.42203
 Alpha  occ. eigenvalues --  -14.37155 -10.48046 -10.42604 -10.40530 -10.39361
 Alpha  occ. eigenvalues --  -10.39126 -10.38310 -10.37515 -10.37016 -10.36167
 Alpha  occ. eigenvalues --  -10.35476 -10.33060 -10.32143 -10.31886 -10.31286
 Alpha  occ. eigenvalues --  -10.30624 -10.30113 -10.29542 -10.28913 -10.28610
 Alpha  occ. eigenvalues --  -10.28144 -10.27758 -10.27730 -10.27325 -10.27289
 Alpha  occ. eigenvalues --  -10.26872 -10.26382  -1.26029  -1.19032  -1.17804
 Alpha  occ. eigenvalues --   -1.16604  -1.16216  -1.13842  -1.11731  -1.10039
 Alpha  occ. eigenvalues --   -1.08579  -1.07646  -1.06536  -1.05429  -1.04008
 Alpha  occ. eigenvalues --   -1.02998  -0.96505  -0.94487  -0.92791  -0.92362
 Alpha  occ. eigenvalues --   -0.90940  -0.90365  -0.88494  -0.87982  -0.85041
 Alpha  occ. eigenvalues --   -0.83762  -0.82463  -0.82064  -0.80935  -0.79780
 Alpha  occ. eigenvalues --   -0.78058  -0.75887  -0.75018  -0.74463  -0.73627
 Alpha  occ. eigenvalues --   -0.72010  -0.71212  -0.70804  -0.69656  -0.68439
 Alpha  occ. eigenvalues --   -0.68162  -0.68043  -0.67409  -0.66784  -0.65572
 Alpha  occ. eigenvalues --   -0.65420  -0.64844  -0.64140  -0.62845  -0.62745
 Alpha  occ. eigenvalues --   -0.62485  -0.61401  -0.60766  -0.60164  -0.58582
 Alpha  occ. eigenvalues --   -0.58351  -0.58013  -0.57575  -0.57089  -0.56424
 Alpha  occ. eigenvalues --   -0.56352  -0.55992  -0.55882  -0.55451  -0.55225
 Alpha  occ. eigenvalues --   -0.54934  -0.54693  -0.54309  -0.53443  -0.53070
 Alpha  occ. eigenvalues --   -0.52941  -0.52423  -0.52339  -0.51946  -0.51577
 Alpha  occ. eigenvalues --   -0.51328  -0.50852  -0.50832  -0.50625  -0.50234
 Alpha  occ. eigenvalues --   -0.50070  -0.49791  -0.49570  -0.49249  -0.48673
 Alpha  occ. eigenvalues --   -0.48488  -0.48208  -0.47240  -0.46956  -0.46622
 Alpha  occ. eigenvalues --   -0.46538  -0.46274  -0.45583  -0.45064  -0.44253
 Alpha  occ. eigenvalues --   -0.44033  -0.43692  -0.43608  -0.42763  -0.42467
 Alpha  occ. eigenvalues --   -0.42003  -0.41823  -0.40233  -0.40144  -0.39492
 Alpha  occ. eigenvalues --   -0.39350  -0.38190  -0.37701  -0.37110  -0.35417
 Alpha  occ. eigenvalues --   -0.35227  -0.34253  -0.34039  -0.33223  -0.31510
 Alpha  occ. eigenvalues --   -0.30807  -0.29884
 Alpha virt. eigenvalues --   -0.17117  -0.12531  -0.10575  -0.08762  -0.07767
 Alpha virt. eigenvalues --   -0.07430  -0.06853  -0.06488  -0.04779  -0.04524
 Alpha virt. eigenvalues --   -0.04211  -0.03842  -0.01878  -0.01485  -0.00812

 Mulliken charges:
               1
     1  N   -0.740794
     2  H    0.339373
     3  H    0.341104
     4  H    0.444492
     5  C   -0.100255
     6  H    0.213462
     7  C    0.633652
     8  C   -0.297665
     9  H    0.176422
    10  H    0.195820
    11  O   -0.582552
    12  C   -0.368806
    13  H    0.200407
    14  H    0.171334
    15  C    0.589805
    16  O   -0.438379
    17  O   -0.582819
    18  N   -0.575968
    19  H    0.406907
    20  C   -0.031312
    21  H    0.174902
    22  C    0.578377
    23  C   -0.421994
    24  H    0.181713
    25  H    0.249788
    26  O   -0.522218
    27  C    0.023702
    28  C    0.012440
    29  H    0.166768
    30  C   -0.000183
    31  C    0.325410
    32  C   -0.271102
    33  H    0.194983
    34  N   -0.680647
    35  H    0.346709
    36  C   -0.152035
    37  H    0.161151
    38  C   -0.157674
    39  H    0.148693
    40  C   -0.147371
    41  H    0.185316
    42  N   -0.585621
    43  H    0.351633
    44  C   -0.101255
    45  H    0.193572
    46  C    0.648891
    47  C    0.129895
    48  H    0.171802
    49  O   -0.510984
    50  C   -0.490410
    51  H    0.211125
    52  H    0.166004
    53  H    0.167171
    54  O   -0.679829
    55  H    0.426871
    56  N   -0.602021
    57  H    0.358208
    58  C   -0.076682
    59  H    0.225230
    60  C    0.591124
    61  C   -0.261468
    62  H    0.146756
    63  H    0.185484
    64  O   -0.451522
    65  C   -0.305361
    66  H    0.150393
    67  H    0.143442
    68  C   -0.156648
    69  H    0.172944
    70  H    0.166973
    71  N   -0.574849
    72  H    0.317656
    73  N   -0.739950
    74  H    0.346751
    75  H    0.341392
    76  N   -0.642278
    77  H    0.275182
    78  C    0.548667
    79  O   -0.559682
    80  H    0.423321
    81  H    0.487114
 Sum of Mulliken charges =   1.00000

 Dipole moment (field-independent basis, Debye):
    X=             -3.8194    Y=             -3.0884    Z=             -0.0390  Tot=              4.9120
 Quadrupole moment (field-independent basis, Debye-Ang):
   XX=           -204.1020   YY=           -225.4849   ZZ=           -203.0383
   XY=             15.1846   XZ=             29.5619   YZ=            -31.6937

 Normal termination of Gaussian 16 at Sat May 14 21:09:04 2022.
