 Gaussian 16, Revision C.01,
 Gaussian 16:  ES64L-G16RevC.01  3-Jul-2019

 ----------------------------------------------------------------------
 # B3LYP/6-31G* empiricaldispersion=gd3 guess=read geom=check nosymm in
 tegral(ultrafinegrid)
 ----------------------------------------------------------------------

 ------------------------------------------------------
 Candidate Structure: Conf:156 Charge calc in gas phase
 ------------------------------------------------------
 Structure from the checkpoint file:  "conf-156.chk"
 Charge =  1 Multiplicity = 1

                          Input orientation:
 ---------------------------------------------------------------------
 Center     Atomic      Atomic             Coordinates (Angstroms)
 Number     Number       Type             X           Y           Z
 ---------------------------------------------------------------------
      1          7           0       -2.933449    2.121190   -3.495190
      2          1           0       -3.448626    2.700009   -2.807039
      3          1           0       -2.224312    2.729022   -4.030497
      4          1           0       -3.623084    1.763011   -4.162393
      5          6           0       -2.264203    0.971230   -2.786563
      6          1           0       -3.070686    0.363526   -2.370196
      7          6           0       -1.484755    1.525335   -1.606758
      8          6           0       -1.428419    0.133895   -3.764837
      9          1           0       -2.084842   -0.180322   -4.587077
     10          1           0       -0.634682    0.757216   -4.195080
     11          8           0       -1.086214    2.804038   -1.801642
     12          6           0       -0.783797   -1.112743   -3.121405
     13          1           0       -0.019385   -0.817114   -2.396855
     14          1           0       -0.273056   -1.667425   -3.910526
     15          6           0       -1.788000   -2.081842   -2.487271
     16          8           0       -2.279089   -1.742276   -1.270593
     17          8           0       -2.160048   -3.086701   -3.042220
     18          7           0       -1.337608    0.780003   -0.597020
     19          1           0       -1.905523   -0.880539   -0.920943
     20          6           0       -0.850613    1.248286    0.692704
     21          1           0       -0.770909    2.341495    0.745829
     22          6           0        0.592884    0.746890    0.836404
     23          6           0       -1.863843    0.770944    1.794987
     24          1           0       -1.876249    1.528497    2.586983
     25          1           0       -1.493644   -0.152739    2.253215
     26          8           0        1.511715    1.538309    1.042486
     27          6           0       -3.233647    0.521434    1.223320
     28          6           0       -3.871460   -0.694758    1.199479
     29          1           0       -3.581844   -1.628545    1.661007
     30          6           0       -4.020707    1.402945    0.391959
     31          6           0       -5.106278    0.633433   -0.124834
     32          6           0       -3.884489    2.736342   -0.030793
     33          1           0       -3.090760    3.363705    0.366224
     34          7           0       -5.002403   -0.627139    0.415598
     35          1           0       -5.606383   -1.408286    0.206977
     36          6           0       -5.839599    2.465776   -1.473315
     37          1           0       -6.542979    2.901750   -2.177248
     38          6           0       -6.015651    1.149162   -1.055979
     39          1           0       -6.834567    0.544508   -1.435294
     40          6           0       -4.783813    3.257400   -0.962445
     41          1           0       -4.708973    4.302144   -1.255044
     42          7           0        0.778500   -0.574836    0.608621
     43          1           0       -0.002433   -1.210105    0.502141
     44          6           0        2.113781   -1.121509    0.394913
     45          1           0        2.730125   -0.923535    1.280977
     46          6           0        2.707239   -0.424856   -0.850442
     47          6           0        1.996267   -2.645904    0.145317
     48          1           0        1.565038   -2.773858   -0.852308
     49          8           0        2.256238   -0.653894   -1.973044
     50          6           0        3.354707   -3.335141    0.209351
     51          1           0        4.045209   -2.917843   -0.531714
     52          1           0        3.236652   -4.403167    0.008720
     53          1           0        3.810140   -3.214214    1.201136
     54          8           0        1.042243   -3.225505    1.029891
     55          1           0        1.446617   -3.300977    1.910383
     56          7           0        3.710137    0.455284   -0.620102
     57          1           0        3.783260    0.817017    0.323598
     58          6           0        4.061466    1.398018   -1.678214
     59          1           0        4.250505    0.835944   -2.594893
     60          6           0        5.346530    2.139873   -1.338307
     61          6           0        2.900119    2.401585   -1.922662
     62          1           0        2.635728    2.850594   -0.956573
     63          1           0        2.044124    1.790390   -2.234640
     64          8           0        6.090883    2.608928   -2.166325
     65          6           0        3.195747    3.502658   -2.949400
     66          1           0        4.037937    4.110554   -2.606993
     67          1           0        3.512118    3.070120   -3.907376
     68          6           0        2.006693    4.439662   -3.176066
     69          1           0        1.607232    4.771364   -2.202912
     70          1           0        2.341125    5.338208   -3.708530
     71          7           0        0.956522    3.807328   -3.969809
     72          1           0        0.987681    2.801024   -4.061857
     73          7           0       -1.141321    3.673644   -5.027169
     74          1           0       -1.787269    4.346720   -5.442154
     75          1           0       -0.655614    3.198114   -5.788808
     76          7           0       -0.627551    5.611053   -3.874053
     77          1           0        0.034073    6.090535   -3.265326
     78          6           0       -0.229090    4.450124   -4.224541
     79          8           0        5.521431    2.281800   -0.003886
     80          1           0        6.346399    2.787608    0.128482
     81          1           0       -0.540758    3.121562   -1.060273
 ---------------------------------------------------------------------

 SCF Done:  E(RB3LYP) =  -2054.00845638     A.U. after    1 cycles

 Alpha  occ. eigenvalues --  -19.34272 -19.29187 -19.26189 -19.24171 -19.23104
 Alpha  occ. eigenvalues --  -19.22793 -19.21842 -19.20912 -14.57510 -14.48282
 Alpha  occ. eigenvalues --  -14.48048 -14.46863 -14.46682 -14.46623 -14.45726
 Alpha  occ. eigenvalues --  -14.39790 -10.43694 -10.41392 -10.39916 -10.39711
 Alpha  occ. eigenvalues --  -10.39711 -10.39685 -10.38686 -10.35411 -10.33794
 Alpha  occ. eigenvalues --  -10.33548 -10.33443 -10.33276 -10.32955 -10.32687
 Alpha  occ. eigenvalues --  -10.32043 -10.30758 -10.29900 -10.29818 -10.29771
 Alpha  occ. eigenvalues --  -10.29553 -10.29381 -10.29314 -10.29245 -10.29005
 Alpha  occ. eigenvalues --  -10.28640 -10.26527  -1.23144  -1.19908  -1.16863
 Alpha  occ. eigenvalues --   -1.14941  -1.13517  -1.12751  -1.11597  -1.10930
 Alpha  occ. eigenvalues --   -1.09393  -1.08930  -1.08213  -1.06238  -1.02941
 Alpha  occ. eigenvalues --   -1.02664  -1.01054  -0.95801  -0.94805  -0.94269
 Alpha  occ. eigenvalues --   -0.91294  -0.90153  -0.88520  -0.86933  -0.84929
 Alpha  occ. eigenvalues --   -0.84519  -0.84198  -0.82657  -0.80060  -0.79049
 Alpha  occ. eigenvalues --   -0.78093  -0.76311  -0.75030  -0.72901  -0.72694
 Alpha  occ. eigenvalues --   -0.71910  -0.70641  -0.70226  -0.70100  -0.69756
 Alpha  occ. eigenvalues --   -0.69401  -0.69101  -0.68711  -0.67903  -0.67376
 Alpha  occ. eigenvalues --   -0.66642  -0.65803  -0.64426  -0.63715  -0.63237
 Alpha  occ. eigenvalues --   -0.62735  -0.62001  -0.61612  -0.60070  -0.59365
 Alpha  occ. eigenvalues --   -0.59081  -0.58646  -0.58417  -0.57885  -0.57537
 Alpha  occ. eigenvalues --   -0.57380  -0.56849  -0.56551  -0.55695  -0.54997
 Alpha  occ. eigenvalues --   -0.54658  -0.54412  -0.54233  -0.54113  -0.53952
 Alpha  occ. eigenvalues --   -0.53743  -0.53262  -0.53072  -0.52703  -0.52122
 Alpha  occ. eigenvalues --   -0.51876  -0.51749  -0.51457  -0.50969  -0.50685
 Alpha  occ. eigenvalues --   -0.50509  -0.50250  -0.49466  -0.49161  -0.48576
 Alpha  occ. eigenvalues --   -0.48290  -0.48243  -0.47809  -0.47231  -0.46981
 Alpha  occ. eigenvalues --   -0.46318  -0.46013  -0.45876  -0.45744  -0.45209
 Alpha  occ. eigenvalues --   -0.44795  -0.44446  -0.43954  -0.43866  -0.42206
 Alpha  occ. eigenvalues --   -0.41703  -0.40955  -0.40611  -0.39846  -0.38888
 Alpha  occ. eigenvalues --   -0.38243  -0.37697  -0.37446  -0.37409  -0.36634
 Alpha  occ. eigenvalues --   -0.36150  -0.35460  -0.34498  -0.33933  -0.33776
 Alpha  occ. eigenvalues --   -0.33172  -0.30802
 Alpha virt. eigenvalues --   -0.13742  -0.11853  -0.10439  -0.09867  -0.09298
 Alpha virt. eigenvalues --   -0.08607  -0.08147  -0.07536  -0.07055  -0.06279
 Alpha virt. eigenvalues --   -0.05831  -0.03581  -0.02915  -0.02138  -0.01689

 Mulliken charges:
               1
     1  N   -0.787814
     2  H    0.407885
     3  H    0.466201
     4  H    0.396111
     5  C   -0.114156
     6  H    0.237299
     7  C    0.576203
     8  C   -0.287998
     9  H    0.178320
    10  H    0.159515
    11  O   -0.612767
    12  C   -0.391071
    13  H    0.208048
    14  H    0.202398
    15  C    0.569793
    16  O   -0.634386
    17  O   -0.428836
    18  N   -0.474586
    19  H    0.471693
    20  C   -0.106197
    21  H    0.140703
    22  C    0.630144
    23  C   -0.377245
    24  H    0.186832
    25  H    0.171640
    26  O   -0.529653
    27  C    0.068707
    28  C    0.028336
    29  H    0.183349
    30  C    0.082769
    31  C    0.317392
    32  C   -0.225386
    33  H    0.132612
    34  N   -0.672385
    35  H    0.352299
    36  C   -0.174276
    37  H    0.152442
    38  C   -0.166509
    39  H    0.157201
    40  C   -0.215242
    41  H    0.155817
    42  N   -0.602015
    43  H    0.358776
    44  C   -0.045756
    45  H    0.158764
    46  C    0.627441
    47  C    0.099969
    48  H    0.179065
    49  O   -0.541274
    50  C   -0.478869
    51  H    0.172898
    52  H    0.188287
    53  H    0.147940
    54  O   -0.621444
    55  H    0.398797
    56  N   -0.585479
    57  H    0.369700
    58  C   -0.043576
    59  H    0.206718
    60  C    0.591904
    61  C   -0.302823
    62  H    0.170243
    63  H    0.148473
    64  O   -0.448481
    65  C   -0.312975
    66  H    0.184961
    67  H    0.168309
    68  C   -0.123333
    69  H    0.136281
    70  H    0.183163
    71  N   -0.612707
    72  H    0.333889
    73  N   -0.838738
    74  H    0.366005
    75  H    0.346072
    76  N   -0.629609
    77  H    0.302458
    78  C    0.607061
    79  O   -0.573026
    80  H    0.429222
    81  H    0.448506
 Sum of Mulliken charges =   1.00000

 Dipole moment (field-independent basis, Debye):
    X=             -5.2773    Y=              8.9825    Z=             -8.1314  Tot=             13.2157
 Quadrupole moment (field-independent basis, Debye-Ang):
   XX=           -175.8592   YY=           -226.5767   ZZ=           -185.8185
   XY=            -11.2278   XZ=             33.9890   YZ=            -41.2463

 Normal termination of Gaussian 16 at Sat May 14 21:09:06 2022.
