 Gaussian 16, Revision C.01,
 Gaussian 16:  ES64L-G16RevC.01  3-Jul-2019

 ----------------------------------------------------------------------
 # B3LYP/6-31G* empiricaldispersion=gd3 guess=read geom=check nosymm in
 tegral(ultrafinegrid)
 ----------------------------------------------------------------------

 ------------------------------------------------------
 Candidate Structure: Conf:308 Charge calc in gas phase
 ------------------------------------------------------
 Structure from the checkpoint file:  "conf-308.chk"
 Charge =  1 Multiplicity = 1

                          Input orientation:
 ---------------------------------------------------------------------
 Center     Atomic      Atomic             Coordinates (Angstroms)
 Number     Number       Type             X           Y           Z
 ---------------------------------------------------------------------
      1          7           0       -4.731143    0.366454    1.356353
      2          1           0       -4.955342    1.260258    0.881150
      3          1           0       -4.602900   -0.362964    0.639060
      4          1           0       -5.530166    0.128282    1.952966
      5          6           0       -3.435038    0.462706    2.153543
      6          1           0       -3.502530    1.389088    2.716945
      7          6           0       -2.355944    0.524172    1.044827
      8          6           0       -3.323556   -0.756208    3.077935
      9          1           0       -4.057728   -0.643116    3.882680
     10          1           0       -3.583984   -1.658043    2.510717
     11          8           0       -2.346431   -0.377251    0.188233
     12          6           0       -1.904136   -0.954967    3.662097
     13          1           0       -1.348677   -1.674294    3.057311
     14          1           0       -1.989917   -1.388700    4.664903
     15          6           0       -1.119452    0.350787    3.820060
     16          8           0       -1.649314    1.383406    4.192260
     17          8           0        0.173145    0.311682    3.495023
     18          7           0       -1.571730    1.603868    1.057496
     19          1           0       -1.574037    2.174755    1.897722
     20          6           0       -0.833263    2.089277   -0.112778
     21          1           0       -1.164693    1.504748   -0.970967
     22          6           0        0.648393    1.792933    0.112851
     23          6           0       -1.240488    3.551235   -0.361939
     24          1           0       -0.614350    3.950044   -1.166139
     25          1           0       -1.019884    4.162844    0.520688
     26          8           0        1.426828    2.595401    0.615452
     27          6           0       -2.707013    3.564368   -0.707033
     28          6           0       -3.248472    3.243761   -1.929314
     29          1           0       -2.739477    3.025932   -2.858486
     30          6           0       -3.808434    3.612773    0.223140
     31          6           0       -4.997073    3.300207   -0.509564
     32          6           0       -3.915425    3.860550    1.605807
     33          1           0       -3.038497    4.134165    2.187225
     34          7           0       -4.618266    3.085482   -1.817025
     35          1           0       -5.249674    2.955280   -2.594058
     36          6           0       -6.319583    3.442191    1.483304
     37          1           0       -7.281350    3.395858    1.985869
     38          6           0       -6.254520    3.210211    0.108030
     39          1           0       -7.149831    2.985718   -0.465975
     40          6           0       -5.160669    3.769011    2.223761
     41          1           0       -5.247854    3.971550    3.287230
     42          7           0        0.964530    0.492382   -0.148667
     43          1           0        0.429304   -0.040945   -0.828734
     44          6           0        2.082862   -0.158125    0.518594
     45          1           0        2.282216    0.427264    1.422270
     46          6           0        3.312172   -0.164797   -0.403515
     47          6           0        1.682871   -1.599579    0.899290
     48          1           0        1.605250   -2.198291   -0.015475
     49          8           0        3.704296   -1.206907   -0.929781
     50          6           0        2.677672   -2.238100    1.853306
     51          1           0        3.656064   -2.305520    1.372601
     52          1           0        2.345058   -3.244692    2.121251
     53          1           0        2.769360   -1.645299    2.771653
     54          8           0        0.393065   -1.596351    1.562856
     55          1           0        0.388039   -0.480909    2.976933
     56          7           0        3.878777    1.045145   -0.645428
     57          1           0        3.434722    1.887960   -0.292572
     58          6           0        4.832270    1.102373   -1.756678
     59          1           0        5.620806    0.364009   -1.559870
     60          6           0        5.518588    2.459242   -1.813968
     61          6           0        4.172000    0.726853   -3.094308
     62          1           0        3.774108   -0.280348   -2.934895
     63          1           0        4.949943    0.647528   -3.860849
     64          8           0        5.991834    2.938305   -2.818427
     65          6           0        3.069290    1.679788   -3.570640
     66          1           0        2.468124    2.040428   -2.723896
     67          1           0        3.526722    2.555016   -4.042891
     68          6           0        2.123262    0.971776   -4.552169
     69          1           0        1.488059    1.684403   -5.087305
     70          1           0        2.688217    0.434110   -5.321040
     71          7           0        1.248219   -0.002845   -3.886664
     72          1           0        1.722822   -0.827877   -3.540226
     73          7           0       -0.330851   -0.557860   -2.241720
     74          1           0       -1.322189   -0.411121   -2.073963
     75          1           0       -0.166106   -1.525356   -2.507059
     76          7           0       -0.484786    1.519074   -3.229603
     77          1           0       -0.028588    2.194265   -3.839619
     78          6           0        0.146262    0.395929   -3.168028
     79          8           0        5.553392    3.066708   -0.605896
     80          1           0        6.024947    3.913656   -0.730226
     81          1           0       -0.276388   -1.265027    0.905504
 ---------------------------------------------------------------------

 SCF Done:  E(RB3LYP) =  -2054.04425893     A.U. after    1 cycles

 Alpha  occ. eigenvalues --  -19.27871 -19.27258 -19.26729 -19.26654 -19.23420
 Alpha  occ. eigenvalues --  -19.21560 -19.21415 -19.20109 -14.60850 -14.49970
 Alpha  occ. eigenvalues --  -14.48877 -14.45898 -14.45268 -14.44065 -14.43772
 Alpha  occ. eigenvalues --  -14.38971 -10.43624 -10.42272 -10.39955 -10.39684
 Alpha  occ. eigenvalues --  -10.38867 -10.38238 -10.37028 -10.34102 -10.33668
 Alpha  occ. eigenvalues --  -10.33660 -10.33542 -10.32147 -10.31895 -10.31791
 Alpha  occ. eigenvalues --  -10.31703 -10.31177 -10.30814 -10.30056 -10.30034
 Alpha  occ. eigenvalues --  -10.29908 -10.29530 -10.29506 -10.28748 -10.26626
 Alpha  occ. eigenvalues --  -10.26132 -10.25809  -1.19640  -1.18562  -1.18089
 Alpha  occ. eigenvalues --   -1.14678  -1.13521  -1.12694  -1.11997  -1.11211
 Alpha  occ. eigenvalues --   -1.09118  -1.08793  -1.08389  -1.06526  -1.01651
 Alpha  occ. eigenvalues --   -1.00544  -0.99296  -0.95301  -0.94561  -0.94421
 Alpha  occ. eigenvalues --   -0.91511  -0.88653  -0.87613  -0.86449  -0.85340
 Alpha  occ. eigenvalues --   -0.84737  -0.83085  -0.82683  -0.79690  -0.78753
 Alpha  occ. eigenvalues --   -0.76555  -0.75655  -0.74538  -0.73209  -0.72509
 Alpha  occ. eigenvalues --   -0.72172  -0.71518  -0.70970  -0.70201  -0.69775
 Alpha  occ. eigenvalues --   -0.68659  -0.68295  -0.67510  -0.66672  -0.66021
 Alpha  occ. eigenvalues --   -0.65583  -0.64601  -0.64470  -0.63952  -0.63452
 Alpha  occ. eigenvalues --   -0.62044  -0.61608  -0.61127  -0.60616  -0.59742
 Alpha  occ. eigenvalues --   -0.59175  -0.58554  -0.57959  -0.57796  -0.57336
 Alpha  occ. eigenvalues --   -0.56033  -0.55958  -0.55877  -0.55623  -0.55290
 Alpha  occ. eigenvalues --   -0.54921  -0.54430  -0.54386  -0.54157  -0.53435
 Alpha  occ. eigenvalues --   -0.52765  -0.52506  -0.52472  -0.52008  -0.51595
 Alpha  occ. eigenvalues --   -0.51171  -0.51033  -0.50799  -0.50078  -0.49878
 Alpha  occ. eigenvalues --   -0.49407  -0.49185  -0.48944  -0.48425  -0.47954
 Alpha  occ. eigenvalues --   -0.47658  -0.47244  -0.47161  -0.46602  -0.46468
 Alpha  occ. eigenvalues --   -0.46341  -0.45598  -0.45406  -0.44942  -0.44815
 Alpha  occ. eigenvalues --   -0.44260  -0.43864  -0.43336  -0.42246  -0.41503
 Alpha  occ. eigenvalues --   -0.41068  -0.40701  -0.40401  -0.39266  -0.38794
 Alpha  occ. eigenvalues --   -0.38722  -0.37409  -0.37145  -0.36941  -0.36521
 Alpha  occ. eigenvalues --   -0.35121  -0.34702  -0.33818  -0.33692  -0.32796
 Alpha  occ. eigenvalues --   -0.32380  -0.31068
 Alpha virt. eigenvalues --   -0.14393  -0.12771  -0.10580  -0.09260  -0.09094
 Alpha virt. eigenvalues --   -0.08447  -0.07288  -0.06327  -0.05491  -0.05000
 Alpha virt. eigenvalues --   -0.04645  -0.04272  -0.03537  -0.02525  -0.01905

 Mulliken charges:
               1
     1  N   -0.763068
     2  H    0.439458
     3  H    0.410905
     4  H    0.412958
     5  C   -0.116191
     6  H    0.241263
     7  C    0.604714
     8  C   -0.270812
     9  H    0.184809
    10  H    0.173524
    11  O   -0.576744
    12  C   -0.413899
    13  H    0.206712
    14  H    0.217232
    15  C    0.596976
    16  O   -0.482094
    17  O   -0.582792
    18  N   -0.554995
    19  H    0.378024
    20  C   -0.075179
    21  H    0.210747
    22  C    0.622349
    23  C   -0.364088
    24  H    0.186520
    25  H    0.177439
    26  O   -0.520530
    27  C    0.045249
    28  C    0.021676
    29  H    0.200233
    30  C    0.068502
    31  C    0.285323
    32  C   -0.239934
    33  H    0.159972
    34  N   -0.679407
    35  H    0.347038
    36  C   -0.181950
    37  H    0.157689
    38  C   -0.209531
    39  H    0.154765
    40  C   -0.164667
    41  H    0.160823
    42  N   -0.678112
    43  H    0.436210
    44  C   -0.081234
    45  H    0.191213
    46  C    0.643980
    47  C    0.113351
    48  H    0.152025
    49  O   -0.540792
    50  C   -0.470737
    51  H    0.198085
    52  H    0.170871
    53  H    0.155428
    54  O   -0.674866
    55  H    0.459532
    56  N   -0.617434
    57  H    0.371938
    58  C   -0.041480
    59  H    0.213991
    60  C    0.577933
    61  C   -0.287339
    62  H    0.164943
    63  H    0.173310
    64  O   -0.453881
    65  C   -0.275004
    66  H    0.139614
    67  H    0.176565
    68  C   -0.178059
    69  H    0.164447
    70  H    0.177409
    71  N   -0.578611
    72  H    0.337242
    73  N   -0.829381
    74  H    0.367253
    75  H    0.343710
    76  N   -0.680349
    77  H    0.298919
    78  C    0.608462
    79  O   -0.561360
    80  H    0.424183
    81  H    0.419007
 Sum of Mulliken charges =   1.00000

 Dipole moment (field-independent basis, Debye):
    X=            -16.1860    Y=              1.0604    Z=             -0.6524  Tot=             16.2338
 Quadrupole moment (field-independent basis, Debye-Ang):
   XX=           -135.1545   YY=           -229.7067   ZZ=           -213.7066
   XY=             -7.2322   XZ=            -17.4925   YZ=            -12.9841

 Normal termination of Gaussian 16 at Sat May 14 21:09:07 2022.
