 Gaussian 16, Revision C.01,
 Gaussian 16:  ES64L-G16RevC.01  3-Jul-2019

 ----------------------------------------------------------------------
 # B3LYP/6-31G* empiricaldispersion=gd3 guess=read geom=check nosymm in
 tegral(ultrafinegrid)
 ----------------------------------------------------------------------

 -----------------------------------------------------
 Candidate Structure: Conf:95 Charge calc in gas phase
 -----------------------------------------------------
 Structure from the checkpoint file:  "conf-95.chk"
 Charge =  1 Multiplicity = 1

                          Input orientation:
 ---------------------------------------------------------------------
 Center     Atomic      Atomic             Coordinates (Angstroms)
 Number     Number       Type             X           Y           Z
 ---------------------------------------------------------------------
      1          7           0       -3.498595    3.221846    4.091553
      2          1           0       -4.231222    2.590375    4.436664
      3          1           0       -2.603717    2.886124    4.479176
      4          1           0       -3.689984    4.167831    4.440612
      5          6           0       -3.371174    3.232421    2.570128
      6          1           0       -4.366954    3.405979    2.155528
      7          6           0       -2.767548    1.882188    2.208344
      8          6           0       -2.387366    4.356530    2.151915
      9          1           0       -2.682802    5.273340    2.682631
     10          1           0       -1.367541    4.094581    2.462450
     11          8           0       -2.034578    1.354799    3.102162
     12          6           0       -2.415315    4.607995    0.654174
     13          1           0       -3.338877    5.104294    0.352835
     14          1           0       -2.335446    3.665959    0.113131
     15          6           0       -1.173351    5.409038    0.143466
     16          8           0       -0.058962    4.924912    0.467807
     17          8           0       -1.446661    6.375935   -0.596024
     18          7           0       -2.915743    1.404841    0.986449
     19          1           0       -3.434135    1.983724    0.319729
     20          6           0       -2.279548    0.212767    0.353217
     21          1           0       -2.766627   -0.684844    0.759454
     22          6           0       -0.782265    0.089176    0.690263
     23          6           0       -2.586962    0.308220   -1.179528
     24          1           0       -3.647432    0.062592   -1.302649
     25          1           0       -2.060961   -0.499135   -1.700201
     26          8           0       -0.284377    0.583537    1.757191
     27          6           0       -2.314519    1.664267   -1.756243
     28          6           0       -1.097967    2.274243   -2.018927
     29          1           0       -0.096356    1.876488   -1.940159
     30          6           0       -3.331823    2.649374   -2.027682
     31          6           0       -2.654276    3.825782   -2.453066
     32          6           0       -4.733256    2.679433   -1.873390
     33          1           0       -5.286750    1.788559   -1.579606
     34          7           0       -1.302368    3.557293   -2.445202
     35          1           0       -0.565279    4.268539   -2.584692
     36          6           0       -4.708944    5.019354   -2.569308
     37          1           0       -5.264975    5.930184   -2.768417
     38          6           0       -3.329468    5.019258   -2.725769
     39          1           0       -2.782021    5.915139   -2.991841
     40          6           0       -5.405181    3.864433   -2.148773
     41          1           0       -6.486223    3.903990   -2.048577
     42          7           0       -0.012859   -0.605735   -0.107379
     43          1           0       -0.375029   -0.968750   -0.983839
     44          6           0        1.448513   -0.711769   -0.001399
     45          1           0        1.774322   -0.091804    0.834706
     46          6           0        1.954191   -0.240973   -1.370184
     47          6           0        1.868890   -2.168281    0.259105
     48          1           0        1.565057   -2.763620   -0.615614
     49          8           0        1.470626   -0.766798   -2.370492
     50          6           0        3.380301   -2.268472    0.459597
     51          1           0        3.938279   -1.898962   -0.407364
     52          1           0        3.667571   -3.313056    0.622022
     53          1           0        3.680478   -1.691872    1.341839
     54          8           0        1.132962   -2.555825    1.415278
     55          1           0        1.427175   -3.442713    1.674204
     56          7           0        2.832261    0.780319   -1.384348
     57          1           0        3.267434    1.070454   -0.518031
     58          6           0        3.464041    1.213716   -2.620159
     59          1           0        2.806677    0.896822   -3.435340
     60          6           0        4.797467    0.482476   -2.783372
     61          6           0        3.602413    2.745793   -2.662559
     62          1           0        4.041743    3.010396   -3.629851
     63          1           0        4.311078    3.083127   -1.893888
     64          8           0        5.272606   -0.275215   -1.966793
     65          6           0        2.243332    3.432519   -2.473571
     66          1           0        1.501099    2.938875   -3.115854
     67          1           0        1.893777    3.320910   -1.439359
     68          6           0        2.287981    4.911951   -2.847807
     69          1           0        3.142498    5.410675   -2.362317
     70          1           0        2.458305    4.980830   -3.925475
     71          7           0        1.023030    5.580323   -2.524450
     72          1           0        0.899401    5.630726   -1.508026
     73          7           0        0.283533    7.790956   -2.275324
     74          1           0       -0.029361    8.625753   -2.753271
     75          1           0       -0.342258    7.428636   -1.551528
     76          7           0        1.168155    7.210684   -4.327105
     77          1           0        1.604274    6.448614   -4.842257
     78          6           0        0.843777    6.874303   -3.130052
     79          8           0        5.377779    0.798967   -3.952754
     80          1           0        6.222504    0.312931   -4.006104
     81          1           0       -1.046314    0.881242    2.501386
 ---------------------------------------------------------------------

 SCF Done:  E(RB3LYP) =  -2053.94752429     A.U. after    1 cycles

 Alpha  occ. eigenvalues --  -19.33334 -19.32531 -19.28676 -19.25340 -19.23431
 Alpha  occ. eigenvalues --  -19.23263 -19.13438 -19.13214 -14.64640 -14.56220
 Alpha  occ. eigenvalues --  -14.53720 -14.47961 -14.45185 -14.38737 -14.34560
 Alpha  occ. eigenvalues --  -14.30632 -10.49795 -10.47903 -10.44026 -10.41845
 Alpha  occ. eigenvalues --  -10.41238 -10.40827 -10.36462 -10.35439 -10.34037
 Alpha  occ. eigenvalues --  -10.33499 -10.33416 -10.32102 -10.31186 -10.30322
 Alpha  occ. eigenvalues --  -10.29531 -10.28224 -10.28068 -10.27517 -10.27517
 Alpha  occ. eigenvalues --  -10.27448 -10.27372 -10.26566 -10.26479 -10.26301
 Alpha  occ. eigenvalues --  -10.26115 -10.25915  -1.26615  -1.23053  -1.19726
 Alpha  occ. eigenvalues --   -1.18542  -1.15934  -1.13088  -1.12621  -1.10888
 Alpha  occ. eigenvalues --   -1.10054  -1.06780  -1.05902  -1.04430  -0.99768
 Alpha  occ. eigenvalues --   -0.98212  -0.97462  -0.94430  -0.92147  -0.91682
 Alpha  occ. eigenvalues --   -0.91112  -0.88532  -0.87675  -0.85950  -0.85751
 Alpha  occ. eigenvalues --   -0.83459  -0.82360  -0.81650  -0.81175  -0.79875
 Alpha  occ. eigenvalues --   -0.79073  -0.78332  -0.77752  -0.77379  -0.74105
 Alpha  occ. eigenvalues --   -0.73673  -0.72834  -0.72600  -0.70862  -0.70358
 Alpha  occ. eigenvalues --   -0.69876  -0.69819  -0.68548  -0.67380  -0.67085
 Alpha  occ. eigenvalues --   -0.66848  -0.65940  -0.64248  -0.64066  -0.63021
 Alpha  occ. eigenvalues --   -0.61676  -0.60799  -0.60646  -0.60224  -0.59498
 Alpha  occ. eigenvalues --   -0.58874  -0.58487  -0.58160  -0.57288  -0.57207
 Alpha  occ. eigenvalues --   -0.56856  -0.56267  -0.56172  -0.55645  -0.55484
 Alpha  occ. eigenvalues --   -0.55155  -0.54691  -0.54298  -0.53525  -0.53424
 Alpha  occ. eigenvalues --   -0.52999  -0.52844  -0.51637  -0.51377  -0.51069
 Alpha  occ. eigenvalues --   -0.51008  -0.50699  -0.50355  -0.49664  -0.49394
 Alpha  occ. eigenvalues --   -0.48679  -0.48416  -0.48272  -0.48107  -0.47625
 Alpha  occ. eigenvalues --   -0.47295  -0.47047  -0.46743  -0.46514  -0.45756
 Alpha  occ. eigenvalues --   -0.45515  -0.44747  -0.44548  -0.43969  -0.43716
 Alpha  occ. eigenvalues --   -0.43076  -0.42814  -0.42723  -0.41858  -0.41461
 Alpha  occ. eigenvalues --   -0.41142  -0.40985  -0.40659  -0.39243  -0.38411
 Alpha  occ. eigenvalues --   -0.37530  -0.36999  -0.36287  -0.36126  -0.30734
 Alpha  occ. eigenvalues --   -0.29575  -0.29155  -0.28953  -0.28371  -0.28135
 Alpha  occ. eigenvalues --   -0.27469  -0.24656
 Alpha virt. eigenvalues --   -0.19128  -0.16484  -0.14072  -0.10064  -0.09544
 Alpha virt. eigenvalues --   -0.08683  -0.08208  -0.07877  -0.06997  -0.06092
 Alpha virt. eigenvalues --   -0.05906  -0.03977  -0.03145  -0.02649  -0.02353

 Mulliken charges:
               1
     1  N   -0.727177
     2  H    0.424399
     3  H    0.437551
     4  H    0.430544
     5  C   -0.132789
     6  H    0.231235
     7  C    0.668020
     8  C   -0.295722
     9  H    0.174181
    10  H    0.201926
    11  O   -0.618046
    12  C   -0.367012
    13  H    0.166797
    14  H    0.145428
    15  C    0.599062
    16  O   -0.612733
    17  O   -0.577374
    18  N   -0.597693
    19  H    0.396142
    20  C   -0.051961
    21  H    0.230623
    22  C    0.676016
    23  C   -0.454591
    24  H    0.199456
    25  H    0.192808
    26  O   -0.578467
    27  C    0.011010
    28  C    0.019580
    29  H    0.161807
    30  C    0.063755
    31  C    0.291044
    32  C   -0.248178
    33  H    0.114958
    34  N   -0.679339
    35  H    0.409792
    36  C   -0.161603
    37  H    0.149994
    38  C   -0.124015
    39  H    0.184754
    40  C   -0.138023
    41  H    0.135805
    42  N   -0.550652
    43  H    0.386687
    44  C   -0.091075
    45  H    0.202749
    46  C    0.642817
    47  C    0.145160
    48  H    0.154258
    49  O   -0.531881
    50  C   -0.503293
    51  H    0.204676
    52  H    0.168844
    53  H    0.163660
    54  O   -0.639020
    55  H    0.411782
    56  N   -0.581344
    57  H    0.350832
    58  C   -0.079762
    59  H    0.221338
    60  C    0.599914
    61  C   -0.293974
    62  H    0.188198
    63  H    0.155335
    64  O   -0.459582
    65  C   -0.290592
    66  H    0.144676
    67  H    0.160116
    68  C   -0.121838
    69  H    0.151803
    70  H    0.148239
    71  N   -0.676360
    72  H    0.364101
    73  N   -0.780332
    74  H    0.323850
    75  H    0.380670
    76  N   -0.644066
    77  H    0.264690
    78  C    0.570235
    79  O   -0.551469
    80  H    0.430151
    81  H    0.508496
 Sum of Mulliken charges =   1.00000

 Dipole moment (field-independent basis, Debye):
    X=            -11.6331    Y=             -1.4902    Z=             15.1426  Tot=             19.1533
 Quadrupole moment (field-independent basis, Debye-Ang):
   XX=           -143.4078   YY=           -278.7776   ZZ=           -189.3681
   XY=            -50.6085   XZ=            -68.2208   YZ=             64.2733

 Normal termination of Gaussian 16 at Sat May 14 21:09:03 2022.
