 Gaussian 16, Revision C.01,
 Gaussian 16:  ES64L-G16RevC.01  3-Jul-2019

 ----------------------------------------------------------------------
 # B3LYP/6-31G* empiricaldispersion=gd3 guess=read geom=check nosymm in
 tegral(ultrafinegrid)
 ----------------------------------------------------------------------

 ------------------------------------------------------
 Candidate Structure: Conf:102 Charge calc in gas phase
 ------------------------------------------------------
 Structure from the checkpoint file:  "conf-102.chk"
 Charge =  1 Multiplicity = 1

                          Input orientation:
 ---------------------------------------------------------------------
 Center     Atomic      Atomic             Coordinates (Angstroms)
 Number     Number       Type             X           Y           Z
 ---------------------------------------------------------------------
      1          7           0       -4.187178    0.334392    3.654368
      2          1           0       -4.991161   -0.217937    3.334984
      3          1           0       -3.428345   -0.325168    3.917541
      4          1           0       -4.469962    0.882739    4.473717
      5          6           0       -3.577872    1.199773    2.546834
      6          1           0       -4.398697    1.641745    1.975912
      7          6           0       -2.767357    0.165428    1.734052
      8          6           0       -2.699743    2.254899    3.240636
      9          1           0       -3.356097    3.005204    3.693665
     10          1           0       -2.147093    1.754682    4.039891
     11          8           0       -2.079688   -0.659620    2.353278
     12          6           0       -1.666609    2.915114    2.295531
     13          1           0       -1.686731    4.003607    2.399055
     14          1           0       -1.855923    2.705694    1.236828
     15          6           0       -0.216528    2.447445    2.517323
     16          8           0        0.668136    2.709553    1.734410
     17          8           0       -0.074527    1.695246    3.620552
     18          7           0       -2.903975    0.249850    0.412596
     19          1           0       -3.503513    0.971571    0.021285
     20          6           0       -2.063954   -0.505132   -0.530897
     21          1           0       -2.143994   -1.560474   -0.249418
     22          6           0       -0.639135    0.050298   -0.334880
     23          6           0       -2.521506   -0.276558   -1.997868
     24          1           0       -2.130060   -1.104964   -2.595763
     25          1           0       -2.024028    0.632620   -2.352240
     26          8           0       -0.411991    1.219329   -0.641945
     27          6           0       -4.002701   -0.134592   -2.165806
     28          6           0       -4.935346   -1.086955   -2.494347
     29          1           0       -4.795294   -2.125785   -2.760966
     30          6           0       -4.732927    1.086375   -1.925880
     31          6           0       -6.112618    0.796890   -2.109833
     32          6           0       -4.344441    2.392621   -1.560639
     33          1           0       -3.289674    2.651848   -1.473939
     34          7           0       -6.201854   -0.536299   -2.456176
     35          1           0       -7.046795   -1.007729   -2.742316
     36          6           0       -6.695361    3.043177   -1.553969
     37          1           0       -7.442080    3.818859   -1.413580
     38          6           0       -7.103512    1.767051   -1.931389
     39          1           0       -8.154018    1.536989   -2.084909
     40          6           0       -5.332060    3.355339   -1.370783
     41          1           0       -5.049898    4.370867   -1.108309
     42          7           0        0.259034   -0.765808    0.252484
     43          1           0        0.046483   -1.749431    0.362494
     44          6           0        1.602309   -0.312332    0.636184
     45          1           0        1.533057    0.768215    0.791795
     46          6           0        2.555706   -0.631775   -0.529238
     47          6           0        1.992359   -0.976759    1.961005
     48          1           0        2.052028   -2.063987    1.810551
     49          8           0        3.252630   -1.639785   -0.548953
     50          6           0        3.324187   -0.464648    2.482152
     51          1           0        4.121989   -0.735331    1.786710
     52          1           0        3.537544   -0.911896    3.456980
     53          1           0        3.298608    0.625771    2.593364
     54          8           0        1.003487   -0.690224    2.973209
     55          1           0        0.685724    1.067030    3.462992
     56          7           0        2.449545    0.265684   -1.541417
     57          1           0        1.799297    1.036463   -1.427622
     58          6           0        3.050916    0.067401   -2.848241
     59          1           0        3.526798   -0.921051   -2.816763
     60          6           0        4.177611    1.060488   -3.147546
     61          6           0        1.983157    0.100326   -3.954685
     62          1           0        2.487815    0.075327   -4.923722
     63          1           0        1.452462    1.060983   -3.916507
     64          8           0        4.575848    1.302711   -4.263081
     65          6           0        0.985743   -1.057383   -3.828537
     66          1           0        1.509601   -2.011074   -3.988051
     67          1           0        0.590013   -1.097992   -2.803392
     68          6           0       -0.205972   -0.957470   -4.793978
     69          1           0       -0.893446   -1.794570   -4.610556
     70          1           0       -0.761615   -0.037494   -4.593154
     71          7           0        0.143883   -0.973231   -6.214926
     72          1           0        0.660232   -1.803452   -6.484926
     73          7           0       -0.064287    1.341015   -6.513842
     74          1           0        0.251557    2.109210   -7.096959
     75          1           0       -1.074888    1.245606   -6.550412
     76          7           0        1.560001    0.233548   -7.741033
     77          1           0        2.071930   -0.648250   -7.808662
     78          6           0        0.617775    0.170857   -6.875274
     79          8           0        4.702760    1.609165   -2.030927
     80          1           0        5.433049    2.184717   -2.328483
     81          1           0        0.123048   -0.921408    2.646183
 ---------------------------------------------------------------------

 SCF Done:  E(RB3LYP) =  -2054.00483710     A.U. after    1 cycles

 Alpha  occ. eigenvalues --  -19.28304 -19.27784 -19.25613 -19.24991 -19.23017
 Alpha  occ. eigenvalues --  -19.22864 -19.19719 -19.19235 -14.63492 -14.51680
 Alpha  occ. eigenvalues --  -14.48442 -14.48061 -14.43455 -14.40595 -14.39103
 Alpha  occ. eigenvalues --  -14.33476 -10.45264 -10.42735 -10.41578 -10.40296
 Alpha  occ. eigenvalues --  -10.37938 -10.36561 -10.36547 -10.34626 -10.33077
 Alpha  occ. eigenvalues --  -10.32960 -10.32605 -10.32355 -10.32069 -10.31944
 Alpha  occ. eigenvalues --  -10.30873 -10.30522 -10.29197 -10.29189 -10.29111
 Alpha  occ. eigenvalues --  -10.29051 -10.29004 -10.28561 -10.28512 -10.25872
 Alpha  occ. eigenvalues --  -10.25223 -10.24974  -1.20692  -1.19037  -1.16901
 Alpha  occ. eigenvalues --   -1.16481  -1.15185  -1.12078  -1.11041  -1.10320
 Alpha  occ. eigenvalues --   -1.08469  -1.08066  -1.07447  -1.03808  -1.02602
 Alpha  occ. eigenvalues --   -1.00276  -0.95967  -0.94279  -0.94094  -0.92114
 Alpha  occ. eigenvalues --   -0.89280  -0.88883  -0.87554  -0.86349  -0.85727
 Alpha  occ. eigenvalues --   -0.83864  -0.82505  -0.81489  -0.80123  -0.79572
 Alpha  occ. eigenvalues --   -0.76979  -0.76598  -0.74616  -0.74271  -0.73956
 Alpha  occ. eigenvalues --   -0.72493  -0.71155  -0.70258  -0.69473  -0.69074
 Alpha  occ. eigenvalues --   -0.68407  -0.67604  -0.66512  -0.66122  -0.65975
 Alpha  occ. eigenvalues --   -0.65297  -0.65053  -0.64431  -0.63748  -0.62669
 Alpha  occ. eigenvalues --   -0.60874  -0.60259  -0.60002  -0.59489  -0.58978
 Alpha  occ. eigenvalues --   -0.58619  -0.58056  -0.57656  -0.57306  -0.56709
 Alpha  occ. eigenvalues --   -0.55930  -0.55429  -0.55080  -0.54487  -0.54103
 Alpha  occ. eigenvalues --   -0.53989  -0.53682  -0.53145  -0.52996  -0.52840
 Alpha  occ. eigenvalues --   -0.52667  -0.52190  -0.51721  -0.51155  -0.51063
 Alpha  occ. eigenvalues --   -0.50685  -0.50080  -0.49963  -0.49607  -0.49395
 Alpha  occ. eigenvalues --   -0.49356  -0.48979  -0.48581  -0.47719  -0.47508
 Alpha  occ. eigenvalues --   -0.46942  -0.46812  -0.46328  -0.45965  -0.45480
 Alpha  occ. eigenvalues --   -0.45378  -0.44739  -0.44016  -0.43836  -0.43717
 Alpha  occ. eigenvalues --   -0.43246  -0.42929  -0.42649  -0.42260  -0.41988
 Alpha  occ. eigenvalues --   -0.41078  -0.40490  -0.40442  -0.38044  -0.37913
 Alpha  occ. eigenvalues --   -0.37654  -0.37539  -0.36799  -0.36059  -0.35219
 Alpha  occ. eigenvalues --   -0.32758  -0.32402  -0.31633  -0.31548  -0.30881
 Alpha  occ. eigenvalues --   -0.30615  -0.27846
 Alpha virt. eigenvalues --   -0.15565  -0.12929  -0.11898  -0.10279  -0.09059
 Alpha virt. eigenvalues --   -0.08220  -0.07886  -0.06093  -0.05711  -0.04988
 Alpha virt. eigenvalues --   -0.04949  -0.04457  -0.03392  -0.02833  -0.01579

 Mulliken charges:
               1
     1  N   -0.739873
     2  H    0.422641
     3  H    0.430489
     4  H    0.423362
     5  C   -0.134324
     6  H    0.220298
     7  C    0.652078
     8  C   -0.294467
     9  H    0.178968
    10  H    0.215758
    11  O   -0.554978
    12  C   -0.404256
    13  H    0.215415
    14  H    0.205573
    15  C    0.597924
    16  O   -0.439126
    17  O   -0.596886
    18  N   -0.599920
    19  H    0.377043
    20  C   -0.030672
    21  H    0.169165
    22  C    0.628608
    23  C   -0.417655
    24  H    0.184773
    25  H    0.209639
    26  O   -0.525598
    27  C    0.063901
    28  C    0.005284
    29  H    0.172486
    30  C    0.042060
    31  C    0.319649
    32  C   -0.272965
    33  H    0.165380
    34  N   -0.687422
    35  H    0.346813
    36  C   -0.155066
    37  H    0.152076
    38  C   -0.159962
    39  H    0.150591
    40  C   -0.144817
    41  H    0.146909
    42  N   -0.618852
    43  H    0.344615
    44  C   -0.119439
    45  H    0.230004
    46  C    0.639821
    47  C    0.115635
    48  H    0.154021
    49  O   -0.520146
    50  C   -0.475032
    51  H    0.196526
    52  H    0.174293
    53  H    0.161129
    54  O   -0.668466
    55  H    0.448281
    56  N   -0.599468
    57  H    0.360579
    58  C   -0.072379
    59  H    0.213832
    60  C    0.594414
    61  C   -0.279130
    62  H    0.199350
    63  H    0.157231
    64  O   -0.447167
    65  C   -0.271075
    66  H    0.143773
    67  H    0.114745
    68  C   -0.150132
    69  H    0.134296
    70  H    0.160675
    71  N   -0.581492
    72  H    0.312010
    73  N   -0.739644
    74  H    0.343604
    75  H    0.318886
    76  N   -0.616658
    77  H    0.268942
    78  C    0.548004
    79  O   -0.560417
    80  H    0.419540
    81  H    0.426395
 Sum of Mulliken charges =   1.00000

 Dipole moment (field-independent basis, Debye):
    X=            -24.6556    Y=             -0.2393    Z=             10.4139  Tot=             26.7658
 Quadrupole moment (field-independent basis, Debye-Ang):
   XX=           -119.6485   YY=           -223.2041   ZZ=           -212.4801
   XY=             -5.9008   XZ=            -22.9015   YZ=             23.5781

 Normal termination of Gaussian 16 at Sat May 14 21:09:02 2022.
