 Gaussian 16, Revision C.01,
 Gaussian 16:  ES64L-G16RevC.01  3-Jul-2019

 ----------------------------------------------------------------------
 # B3LYP/6-31G* empiricaldispersion=gd3 guess=read geom=check nosymm in
 tegral(ultrafinegrid)
 ----------------------------------------------------------------------

 ------------------------------------------------------
 Candidate Structure: Conf:602 Charge calc in gas phase
 ------------------------------------------------------
 Structure from the checkpoint file:  "conf-602.chk"
 Charge =  1 Multiplicity = 1

                          Input orientation:
 ---------------------------------------------------------------------
 Center     Atomic      Atomic             Coordinates (Angstroms)
 Number     Number       Type             X           Y           Z
 ---------------------------------------------------------------------
      1          7           0       -3.766252   -1.279719    4.183434
      2          1           0       -4.443591   -1.909389    3.758407
      3          1           0       -2.879103   -1.775772    4.261243
      4          1           0       -3.899060   -0.781062    5.939550
      5          6           0       -3.608670   -0.041610    3.434003
      6          1           0       -4.605701    0.370845    3.242694
      7          6           0       -2.897117   -0.201463    2.096888
      8          6           0       -2.802561    1.007781    4.244741
      9          1           0       -1.854061    0.555859    4.559658
     10          1           0       -2.537324    1.826292    3.567351
     11          8           0       -1.889345   -1.009216    2.112560
     12          6           0       -3.572043    1.588124    5.454152
     13          1           0       -4.647029    1.624567    5.229752
     14          1           0       -3.246961    2.616607    5.622387
     15          6           0       -3.367855    0.871647    6.798304
     16          8           0       -3.007295    1.469452    7.782438
     17          8           0       -3.622948   -0.447995    6.828715
     18          7           0       -3.321904    0.520696    1.088146
     19          1           0       -4.171419    1.058405    1.275188
     20          6           0       -2.692437    0.854230   -0.198725
     21          1           0       -2.945115    0.069687   -0.920547
     22          6           0       -1.177710    0.981902    0.020471
     23          6           0       -3.259999    2.227274   -0.690041
     24          1           0       -2.970673    2.335310   -1.740052
     25          1           0       -2.740956    3.011935   -0.128419
     26          8           0       -0.747451    1.525828    1.028306
     27          6           0       -4.740354    2.359332   -0.504597
     28          6           0       -5.742485    2.029509   -1.388593
     29          1           0       -5.674721    1.688768   -2.412887
     30          6           0       -5.392831    2.774150    0.718983
     31          6           0       -6.793569    2.655490    0.504800
     32          6           0       -4.927247    3.228647    1.971443
     33          1           0       -3.863643    3.372585    2.147878
     34          7           0       -6.968235    2.206188   -0.788838
     35          1           0       -7.859709    2.083424   -1.246378
     36          6           0       -7.239871    3.387258    2.729355
     37          1           0       -7.939185    3.633030    3.522423
     38          6           0       -7.728235    2.960312    1.499928
     39          1           0       -8.795257    2.868500    1.319939
     40          6           0       -5.854415    3.524341    2.963572
     41          1           0       -5.511672    3.887695    3.927716
     42          7           0       -0.394944    0.462044   -0.964843
     43          1           0       -0.843888   -0.171858   -1.615254
     44          6           0        1.002610    0.149833   -0.671685
     45          1           0        1.415657    1.021196   -0.154265
     46          6           0        1.817195   -0.032114   -1.971673
     47          6           0        1.139780   -1.092578    0.262198
     48          1           0        1.830110   -1.788928   -0.219928
     49          8           0        2.766397   -0.806430   -2.015214
     50          6           0        1.615515   -0.745734    1.664650
     51          1           0        2.615649   -0.302234    1.611880
     52          1           0        1.685414   -1.645942    2.285294
     53          1           0        0.944128   -0.025611    2.140269
     54          8           0       -0.178258   -1.744380    0.309538
     55          1           0       -0.031752   -2.669446    0.568163
     56          7           0        1.422008    0.741202   -3.006865
     57          1           0        0.680749    1.424776   -2.899581
     58          6           0        2.161792    0.783705   -4.263803
     59          1           0        3.234879    0.825238   -4.046846
     60          6           0        1.737535    2.069864   -4.959894
     61          6           0        1.878564   -0.471147   -5.127660
     62          1           0        0.827983   -0.446798   -5.448451
     63          1           0        1.992177   -1.327422   -4.453452
     64          8           0        0.736681    2.696038   -4.672452
     65          6           0        2.812113   -0.652867   -6.328459
     66          1           0        2.712073    0.176923   -7.035421
     67          1           0        3.855199   -0.639865   -5.985061
     68          6           0        2.539268   -1.979348   -7.054303
     69          1           0        2.644529   -2.814801   -6.354385
     70          1           0        1.501592   -1.989852   -7.415346
     71          7           0        3.439247   -2.200473   -8.183742
     72          1           0        3.048207   -2.015475   -9.096886
     73          7           0        4.948855   -3.458167   -6.917968
     74          1           0        5.723901   -4.107816   -6.999820
     75          1           0        5.217955   -2.630728   -6.394430
     76          7           0        4.885187   -3.819589   -9.207664
     77          1           0        4.327268   -3.640527  -10.044915
     78          6           0        4.431915   -3.182291   -8.191181
     79          8           0        2.583349    2.418451   -5.939750
     80          1           0        2.234128    3.229855   -6.357203
     81          1           0       -1.275818   -1.145791    1.304514
 ---------------------------------------------------------------------

 SCF Done:  E(RB3LYP) =  -2053.98792097     A.U. after    1 cycles

 Alpha  occ. eigenvalues --  -19.35891 -19.31873 -19.29864 -19.26298 -19.24435
 Alpha  occ. eigenvalues --  -19.24121 -19.22383 -19.18884 -14.54866 -14.50488
 Alpha  occ. eigenvalues --  -14.49596 -14.47321 -14.46672 -14.40264 -14.38609
 Alpha  occ. eigenvalues --  -14.32659 -10.48376 -10.43385 -10.42411 -10.39916
 Alpha  occ. eigenvalues --  -10.39476 -10.38075 -10.37896 -10.37127 -10.36036
 Alpha  occ. eigenvalues --  -10.33932 -10.33854 -10.33437 -10.33262 -10.32495
 Alpha  occ. eigenvalues --  -10.31862 -10.30509 -10.30248 -10.30016 -10.29729
 Alpha  occ. eigenvalues --  -10.29243 -10.29109 -10.29059 -10.28884 -10.28625
 Alpha  occ. eigenvalues --  -10.28095 -10.25974  -1.26100  -1.20950  -1.18711
 Alpha  occ. eigenvalues --   -1.17603  -1.15221  -1.14481  -1.12189  -1.12027
 Alpha  occ. eigenvalues --   -1.09504  -1.07161  -1.06998  -1.04450  -1.03114
 Alpha  occ. eigenvalues --   -1.02109  -0.95670  -0.94783  -0.93573  -0.91283
 Alpha  occ. eigenvalues --   -0.90848  -0.89252  -0.88973  -0.88264  -0.85250
 Alpha  occ. eigenvalues --   -0.84660  -0.84140  -0.82959  -0.81706  -0.79913
 Alpha  occ. eigenvalues --   -0.79305  -0.75711  -0.75187  -0.74370  -0.73986
 Alpha  occ. eigenvalues --   -0.73414  -0.72423  -0.71577  -0.70333  -0.69040
 Alpha  occ. eigenvalues --   -0.68953  -0.67644  -0.67117  -0.66913  -0.66186
 Alpha  occ. eigenvalues --   -0.66005  -0.65062  -0.65044  -0.64440  -0.62797
 Alpha  occ. eigenvalues --   -0.61287  -0.60627  -0.60016  -0.59715  -0.59525
 Alpha  occ. eigenvalues --   -0.59352  -0.59141  -0.58544  -0.58077  -0.57654
 Alpha  occ. eigenvalues --   -0.56905  -0.56561  -0.56451  -0.56061  -0.55479
 Alpha  occ. eigenvalues --   -0.55361  -0.54628  -0.54312  -0.54184  -0.53743
 Alpha  occ. eigenvalues --   -0.53613  -0.53296  -0.52988  -0.52876  -0.52329
 Alpha  occ. eigenvalues --   -0.52065  -0.51642  -0.51126  -0.50978  -0.50412
 Alpha  occ. eigenvalues --   -0.49831  -0.49677  -0.49588  -0.49296  -0.48986
 Alpha  occ. eigenvalues --   -0.48713  -0.48585  -0.47775  -0.47233  -0.46853
 Alpha  occ. eigenvalues --   -0.46397  -0.45783  -0.45603  -0.45494  -0.45054
 Alpha  occ. eigenvalues --   -0.44720  -0.44326  -0.43813  -0.43745  -0.42908
 Alpha  occ. eigenvalues --   -0.42256  -0.41511  -0.40794  -0.40360  -0.39698
 Alpha  occ. eigenvalues --   -0.39348  -0.38905  -0.38169  -0.36791  -0.36299
 Alpha  occ. eigenvalues --   -0.35946  -0.33643  -0.32533  -0.31890  -0.31199
 Alpha  occ. eigenvalues --   -0.30202  -0.26927
 Alpha virt. eigenvalues --   -0.17440  -0.13782  -0.12449  -0.09698  -0.09074
 Alpha virt. eigenvalues --   -0.08859  -0.07694  -0.06003  -0.05415  -0.04567
 Alpha virt. eigenvalues --   -0.04470  -0.02791  -0.02388  -0.01861  -0.01723

 Mulliken charges:
               1
     1  N   -0.747771
     2  H    0.342009
     3  H    0.351262
     4  H    0.450475
     5  C   -0.080641
     6  H    0.192694
     7  C    0.643826
     8  C   -0.296321
     9  H    0.186672
    10  H    0.184238
    11  O   -0.596027
    12  C   -0.389569
    13  H    0.172070
    14  H    0.197579
    15  C    0.582992
    16  O   -0.431323
    17  O   -0.589351
    18  N   -0.585250
    19  H    0.397952
    20  C   -0.029733
    21  H    0.181453
    22  C    0.574711
    23  C   -0.392209
    24  H    0.190960
    25  H    0.205552
    26  O   -0.497404
    27  C    0.034909
    28  C    0.020528
    29  H    0.176499
    30  C    0.021000
    31  C    0.327401
    32  C   -0.246538
    33  H    0.151084
    34  N   -0.680231
    35  H    0.352445
    36  C   -0.151716
    37  H    0.162202
    38  C   -0.152671
    39  H    0.157762
    40  C   -0.141583
    41  H    0.157355
    42  N   -0.604818
    43  H    0.347260
    44  C   -0.075783
    45  H    0.229467
    46  C    0.598940
    47  C    0.095560
    48  H    0.213459
    49  O   -0.510942
    50  C   -0.487956
    51  H    0.189876
    52  H    0.160463
    53  H    0.185648
    54  O   -0.677941
    55  H    0.436711
    56  N   -0.625987
    57  H    0.358055
    58  C   -0.017929
    59  H    0.202733
    60  C    0.581831
    61  C   -0.281705
    62  H    0.139373
    63  H    0.178601
    64  O   -0.472471
    65  C   -0.258067
    66  H    0.158503
    67  H    0.144599
    68  C   -0.145380
    69  H    0.179693
    70  H    0.138848
    71  N   -0.597266
    72  H    0.316646
    73  N   -0.742674
    74  H    0.342304
    75  H    0.319029
    76  N   -0.629468
    77  H    0.264277
    78  C    0.559527
    79  O   -0.546705
    80  H    0.429071
    81  H    0.497325
 Sum of Mulliken charges =   1.00000

 Dipole moment (field-independent basis, Debye):
    X=            -16.1961    Y=              1.8749    Z=             -6.3123  Tot=             17.4836
 Quadrupole moment (field-independent basis, Debye-Ang):
   XX=           -144.8491   YY=           -236.7839   ZZ=           -265.0093
   XY=              1.2167   XZ=             17.9802   YZ=            -39.9642

 Normal termination of Gaussian 16 at Sat May 14 21:09:01 2022.
