 Gaussian 16, Revision C.01,
 Gaussian 16:  ES64L-G16RevC.01  3-Jul-2019

 ----------------------------------------------------------------------
 # B3LYP/6-31G* empiricaldispersion=gd3 guess=read geom=check nosymm in
 tegral(ultrafinegrid)
 ----------------------------------------------------------------------

 ------------------------------------------------------
 Candidate Structure: Conf:472 Charge calc in gas phase
 ------------------------------------------------------
 Structure from the checkpoint file:  "conf-472.chk"
 Charge =  1 Multiplicity = 1

                          Input orientation:
 ---------------------------------------------------------------------
 Center     Atomic      Atomic             Coordinates (Angstroms)
 Number     Number       Type             X           Y           Z
 ---------------------------------------------------------------------
      1          7           0       -3.090176   -0.585852    4.409747
      2          1           0       -3.878104   -1.174741    4.115623
      3          1           0       -2.242955   -1.171794    4.379204
      4          1           0       -3.260420   -0.275113    5.373172
      5          6           0       -2.882342    0.599255    3.466569
      6          1           0       -3.862638    1.048711    3.302298
      7          6           0       -2.315762    0.076699    2.153207
      8          6           0       -1.915213    1.595858    4.136915
      9          1           0       -2.348089    1.912686    5.095535
     10          1           0       -0.964477    1.087582    4.340554
     11          8           0       -1.552497   -1.014801    2.393350
     12          6           0       -1.641967    2.852984    3.281911
     13          1           0       -1.126106    2.580018    2.356094
     14          1           0       -0.985033    3.508274    3.857150
     15          6           0       -2.936045    3.633952    3.024758
     16          8           0       -3.708547    3.201104    2.000994
     17          8           0       -3.292707    4.540930    3.733913
     18          7           0       -2.562247    0.772450    1.123855
     19          1           0       -3.306897    2.431210    1.524988
     20          6           0       -1.906318    0.619991   -0.176135
     21          1           0       -2.341911   -0.248717   -0.686895
     22          6           0       -0.407864    0.432600    0.051407
     23          6           0       -2.155190    1.880959   -1.033056
     24          1           0       -1.481325    1.822152   -1.899579
     25          1           0       -1.833585    2.753658   -0.455427
     26          8           0        0.282196    1.301144    0.578225
     27          6           0       -3.570986    2.001275   -1.490511
     28          6           0       -4.506414    2.934659   -1.111892
     29          1           0       -4.421098    3.747013   -0.403534
     30          6           0       -4.207710    1.144140   -2.458184
     31          6           0       -5.535352    1.620885   -2.627884
     32          6           0       -3.782676    0.032836   -3.207546
     33          1           0       -2.771854   -0.353962   -3.102086
     34          7           0       -5.688197    2.703446   -1.782970
     35          1           0       -6.507946    3.288403   -1.727870
     36          6           0       -5.977509   -0.059523   -4.260433
     37          1           0       -6.644029   -0.533609   -4.974369
     38          6           0       -6.430070    1.030365   -3.525106
     39          1           0       -7.438108    1.414589   -3.652501
     40          6           0       -4.667161   -0.556567   -4.103362
     41          1           0       -4.346711   -1.406933   -4.698318
     42          7           0        0.062163   -0.800064   -0.274515
     43          1           0       -0.502659   -1.407666   -0.855923
     44          6           0        1.449838   -1.197651   -0.045628
     45          1           0        1.826427   -0.548258    0.750110
     46          6           0        2.222439   -0.962818   -1.360429
     47          6           0        1.467298   -2.649487    0.426254
     48          1           0        1.128539   -3.289657   -0.400354
     49          8           0        2.511847   -1.886365   -2.113260
     50          6           0        2.848046   -3.095026    0.885223
     51          1           0        3.546796   -3.053582    0.045368
     52          1           0        2.819695   -4.129712    1.245962
     53          1           0        3.212536   -2.454549    1.695531
     54          8           0        0.500685   -2.688090    1.502945
     55          1           0        0.499301   -3.584755    1.871893
     56          7           0        2.413530    0.351398   -1.625282
     57          1           0        2.174624    1.049178   -0.926743
     58          6           0        2.836036    0.849255   -2.923946
     59          1           0        3.396912    0.057086   -3.427000
     60          6           0        3.738475    2.053922   -2.693836
     61          6           0        1.626749    1.276381   -3.793569
     62          1           0        1.995257    1.755898   -4.705367
     63          1           0        1.063696    2.042546   -3.241552
     64          8           0        3.777811    2.691298   -1.664878
     65          6           0        0.699199    0.109669   -4.151710
     66          1           0        1.233138   -0.607718   -4.789018
     67          1           0        0.425881   -0.444131   -3.245656
     68          6           0       -0.599327    0.557362   -4.826402
     69          1           0       -1.247425   -0.320737   -4.991712
     70          1           0       -1.148163    1.225569   -4.150948
     71          7           0       -0.353314    1.293473   -6.052933
     72          1           0        0.276203    0.822584   -6.696053
     73          7           0       -1.049044    2.426908   -7.946382
     74          1           0       -1.807604    2.949791   -8.369624
     75          1           0       -0.189659    2.965542   -7.914738
     76          7           0       -2.656717    1.988130   -6.327478
     77          1           0       -2.858463    1.427487   -5.500028
     78          6           0       -1.439258    1.894388   -6.714618
     79          8           0        4.441824    2.356215   -3.800983
     80          1           0        4.958059    3.162105   -3.606880
     81          1           0       -0.944680   -1.357536    1.688460
 ---------------------------------------------------------------------

 SCF Done:  E(RB3LYP) =  -2053.98018331     A.U. after    1 cycles

 Alpha  occ. eigenvalues --  -19.34199 -19.27797 -19.27730 -19.27183 -19.24212
 Alpha  occ. eigenvalues --  -19.22229 -19.21833 -19.21026 -14.63965 -14.49304
 Alpha  occ. eigenvalues --  -14.47589 -14.45308 -14.45007 -14.40462 -14.38342
 Alpha  occ. eigenvalues --  -14.33088 -10.44869 -10.42415 -10.41100 -10.40631
 Alpha  occ. eigenvalues --  -10.40247 -10.38447 -10.35423 -10.35323 -10.35253
 Alpha  occ. eigenvalues --  -10.34236 -10.32557 -10.32234 -10.31183 -10.29489
 Alpha  occ. eigenvalues --  -10.29240 -10.29100 -10.29008 -10.27602 -10.27289
 Alpha  occ. eigenvalues --  -10.26890 -10.26171 -10.26067 -10.25899 -10.25837
 Alpha  occ. eigenvalues --  -10.25342 -10.25292  -1.22974  -1.18754  -1.18004
 Alpha  occ. eigenvalues --   -1.17828  -1.16331  -1.14420  -1.12902  -1.10003
 Alpha  occ. eigenvalues --   -1.09920  -1.06543  -1.05284  -1.05221  -1.02365
 Alpha  occ. eigenvalues --   -1.01763  -0.96252  -0.94028  -0.91679  -0.90845
 Alpha  occ. eigenvalues --   -0.89308  -0.88593  -0.87572  -0.87444  -0.84956
 Alpha  occ. eigenvalues --   -0.82952  -0.81238  -0.80795  -0.80510  -0.79183
 Alpha  occ. eigenvalues --   -0.78071  -0.75883  -0.74982  -0.74771  -0.74150
 Alpha  occ. eigenvalues --   -0.73400  -0.71708  -0.70096  -0.69944  -0.69436
 Alpha  occ. eigenvalues --   -0.68304  -0.67635  -0.67212  -0.66638  -0.65686
 Alpha  occ. eigenvalues --   -0.64506  -0.63867  -0.63525  -0.63449  -0.62393
 Alpha  occ. eigenvalues --   -0.61285  -0.60394  -0.59900  -0.59576  -0.59314
 Alpha  occ. eigenvalues --   -0.58841  -0.57460  -0.56908  -0.56334  -0.56043
 Alpha  occ. eigenvalues --   -0.55734  -0.55549  -0.54975  -0.54769  -0.54513
 Alpha  occ. eigenvalues --   -0.54255  -0.54122  -0.53752  -0.53120  -0.52936
 Alpha  occ. eigenvalues --   -0.52802  -0.52486  -0.51699  -0.51380  -0.50781
 Alpha  occ. eigenvalues --   -0.50579  -0.50368  -0.50135  -0.49480  -0.49361
 Alpha  occ. eigenvalues --   -0.48854  -0.48776  -0.48761  -0.48682  -0.47991
 Alpha  occ. eigenvalues --   -0.47717  -0.47526  -0.47011  -0.46654  -0.45852
 Alpha  occ. eigenvalues --   -0.45310  -0.45180  -0.44913  -0.44145  -0.43395
 Alpha  occ. eigenvalues --   -0.42952  -0.42656  -0.42032  -0.41103  -0.40929
 Alpha  occ. eigenvalues --   -0.40486  -0.40386  -0.40046  -0.39816  -0.39776
 Alpha  occ. eigenvalues --   -0.39148  -0.37467  -0.35969  -0.35420  -0.34682
 Alpha  occ. eigenvalues --   -0.34406  -0.34198  -0.31035  -0.30202  -0.29486
 Alpha  occ. eigenvalues --   -0.27986  -0.27736
 Alpha virt. eigenvalues --   -0.15198  -0.13416  -0.10926  -0.08448  -0.08282
 Alpha virt. eigenvalues --   -0.08154  -0.07737  -0.07095  -0.06684  -0.05630
 Alpha virt. eigenvalues --   -0.04802  -0.04678  -0.04024  -0.02204  -0.01779

 Mulliken charges:
               1
     1  N   -0.735027
     2  H    0.428284
     3  H    0.433345
     4  H    0.425145
     5  C   -0.131475
     6  H    0.246288
     7  C    0.593299
     8  C   -0.301576
     9  H    0.188148
    10  H    0.185790
    11  O   -0.679974
    12  C   -0.391167
    13  H    0.211822
    14  H    0.210630
    15  C    0.570135
    16  O   -0.613783
    17  O   -0.422907
    18  N   -0.471034
    19  H    0.466236
    20  C   -0.065859
    21  H    0.171214
    22  C    0.593847
    23  C   -0.398544
    24  H    0.176416
    25  H    0.177792
    26  O   -0.522766
    27  C    0.059325
    28  C   -0.001944
    29  H    0.186395
    30  C    0.091664
    31  C    0.316745
    32  C   -0.236893
    33  H    0.102196
    34  N   -0.690341
    35  H    0.341903
    36  C   -0.145700
    37  H    0.145074
    38  C   -0.152654
    39  H    0.142381
    40  C   -0.137273
    41  H    0.134635
    42  N   -0.617851
    43  H    0.351365
    44  C   -0.087259
    45  H    0.197551
    46  C    0.639273
    47  C    0.135163
    48  H    0.158909
    49  O   -0.523536
    50  C   -0.484265
    51  H    0.203732
    52  H    0.157659
    53  H    0.163864
    54  O   -0.668046
    55  H    0.413170
    56  N   -0.606043
    57  H    0.366126
    58  C   -0.057055
    59  H    0.207382
    60  C    0.589617
    61  C   -0.258441
    62  H    0.182304
    63  H    0.145866
    64  O   -0.458527
    65  C   -0.290675
    66  H    0.161452
    67  H    0.121967
    68  C   -0.140741
    69  H    0.141921
    70  H    0.157697
    71  N   -0.605078
    72  H    0.323250
    73  N   -0.750588
    74  H    0.339409
    75  H    0.319598
    76  N   -0.651013
    77  H    0.292375
    78  C    0.575694
    79  O   -0.559302
    80  H    0.425780
    81  H    0.487503
 Sum of Mulliken charges =   1.00000

 Dipole moment (field-independent basis, Debye):
    X=             -8.2693    Y=             -6.1553    Z=             11.6235  Tot=             15.5362
 Quadrupole moment (field-independent basis, Debye-Ang):
   XX=           -184.3124   YY=           -234.5390   ZZ=           -161.5535
   XY=             18.4251   XZ=            -50.8008   YZ=            -39.3790

 Normal termination of Gaussian 16 at Sat May 14 21:08:59 2022.
