 Gaussian 16, Revision C.01,
 Gaussian 16:  ES64L-G16RevC.01  3-Jul-2019

 ----------------------------------------------------------------------
 # B3LYP/6-31G* empiricaldispersion=gd3 guess=read geom=check nosymm in
 tegral(ultrafinegrid)
 ----------------------------------------------------------------------

 ------------------------------------------------------
 Candidate Structure: Conf:497 Charge calc in gas phase
 ------------------------------------------------------
 Structure from the checkpoint file:  "conf-497.chk"
 Charge =  1 Multiplicity = 1

                          Input orientation:
 ---------------------------------------------------------------------
 Center     Atomic      Atomic             Coordinates (Angstroms)
 Number     Number       Type             X           Y           Z
 ---------------------------------------------------------------------
      1          7           0       -4.082795    3.584459    2.765764
      2          1           0       -4.875093    3.530918    2.118151
      3          1           0       -3.937048    2.551484    3.202979
      4          1           0       -4.261977    4.316299    3.456173
      5          6           0       -2.778030    3.801555    2.033694
      6          1           0       -2.886053    4.672624    1.377771
      7          6           0       -2.650606    2.557565    1.151341
      8          6           0       -1.642474    4.012997    3.064815
      9          1           0       -0.683330    3.907258    2.549708
     10          1           0       -1.687500    5.061097    3.384019
     11          8           0       -3.810695    2.206520    0.664592
     12          6           0       -1.685060    3.054843    4.288094
     13          1           0       -2.513300    3.340167    4.948305
     14          1           0       -0.750695    3.156588    4.838076
     15          6           0       -1.866943    1.643868    3.713456
     16          8           0       -0.885821    0.936805    3.507025
     17          8           0       -3.088710    1.457164    3.258557
     18          7           0       -1.490070    2.103417    0.781774
     19          1           0       -0.636461    2.533167    1.163494
     20          6           0       -1.122242    0.784318    0.247327
     21          1           0       -1.681102    0.033076    0.820879
     22          6           0        0.396938    0.706186    0.520055
     23          6           0       -1.347510    0.636349   -1.283596
     24          1           0       -1.001244   -0.370339   -1.544930
     25          1           0       -0.697108    1.349749   -1.794932
     26          8           0        1.012425    1.751503    0.778288
     27          6           0       -2.758616    0.848542   -1.732398
     28          6           0       -3.187750    1.869316   -2.557781
     29          1           0       -2.617887    2.666704   -3.018689
     30          6           0       -3.928640    0.056682   -1.412350
     31          6           0       -5.030220    0.657651   -2.086569
     32          6           0       -4.152054   -1.090331   -0.622410
     33          1           0       -3.337373   -1.570538   -0.088804
     34          7           0       -4.541849    1.756861   -2.768381
     35          1           0       -5.086148    2.356292   -3.371243
     36          6           0       -6.517307   -0.984716   -1.214319
     37          1           0       -7.512593   -1.409019   -1.124005
     38          6           0       -6.329525    0.147373   -1.997474
     39          1           0       -7.157185    0.614694   -2.523151
     40          6           0       -5.442055   -1.595834   -0.533426
     41          1           0       -5.629513   -2.476964    0.072282
     42          7           0        0.965798   -0.476534    0.263957
     43          1           0        0.397020   -1.314049    0.338238
     44          6           0        2.412588   -0.730092    0.299870
     45          1           0        2.812339   -0.317622    1.231306
     46          6           0        3.088700   -0.079246   -0.940926
     47          6           0        2.620222   -2.248207    0.248716
     48          1           0        2.351239   -2.583802   -0.761901
     49          8           0        3.311558   -0.728913   -1.952689
     50          6           0        4.069698   -2.626313    0.533395
     51          1           0        4.730295   -2.209108   -0.232696
     52          1           0        4.188126   -3.715516    0.514128
     53          1           0        4.377902   -2.265557    1.520445
     54          8           0        1.708717   -2.787110    1.214560
     55          1           0        1.793951   -3.753225    1.197972
     56          7           0        3.395430    1.251119   -0.810227
     57          1           0        2.942061    1.719982   -0.026085
     58          6           0        3.556451    2.090288   -2.018911
     59          1           0        4.398853    1.708892   -2.598868
     60          6           0        3.909966    3.476544   -1.478174
     61          6           0        2.252311    2.122218   -2.848273
     62          1           0        1.442263    2.202299   -2.118850
     63          1           0        2.135598    1.149770   -3.335423
     64          8           0        3.097070    4.264510   -1.031979
     65          6           0        2.111702    3.256950   -3.878716
     66          1           0        2.333453    4.223342   -3.419107
     67          1           0        2.845953    3.124497   -4.683095
     68          6           0        0.662177    3.365585   -4.435520
     69          1           0        0.648899    3.242119   -5.522551
     70          1           0        0.067747    2.540976   -4.025381
     71          7           0       -0.063090    4.608633   -4.178456
     72          1           0       -0.025719    5.312834   -4.900990
     73          7           0       -0.147537    4.337271   -1.843273
     74          1           0       -0.569735    4.768300   -1.029256
     75          1           0        0.863733    4.310674   -1.722008
     76          7           0       -1.447262    5.989547   -2.805086
     77          1           0       -1.784383    6.334873   -3.706577
     78          6           0       -0.580993    5.048489   -2.967974
     79          8           0        5.228048    3.716696   -1.500375
     80          1           0        5.373613    4.598851   -1.104898
     81          1           0       -3.759703    1.436954    0.030103
 ---------------------------------------------------------------------

 SCF Done:  E(RB3LYP) =  -2053.97111602     A.U. after    2 cycles

 Alpha  occ. eigenvalues --  -19.35037 -19.28995 -19.24634 -19.23700 -19.23661
 Alpha  occ. eigenvalues --  -19.21088 -19.20694 -19.19365 -14.55194 -14.52753
 Alpha  occ. eigenvalues --  -14.48891 -14.47676 -14.44645 -14.42806 -14.41721
 Alpha  occ. eigenvalues --  -14.35721 -10.48253 -10.41546 -10.41300 -10.40944
 Alpha  occ. eigenvalues --  -10.37845 -10.37762 -10.37185 -10.35596 -10.33498
 Alpha  occ. eigenvalues --  -10.33022 -10.32840 -10.32740 -10.32648 -10.32641
 Alpha  occ. eigenvalues --  -10.31336 -10.30677 -10.29562 -10.29475 -10.29469
 Alpha  occ. eigenvalues --  -10.29029 -10.28925 -10.28314 -10.27955 -10.27204
 Alpha  occ. eigenvalues --  -10.26878 -10.25365  -1.25620  -1.20081  -1.16521
 Alpha  occ. eigenvalues --   -1.13696  -1.12654  -1.11078  -1.10966  -1.10759
 Alpha  occ. eigenvalues --   -1.10173  -1.08804  -1.04905  -1.04469  -1.04065
 Alpha  occ. eigenvalues --   -1.01150  -0.96299  -0.94950  -0.93969  -0.91961
 Alpha  occ. eigenvalues --   -0.91487  -0.89157  -0.88053  -0.86909  -0.85759
 Alpha  occ. eigenvalues --   -0.83797  -0.82763  -0.82563  -0.79928  -0.79432
 Alpha  occ. eigenvalues --   -0.77908  -0.76135  -0.74032  -0.72848  -0.72454
 Alpha  occ. eigenvalues --   -0.72294  -0.70919  -0.70444  -0.69909  -0.69735
 Alpha  occ. eigenvalues --   -0.68954  -0.67743  -0.67387  -0.66970  -0.66119
 Alpha  occ. eigenvalues --   -0.65502  -0.63955  -0.63113  -0.62856  -0.61892
 Alpha  occ. eigenvalues --   -0.61760  -0.61140  -0.60003  -0.59199  -0.58946
 Alpha  occ. eigenvalues --   -0.58242  -0.57843  -0.57474  -0.57238  -0.56834
 Alpha  occ. eigenvalues --   -0.56643  -0.56245  -0.56010  -0.55671  -0.55140
 Alpha  occ. eigenvalues --   -0.54962  -0.53936  -0.53598  -0.53390  -0.53215
 Alpha  occ. eigenvalues --   -0.52852  -0.52522  -0.52252  -0.51598  -0.51414
 Alpha  occ. eigenvalues --   -0.50976  -0.50874  -0.50559  -0.50358  -0.50163
 Alpha  occ. eigenvalues --   -0.50053  -0.49688  -0.49581  -0.48312  -0.48168
 Alpha  occ. eigenvalues --   -0.47964  -0.47395  -0.47083  -0.46839  -0.46178
 Alpha  occ. eigenvalues --   -0.46092  -0.45421  -0.45090  -0.44943  -0.43818
 Alpha  occ. eigenvalues --   -0.43660  -0.43249  -0.43127  -0.42966  -0.42161
 Alpha  occ. eigenvalues --   -0.41807  -0.40881  -0.39334  -0.38291  -0.38035
 Alpha  occ. eigenvalues --   -0.37139  -0.36265  -0.36208  -0.35798  -0.34798
 Alpha  occ. eigenvalues --   -0.34174  -0.33646  -0.33188  -0.32899  -0.32864
 Alpha  occ. eigenvalues --   -0.30997  -0.29529
 Alpha virt. eigenvalues --   -0.16158  -0.11805  -0.10191  -0.09100  -0.08214
 Alpha virt. eigenvalues --   -0.07837  -0.07678  -0.06178  -0.04881  -0.04612
 Alpha virt. eigenvalues --   -0.02917  -0.02600  -0.02228  -0.01723  -0.01523

 Mulliken charges:
               1
     1  N   -0.755598
     2  H    0.403476
     3  H    0.459175
     4  H    0.394020
     5  C   -0.096285
     6  H    0.234236
     7  C    0.678595
     8  C   -0.335301
     9  H    0.201540
    10  H    0.186510
    11  O   -0.593125
    12  C   -0.340062
    13  H    0.147918
    14  H    0.195953
    15  C    0.596041
    16  O   -0.502199
    17  O   -0.646537
    18  N   -0.580141
    19  H    0.415561
    20  C   -0.098437
    21  H    0.223928
    22  C    0.675059
    23  C   -0.355613
    24  H    0.182237
    25  H    0.205778
    26  O   -0.560003
    27  C   -0.014859
    28  C    0.020016
    29  H    0.203798
    30  C   -0.036201
    31  C    0.338338
    32  C   -0.197078
    33  H    0.139263
    34  N   -0.669936
    35  H    0.350201
    36  C   -0.146902
    37  H    0.157890
    38  C   -0.158745
    39  H    0.152420
    40  C   -0.132302
    41  H    0.155133
    42  N   -0.617245
    43  H    0.368509
    44  C   -0.050196
    45  H    0.192331
    46  C    0.628374
    47  C    0.109069
    48  H    0.163000
    49  O   -0.507161
    50  C   -0.479482
    51  H    0.185094
    52  H    0.157776
    53  H    0.166112
    54  O   -0.646576
    55  H    0.411236
    56  N   -0.638393
    57  H    0.375122
    58  C    0.000860
    59  H    0.200319
    60  C    0.557192
    61  C   -0.315542
    62  H    0.158299
    63  H    0.183506
    64  O   -0.468338
    65  C   -0.298102
    66  H    0.161836
    67  H    0.159933
    68  C   -0.135302
    69  H    0.163832
    70  H    0.159520
    71  N   -0.613600
    72  H    0.331784
    73  N   -0.779752
    74  H    0.311950
    75  H    0.366554
    76  N   -0.656116
    77  H    0.269440
    78  C    0.563082
    79  O   -0.535384
    80  H    0.424387
    81  H    0.474310
 Sum of Mulliken charges =   1.00000

 Dipole moment (field-independent basis, Debye):
    X=            -10.5246    Y=             12.5452    Z=             -1.1881  Tot=             16.4183
 Quadrupole moment (field-independent basis, Debye-Ang):
   XX=           -147.6801   YY=           -170.5853   ZZ=           -202.1022
   XY=            -32.4453   XZ=             -8.1975   YZ=              6.6354

 Normal termination of Gaussian 16 at Sat May 14 21:09:44 2022.
