 Gaussian 16, Revision C.01,
 Gaussian 16:  ES64L-G16RevC.01  3-Jul-2019

 ----------------------------------------------------------------------
 # B3LYP/6-31G* empiricaldispersion=gd3 guess=read geom=check nosymm in
 tegral(ultrafinegrid)
 ----------------------------------------------------------------------

 ------------------------------------------------------
 Candidate Structure: Conf:538 Charge calc in gas phase
 ------------------------------------------------------
 Structure from the checkpoint file:  "conf-538.chk"
 Charge =  1 Multiplicity = 1

                          Input orientation:
 ---------------------------------------------------------------------
 Center     Atomic      Atomic             Coordinates (Angstroms)
 Number     Number       Type             X           Y           Z
 ---------------------------------------------------------------------
      1          7           0       -3.556774    0.371157    4.076584
      2          1           0       -4.556959    0.147278    4.051793
      3          1           0       -3.025928   -0.452289    3.699212
      4          1           0       -3.283979    0.563638    5.045870
      5          6           0       -3.189083    1.491831    3.125349
      6          1           0       -4.045130    2.165204    3.058767
      7          6           0       -2.833513    0.751600    1.820522
      8          6           0       -1.877530    2.221590    3.548119
      9          1           0       -1.061662    1.817821    2.945294
     10          1           0       -1.985921    3.268940    3.249662
     11          8           0       -2.386686   -0.404087    1.949014
     12          6           0       -1.448655    2.160021    5.022051
     13          1           0       -1.322722    1.122603    5.365483
     14          1           0       -2.143995    2.686247    5.681151
     15          6           0       -0.071127    2.850204    5.149568
     16          8           0        0.065166    3.900419    5.719373
     17          8           0        0.941225    2.217569    4.532322
     18          7           0       -2.864674    1.448053    0.687866
     19          1           0       -3.199244    2.405907    0.711185
     20          6           0       -1.991137    1.119420   -0.472850
     21          1           0       -2.090506    0.046066   -0.654954
     22          6           0       -0.573953    1.489279    0.016235
     23          6           0       -2.407652    1.918816   -1.697880
     24          1           0       -1.615096    1.837378   -2.452026
     25          1           0       -2.389005    2.987669   -1.438352
     26          8           0       -0.186903    2.653444    0.038940
     27          6           0       -3.727062    1.511517   -2.282441
     28          6           0       -4.644634    0.605868   -1.803539
     29          1           0       -4.624249   -0.003414   -0.910307
     30          6           0       -4.257490    2.016527   -3.524902
     31          6           0       -5.505191    1.375493   -3.740050
     32          6           0       -3.780187    2.939973   -4.472952
     33          1           0       -2.818627    3.425292   -4.324593
     34          7           0       -5.718831    0.526378   -2.670778
     35          1           0       -6.500902   -0.102117   -2.574582
     36          6           0       -5.798146    2.548047   -5.791107
     37          1           0       -6.380574    2.770670   -6.680617
     38          6           0       -6.289825    1.630772   -4.869914
     39          1           0       -7.242765    1.131669   -5.022768
     40          6           0       -4.558253    3.194044   -5.595462
     41          1           0       -4.210104    3.904938   -6.339772
     42          7           0        0.118260    0.452563    0.559695
     43          1           0       -0.157063   -0.493517    0.323409
     44          6           0        1.424131    0.623352    1.209572
     45          1           0        1.438963    1.637918    1.619725
     46          6           0        2.512749    0.448333    0.133277
     47          6           0        1.548790   -0.381461    2.361854
     48          1           0        1.518807   -1.399847    1.953681
     49          8           0        3.098449   -0.614750   -0.033386
     50          6           0        2.827087   -0.193885    3.161153
     51          1           0        3.688765   -0.398967    2.521767
     52          1           0        2.840511   -0.889149    4.004901
     53          1           0        2.907436    0.827784    3.547889
     54          8           0        0.425148   -0.205259    3.264919
     55          1           0        0.678502    1.339124    4.163527
     56          7           0        2.652620    1.533633   -0.663609
     57          1           0        2.116563    2.367127   -0.454707
     58          6           0        3.464185    1.499402   -1.865865
     59          1           0        3.266509    0.556714   -2.388337
     60          6           0        4.950748    1.519971   -1.503103
     61          6           0        3.082993    2.690971   -2.771821
     62          1           0        3.622770    3.590684   -2.444351
     63          1           0        2.016117    2.879352   -2.607369
     64          8           0        5.408268    1.880974   -0.446552
     65          6           0        3.296691    2.430971   -4.266919
     66          1           0        4.340061    2.165185   -4.468909
     67          1           0        2.680502    1.573471   -4.561898
     68          6           0        2.906919    3.642657   -5.133168
     69          1           0        3.651464    4.439456   -5.032981
     70          1           0        2.904322    3.353730   -6.189277
     71          7           0        1.612582    4.256748   -4.786154
     72          1           0        1.688584    4.940503   -4.043449
     73          7           0        0.287698    2.549649   -5.666435
     74          1           0       -0.633676    2.128015   -5.651280
     75          1           0        0.582001    2.835260   -6.592892
     76          7           0       -0.439544    3.599268   -3.736539
     77          1           0       -0.130821    4.229232   -2.994632
     78          6           0        0.450201    3.498118   -4.668087
     79          8           0        5.699142    1.113980   -2.554278
     80          1           0        6.633596    1.170044   -2.276739
     81          1           0       -0.392687   -0.385165    2.764055
 ---------------------------------------------------------------------

 SCF Done:  E(RB3LYP) =  -2053.99782036     A.U. after    1 cycles

 Alpha  occ. eigenvalues --  -19.29941 -19.27939 -19.27765 -19.26620 -19.23948
 Alpha  occ. eigenvalues --  -19.22847 -19.20737 -19.20306 -14.63314 -14.53105
 Alpha  occ. eigenvalues --  -14.48639 -14.45233 -14.44448 -14.42135 -14.41385
 Alpha  occ. eigenvalues --  -14.36143 -10.46704 -10.43783 -10.41996 -10.41077
 Alpha  occ. eigenvalues --  -10.38819 -10.37543 -10.36441 -10.36106 -10.35551
 Alpha  occ. eigenvalues --  -10.34836 -10.34286 -10.33613 -10.31733 -10.29869
 Alpha  occ. eigenvalues --  -10.29578 -10.28711 -10.28585 -10.27507 -10.26376
 Alpha  occ. eigenvalues --  -10.26099 -10.25781 -10.25198 -10.24934 -10.24654
 Alpha  occ. eigenvalues --  -10.24205 -10.24057  -1.22241  -1.19017  -1.17377
 Alpha  occ. eigenvalues --   -1.17200  -1.15960  -1.14270  -1.12244  -1.11038
 Alpha  occ. eigenvalues --   -1.09283  -1.08499  -1.05046  -1.04828  -1.04511
 Alpha  occ. eigenvalues --   -1.01246  -0.96876  -0.95801  -0.91988  -0.91544
 Alpha  occ. eigenvalues --   -0.90117  -0.89061  -0.88680  -0.87323  -0.85147
 Alpha  occ. eigenvalues --   -0.82255  -0.80447  -0.79871  -0.79162  -0.78455
 Alpha  occ. eigenvalues --   -0.77081  -0.76417  -0.76150  -0.75438  -0.74925
 Alpha  occ. eigenvalues --   -0.72414  -0.71184  -0.70487  -0.69697  -0.68994
 Alpha  occ. eigenvalues --   -0.68589  -0.67946  -0.66556  -0.66341  -0.66178
 Alpha  occ. eigenvalues --   -0.65362  -0.64589  -0.63878  -0.63151  -0.62342
 Alpha  occ. eigenvalues --   -0.61961  -0.61608  -0.61498  -0.60483  -0.60287
 Alpha  occ. eigenvalues --   -0.59364  -0.58998  -0.58619  -0.56724  -0.56066
 Alpha  occ. eigenvalues --   -0.55858  -0.55384  -0.54939  -0.54423  -0.54114
 Alpha  occ. eigenvalues --   -0.53991  -0.53808  -0.53517  -0.53102  -0.52893
 Alpha  occ. eigenvalues --   -0.52212  -0.51954  -0.51772  -0.51213  -0.50825
 Alpha  occ. eigenvalues --   -0.50687  -0.50345  -0.50127  -0.49914  -0.49665
 Alpha  occ. eigenvalues --   -0.48977  -0.48828  -0.48563  -0.48249  -0.47582
 Alpha  occ. eigenvalues --   -0.47490  -0.47171  -0.46796  -0.46581  -0.45529
 Alpha  occ. eigenvalues --   -0.45408  -0.45205  -0.44904  -0.44462  -0.44067
 Alpha  occ. eigenvalues --   -0.43373  -0.42889  -0.42508  -0.41637  -0.41336
 Alpha  occ. eigenvalues --   -0.40592  -0.40021  -0.39852  -0.39710  -0.38808
 Alpha  occ. eigenvalues --   -0.38499  -0.37305  -0.36458  -0.35056  -0.34347
 Alpha  occ. eigenvalues --   -0.33901  -0.33725  -0.33417  -0.32541  -0.29917
 Alpha  occ. eigenvalues --   -0.28858  -0.27257
 Alpha virt. eigenvalues --   -0.16225  -0.13553  -0.10703  -0.09269  -0.08565
 Alpha virt. eigenvalues --   -0.07735  -0.06905  -0.06587  -0.05921  -0.05562
 Alpha virt. eigenvalues --   -0.04627  -0.03775  -0.02984  -0.02821  -0.02354

 Mulliken charges:
               1
     1  N   -0.747643
     2  H    0.424605
     3  H    0.429165
     4  H    0.424702
     5  C   -0.107569
     6  H    0.221808
     7  C    0.624639
     8  C   -0.323375
     9  H    0.206259
    10  H    0.219504
    11  O   -0.551574
    12  C   -0.429199
    13  H    0.160741
    14  H    0.201363
    15  C    0.609900
    16  O   -0.408991
    17  O   -0.595621
    18  N   -0.563849
    19  H    0.366954
    20  C   -0.083696
    21  H    0.187142
    22  C    0.640171
    23  C   -0.367779
    24  H    0.217193
    25  H    0.169886
    26  O   -0.532541
    27  C    0.055688
    28  C   -0.008058
    29  H    0.125986
    30  C    0.058346
    31  C    0.316817
    32  C   -0.226064
    33  H    0.185570
    34  N   -0.701174
    35  H    0.331737
    36  C   -0.145990
    37  H    0.138543
    38  C   -0.163735
    39  H    0.132755
    40  C   -0.152481
    41  H    0.131593
    42  N   -0.627905
    43  H    0.351731
    44  C   -0.088006
    45  H    0.191643
    46  C    0.655016
    47  C    0.098109
    48  H    0.167491
    49  O   -0.522201
    50  C   -0.488756
    51  H    0.208261
    52  H    0.174240
    53  H    0.179521
    54  O   -0.685395
    55  H    0.464936
    56  N   -0.619724
    57  H    0.359540
    58  C   -0.006719
    59  H    0.191699
    60  C    0.598395
    61  C   -0.327330
    62  H    0.155830
    63  H    0.158915
    64  O   -0.450415
    65  C   -0.277842
    66  H    0.171927
    67  H    0.166264
    68  C   -0.154149
    69  H    0.162588
    70  H    0.161588
    71  N   -0.577635
    72  H    0.318562
    73  N   -0.733935
    74  H    0.345561
    75  H    0.338189
    76  N   -0.657628
    77  H    0.272996
    78  C    0.571443
    79  O   -0.565086
    80  H    0.421909
    81  H    0.424639
 Sum of Mulliken charges =   1.00000

 Dipole moment (field-independent basis, Debye):
    X=            -15.1200    Y=              3.0755    Z=              5.5822  Tot=             16.4083
 Quadrupole moment (field-independent basis, Debye-Ang):
   XX=           -151.8064   YY=           -241.8819   ZZ=           -162.5342
   XY=              3.6013   XZ=            -72.1363   YZ=            -27.1845

 Normal termination of Gaussian 16 at Sat May 14 21:09:04 2022.
