 Gaussian 16, Revision C.01,
 Gaussian 16:  ES64L-G16RevC.01  3-Jul-2019

 ----------------------------------------------------------------------
 # B3LYP/6-31G* empiricaldispersion=gd3 guess=read geom=check nosymm in
 tegral(ultrafinegrid)
 ----------------------------------------------------------------------

 -----------------------------------------------------
 Candidate Structure: Conf:90 Charge calc in gas phase
 -----------------------------------------------------
 Structure from the checkpoint file:  "conf-90.chk"
 Charge =  1 Multiplicity = 1

                          Input orientation:
 ---------------------------------------------------------------------
 Center     Atomic      Atomic             Coordinates (Angstroms)
 Number     Number       Type             X           Y           Z
 ---------------------------------------------------------------------
      1          7           0       -2.549055    1.291084    4.619798
      2          1           0       -2.805961    0.325463    4.814323
      3          1           0       -1.565710    1.402446    4.859549
      4          1           0       -4.022682    2.439851    5.270024
      5          6           0       -2.814541    1.663566    3.240279
      6          1           0       -3.898180    1.594779    3.083385
      7          6           0       -2.170073    0.760544    2.195840
      8          6           0       -2.388417    3.134262    2.963333
      9          1           0       -1.293215    3.190339    2.919285
     10          1           0       -2.768265    3.433285    1.981406
     11          8           0       -1.228366   -0.042784    2.610543
     12          6           0       -2.900540    4.131143    4.025250
     13          1           0       -2.690507    5.143003    3.672890
     14          1           0       -2.369957    3.981810    4.971333
     15          6           0       -4.410293    4.028085    4.255683
     16          8           0       -4.806795    2.974416    5.004237
     17          8           0       -5.211411    4.795593    3.781094
     18          7           0       -2.577302    0.844255    0.958023
     19          1           0       -3.258578    1.590454    0.774330
     20          6           0       -2.089820    0.126187   -0.240683
     21          1           0       -2.402330   -0.920924   -0.146037
     22          6           0       -0.548126    0.207645   -0.246319
     23          6           0       -2.745792    0.745175   -1.511904
     24          1           0       -3.764503    0.344348   -1.577960
     25          1           0       -2.201068    0.351061   -2.374827
     26          8           0        0.057990    1.243545   -0.453329
     27          6           0       -2.772628    2.244492   -1.505198
     28          6           0       -1.835951    3.107786   -2.027039
     29          1           0       -0.979875    2.910698   -2.656443
     30          6           0       -3.706918    3.052796   -0.752515
     31          6           0       -3.243797    4.395397   -0.823204
     32          6           0       -4.854504    2.770151    0.024235
     33          1           0       -5.290742    1.771811    0.034981
     34          7           0       -2.125414    4.392481   -1.633820
     35          1           0       -1.594235    5.208742   -1.898530
     36          6           0       -4.945430    5.114922    0.689613
     37          1           0       -5.415198    5.882553    1.293229
     38          6           0       -3.854664    5.433811   -0.112163
     39          1           0       -3.479357    6.451636   -0.169131
     40          6           0       -5.448551    3.798818    0.749059
     41          1           0       -6.312759    3.596692    1.372923
     42          7           0        0.051620   -0.957442    0.182345
     43          1           0       -0.412225   -1.855269    0.018457
     44          6           0        1.516143   -1.130273    0.151280
     45          1           0        1.973387   -0.303307    0.701465
     46          6           0        1.989376   -1.151599   -1.321137
     47          6           0        1.815235   -2.495977    0.821608
     48          1           0        2.868237   -2.734437    0.619953
     49          8           0        1.962558   -2.200320   -1.972058
     50          6           0        1.574710   -2.492966    2.324458
     51          1           0        2.193500   -1.739748    2.823172
     52          1           0        1.821011   -3.476205    2.733060
     53          1           0        0.521002   -2.299674    2.557315
     54          8           0        0.957288   -3.475496    0.243666
     55          1           0        1.242175   -3.543484   -0.691609
     56          7           0        2.387254    0.037990   -1.810784
     57          1           0        2.246075    0.864233   -1.243053
     58          6           0        2.745362    0.252389   -3.208597
     59          1           0        3.034075   -0.713423   -3.628056
     60          6           0        3.948132    1.179505   -3.340320
     61          6           0        1.570145    0.849772   -4.015340
     62          1           0        1.961615    1.199202   -4.975704
     63          1           0        1.198132    1.738697   -3.490121
     64          8           0        4.690263    1.181707   -4.290004
     65          6           0        0.434095   -0.152277   -4.251044
     66          1           0        0.809316   -0.984642   -4.861026
     67          1           0        0.114361   -0.601505   -3.300242
     68          6           0       -0.798687    0.474256   -4.930256
     69          1           0       -1.529690   -0.313022   -5.151477
     70          1           0       -1.282716    1.174552   -4.245690
     71          7           0       -0.518649    1.197729   -6.169675
     72          1           0       -0.082235    0.626927   -6.884968
     73          7           0       -0.658150    3.333604   -5.199875
     74          1           0       -0.374200    4.293424   -5.376012
     75          1           0       -1.673249    3.262647   -5.210088
     76          7           0        0.819218    3.035314   -6.958544
     77          1           0        1.279546    2.333048   -7.540667
     78          6           0       -0.053113    2.516106   -6.178878
     79          8           0        4.036756    2.053892   -2.306724
     80          1           0        4.795015    2.639412   -2.495970
     81          1           0       -0.744830   -0.527110    1.882451
 ---------------------------------------------------------------------

 SCF Done:  E(RB3LYP) =  -2053.99726017     A.U. after    1 cycles

 Alpha  occ. eigenvalues --  -19.38254 -19.29130 -19.27920 -19.26867 -19.25091
 Alpha  occ. eigenvalues --  -19.23375 -19.22913 -19.21630 -14.55991 -14.51886
 Alpha  occ. eigenvalues --  -14.48856 -14.47820 -14.47436 -14.43045 -14.42185
 Alpha  occ. eigenvalues --  -14.36106 -10.49577 -10.44823 -10.41236 -10.40565
 Alpha  occ. eigenvalues --  -10.40372 -10.40291 -10.38996 -10.36075 -10.35648
 Alpha  occ. eigenvalues --  -10.35636 -10.33696 -10.33696 -10.33285 -10.32743
 Alpha  occ. eigenvalues --  -10.32684 -10.31322 -10.30720 -10.29866 -10.29696
 Alpha  occ. eigenvalues --  -10.29647 -10.29328 -10.28828 -10.28578 -10.28477
 Alpha  occ. eigenvalues --  -10.28301 -10.28192  -1.28283  -1.19922  -1.19736
 Alpha  occ. eigenvalues --   -1.17766  -1.15513  -1.13440  -1.12645  -1.10835
 Alpha  occ. eigenvalues --   -1.09750  -1.08823  -1.07408  -1.05245  -1.05197
 Alpha  occ. eigenvalues --   -1.04042  -0.96777  -0.95995  -0.94517  -0.91979
 Alpha  occ. eigenvalues --   -0.91605  -0.90926  -0.89448  -0.88457  -0.86179
 Alpha  occ. eigenvalues --   -0.84566  -0.84150  -0.83170  -0.82251  -0.80983
 Alpha  occ. eigenvalues --   -0.79692  -0.76855  -0.76377  -0.74832  -0.73871
 Alpha  occ. eigenvalues --   -0.72705  -0.71692  -0.70766  -0.70303  -0.69910
 Alpha  occ. eigenvalues --   -0.69388  -0.69243  -0.68760  -0.67956  -0.67806
 Alpha  occ. eigenvalues --   -0.66042  -0.65305  -0.64873  -0.64274  -0.62870
 Alpha  occ. eigenvalues --   -0.62505  -0.62138  -0.61752  -0.61225  -0.60174
 Alpha  occ. eigenvalues --   -0.59263  -0.58905  -0.58162  -0.57840  -0.57516
 Alpha  occ. eigenvalues --   -0.57251  -0.57021  -0.56908  -0.56482  -0.56418
 Alpha  occ. eigenvalues --   -0.55656  -0.55291  -0.54890  -0.54732  -0.54453
 Alpha  occ. eigenvalues --   -0.53825  -0.53690  -0.53263  -0.52982  -0.52870
 Alpha  occ. eigenvalues --   -0.52716  -0.52220  -0.51909  -0.51776  -0.51047
 Alpha  occ. eigenvalues --   -0.50715  -0.50610  -0.50450  -0.49682  -0.49385
 Alpha  occ. eigenvalues --   -0.49042  -0.48818  -0.48607  -0.47997  -0.47706
 Alpha  occ. eigenvalues --   -0.47263  -0.46731  -0.46302  -0.45823  -0.45586
 Alpha  occ. eigenvalues --   -0.45397  -0.44565  -0.44241  -0.43888  -0.43631
 Alpha  occ. eigenvalues --   -0.43267  -0.43137  -0.41013  -0.40832  -0.40595
 Alpha  occ. eigenvalues --   -0.39437  -0.38712  -0.38441  -0.38185  -0.36604
 Alpha  occ. eigenvalues --   -0.35231  -0.35119  -0.34416  -0.33492  -0.32924
 Alpha  occ. eigenvalues --   -0.31148  -0.30334
 Alpha virt. eigenvalues --   -0.18710  -0.15226  -0.12155  -0.10402  -0.08540
 Alpha virt. eigenvalues --   -0.08339  -0.08067  -0.07297  -0.06114  -0.04588
 Alpha virt. eigenvalues --   -0.03633  -0.03376  -0.02892  -0.02340  -0.01924

 Mulliken charges:
               1
     1  N   -0.738545
     2  H    0.346238
     3  H    0.341221
     4  H    0.444352
     5  C   -0.100682
     6  H    0.218009
     7  C    0.621169
     8  C   -0.304113
     9  H    0.168736
    10  H    0.202823
    11  O   -0.571117
    12  C   -0.366370
    13  H    0.199252
    14  H    0.175799
    15  C    0.588287
    16  O   -0.579674
    17  O   -0.437595
    18  N   -0.576530
    19  H    0.408706
    20  C   -0.047711
    21  H    0.191616
    22  C    0.570146
    23  C   -0.422187
    24  H    0.191645
    25  H    0.197501
    26  O   -0.468923
    27  C    0.041956
    28  C    0.034857
    29  H    0.215289
    30  C    0.033654
    31  C    0.325918
    32  C   -0.283614
    33  H    0.142102
    34  N   -0.692097
    35  H    0.348050
    36  C   -0.142872
    37  H    0.179932
    38  C   -0.166382
    39  H    0.154951
    40  C   -0.129849
    41  H    0.170301
    42  N   -0.653335
    43  H    0.369983
    44  C   -0.083733
    45  H    0.177219
    46  C    0.639356
    47  C    0.109067
    48  H    0.170326
    49  O   -0.543189
    50  C   -0.457357
    51  H    0.159314
    52  H    0.199218
    53  H    0.130362
    54  O   -0.642575
    55  H    0.432358
    56  N   -0.586830
    57  H    0.366265
    58  C   -0.069459
    59  H    0.216283
    60  C    0.595932
    61  C   -0.283121
    62  H    0.189061
    63  H    0.162730
    64  O   -0.435227
    65  C   -0.270963
    66  H    0.161842
    67  H    0.122612
    68  C   -0.158620
    69  H    0.159007
    70  H    0.154571
    71  N   -0.578671
    72  H    0.321137
    73  N   -0.761029
    74  H    0.341622
    75  H    0.328697
    76  N   -0.616753
    77  H    0.277411
    78  C    0.548961
    79  O   -0.582200
    80  H    0.428158
    81  H    0.477324
 Sum of Mulliken charges =   1.00000

 Dipole moment (field-independent basis, Debye):
    X=             -4.3360    Y=              4.2054    Z=              3.5986  Tot=              7.0311
 Quadrupole moment (field-independent basis, Debye-Ang):
   XX=           -236.5352   YY=           -219.0966   ZZ=           -214.4325
   XY=              4.6032   XZ=             16.0481   YZ=              0.6239

 Normal termination of Gaussian 16 at Sat May 14 21:09:24 2022.
