 Gaussian 16, Revision C.01,
 Gaussian 16:  ES64L-G16RevC.01  3-Jul-2019

 ----------------------------------------------------------------------
 # B3LYP/6-31G* empiricaldispersion=gd3 guess=read geom=check nosymm in
 tegral(ultrafinegrid)
 ----------------------------------------------------------------------

 ------------------------------------------------------
 Candidate Structure: Conf:796 Charge calc in gas phase
 ------------------------------------------------------
 Structure from the checkpoint file:  "conf-796.chk"
 Charge =  1 Multiplicity = 1

                          Input orientation:
 ---------------------------------------------------------------------
 Center     Atomic      Atomic             Coordinates (Angstroms)
 Number     Number       Type             X           Y           Z
 ---------------------------------------------------------------------
      1          7           0       -4.944644    2.353398    2.757256
      2          1           0       -4.966816    3.034587    2.000841
      3          1           0       -5.697008    1.686475    2.594137
      4          1           0       -4.615948    3.353709    4.457409
      5          6           0       -3.652500    1.683139    2.842277
      6          1           0       -2.901566    2.448685    3.066975
      7          6           0       -3.230365    0.982847    1.562921
      8          6           0       -3.645096    0.632606    3.985779
      9          1           0       -4.242339   -0.235663    3.680959
     10          1           0       -2.614840    0.287191    4.126097
     11          8           0       -4.192109    0.370310    0.930359
     12          6           0       -4.193458    1.178887    5.320797
     13          1           0       -4.014877    0.434583    6.099580
     14          1           0       -5.273283    1.341909    5.244668
     15          6           0       -3.489974    2.470702    5.742396
     16          8           0       -3.924135    3.591002    5.115954
     17          8           0       -2.580219    2.503068    6.531724
     18          7           0       -1.975158    0.970452    1.217696
     19          1           0       -1.282538    1.444326    1.818775
     20          6           0       -1.277241    0.206259    0.175560
     21          1           0       -1.707731   -0.800257    0.130356
     22          6           0        0.180552    0.152140    0.688857
     23          6           0       -1.339147    0.902289   -1.210652
     24          1           0       -0.778584    0.270753   -1.911813
     25          1           0       -0.812775    1.859849   -1.149864
     26          8           0        0.514697    0.890840    1.626419
     27          6           0       -2.736396    1.129219   -1.683449
     28          6           0       -3.344830    2.351779   -1.838132
     29          1           0       -2.918259    3.338399   -1.716017
     30          6           0       -3.739426    0.127511   -1.973684
     31          6           0       -4.939908    0.826559   -2.300433
     32          6           0       -3.746245   -1.285763   -1.988252
     33          1           0       -2.840592   -1.847989   -1.774725
     34          7           0       -4.663213    2.175101   -2.203949
     35          1           0       -5.301530    2.916920   -2.451475
     36          6           0       -6.097071   -1.230185   -2.631727
     37          1           0       -6.999324   -1.777654   -2.885977
     38          6           0       -6.122644    0.159556   -2.634565
     39          1           0       -7.026317    0.705345   -2.889291
     40          6           0       -4.924218   -1.946576   -2.311094
     41          1           0       -4.942963   -3.031739   -2.330695
     42          7           0        1.006407   -0.660334    0.032687
     43          1           0        0.715047   -1.198853   -0.776744
     44          6           0        2.429938   -0.703691    0.322248
     45          1           0        2.704218    0.265530    0.749465
     46          6           0        3.137528   -0.926088   -1.020791
     47          6           0        2.740520   -1.813171    1.369513
     48          1           0        2.538803   -2.783550    0.901829
     49          8           0        2.594679   -1.586021   -1.906154
     50          6           0        4.189459   -1.758185    1.852413
     51          1           0        4.900062   -1.946278    1.040965
     52          1           0        4.340546   -2.515123    2.626125
     53          1           0        4.415996   -0.776640    2.290947
     54          8           0        1.817925   -1.725673    2.442878
     55          1           0        1.892603   -0.841382    2.839957
     56          7           0        4.349165   -0.340282   -1.143631
     57          1           0        4.750305    0.134848   -0.346516
     58          6           0        5.211764   -0.516426   -2.313741
     59          1           0        5.364906   -1.589617   -2.482500
     60          6           0        6.599011    0.069365   -2.056991
     61          6           0        4.630706    0.087449   -3.616221
     62          1           0        3.824356   -0.573814   -3.946254
     63          1           0        5.425221    0.028249   -4.364732
     64          8           0        7.492275    0.029556   -2.864372
     65          6           0        4.105934    1.532972   -3.458042
     66          1           0        4.448297    1.965100   -2.508465
     67          1           0        4.509082    2.181495   -4.242972
     68          6           0        2.570163    1.566615   -3.510066
     69          1           0        2.245947    1.299156   -4.522749
     70          1           0        2.161958    0.802282   -2.843823
     71          7           0        1.973588    2.864340   -3.166758
     72          1           0        1.586077    3.384886   -3.941646
     73          7           0        1.867367    2.365111   -0.894433
     74          1           0        1.483928    2.672491   -0.007030
     75          1           0        2.881145    2.351856   -0.881827
     76          7           0        0.278405    3.813118   -1.753954
     77          1           0       -0.096773    4.169984   -2.634738
     78          6           0        1.319911    3.079467   -1.964986
     79          8           0        6.720513    0.650182   -0.834090
     80          1           0        7.635107    0.985473   -0.764996
     81          1           0       -3.970015    0.059504    0.011027
 ---------------------------------------------------------------------

 SCF Done:  E(RB3LYP) =  -2054.00775176     A.U. after    1 cycles

 Alpha  occ. eigenvalues --  -19.36084 -19.30049 -19.25593 -19.25005 -19.23594
 Alpha  occ. eigenvalues --  -19.23459 -19.22660 -19.20209 -14.54370 -14.49691
 Alpha  occ. eigenvalues --  -14.48423 -14.47112 -14.46795 -14.43890 -14.43388
 Alpha  occ. eigenvalues --  -14.37562 -10.47913 -10.42072 -10.41947 -10.39819
 Alpha  occ. eigenvalues --  -10.38900 -10.38440 -10.37698 -10.37206 -10.34093
 Alpha  occ. eigenvalues --  -10.34074 -10.33948 -10.33673 -10.33630 -10.32215
 Alpha  occ. eigenvalues --  -10.31578 -10.30842 -10.30452 -10.30342 -10.30211
 Alpha  occ. eigenvalues --  -10.29963 -10.29524 -10.29365 -10.29140 -10.27723
 Alpha  occ. eigenvalues --  -10.27438 -10.27053  -1.26229  -1.20510  -1.17243
 Alpha  occ. eigenvalues --   -1.16404  -1.14623  -1.11568  -1.11523  -1.11088
 Alpha  occ. eigenvalues --   -1.09621  -1.08446  -1.06525  -1.04962  -1.04068
 Alpha  occ. eigenvalues --   -1.03611  -0.97421  -0.95589  -0.94295  -0.93241
 Alpha  occ. eigenvalues --   -0.90965  -0.90219  -0.89231  -0.87234  -0.85404
 Alpha  occ. eigenvalues --   -0.84814  -0.83733  -0.83302  -0.81080  -0.79800
 Alpha  occ. eigenvalues --   -0.78271  -0.76670  -0.74476  -0.73685  -0.73476
 Alpha  occ. eigenvalues --   -0.72206  -0.71703  -0.71434  -0.70555  -0.69868
 Alpha  occ. eigenvalues --   -0.69255  -0.68299  -0.67879  -0.67062  -0.66771
 Alpha  occ. eigenvalues --   -0.65079  -0.64505  -0.64194  -0.63821  -0.62321
 Alpha  occ. eigenvalues --   -0.62061  -0.61096  -0.60175  -0.59950  -0.59331
 Alpha  occ. eigenvalues --   -0.58911  -0.58550  -0.58031  -0.57943  -0.57479
 Alpha  occ. eigenvalues --   -0.57071  -0.56341  -0.56113  -0.55983  -0.55826
 Alpha  occ. eigenvalues --   -0.55266  -0.54713  -0.54555  -0.54415  -0.53866
 Alpha  occ. eigenvalues --   -0.53606  -0.53314  -0.53169  -0.52778  -0.51987
 Alpha  occ. eigenvalues --   -0.51731  -0.51611  -0.51465  -0.51046  -0.50728
 Alpha  occ. eigenvalues --   -0.50192  -0.49916  -0.49678  -0.49442  -0.48982
 Alpha  occ. eigenvalues --   -0.48806  -0.47909  -0.47094  -0.46871  -0.46730
 Alpha  occ. eigenvalues --   -0.46577  -0.46411  -0.46197  -0.45055  -0.44757
 Alpha  occ. eigenvalues --   -0.44580  -0.44237  -0.43944  -0.43672  -0.42648
 Alpha  occ. eigenvalues --   -0.42036  -0.41544  -0.40141  -0.39440  -0.38848
 Alpha  occ. eigenvalues --   -0.38240  -0.38078  -0.37589  -0.36932  -0.36417
 Alpha  occ. eigenvalues --   -0.35760  -0.35207  -0.35013  -0.33906  -0.33805
 Alpha  occ. eigenvalues --   -0.32050  -0.31143
 Alpha virt. eigenvalues --   -0.17022  -0.12758  -0.10823  -0.09451  -0.09080
 Alpha virt. eigenvalues --   -0.08261  -0.06844  -0.05898  -0.05331  -0.04778
 Alpha virt. eigenvalues --   -0.04151  -0.03370  -0.02988  -0.02385  -0.02021

 Mulliken charges:
               1
     1  N   -0.735068
     2  H    0.337410
     3  H    0.342921
     4  H    0.440844
     5  C   -0.088138
     6  H    0.208815
     7  C    0.616583
     8  C   -0.295792
     9  H    0.176142
    10  H    0.187799
    11  O   -0.563518
    12  C   -0.364773
    13  H    0.202568
    14  H    0.172473
    15  C    0.577586
    16  O   -0.582843
    17  O   -0.427807
    18  N   -0.551243
    19  H    0.405705
    20  C   -0.122574
    21  H    0.193738
    22  C    0.696118
    23  C   -0.373146
    24  H    0.175964
    25  H    0.230792
    26  O   -0.576100
    27  C    0.053986
    28  C   -0.001371
    29  H    0.195461
    30  C   -0.069357
    31  C    0.347375
    32  C   -0.220025
    33  H    0.139842
    34  N   -0.676840
    35  H    0.350620
    36  C   -0.147299
    37  H    0.162835
    38  C   -0.154572
    39  H    0.157118
    40  C   -0.126380
    41  H    0.158361
    42  N   -0.587477
    43  H    0.360317
    44  C   -0.094986
    45  H    0.165607
    46  C    0.651485
    47  C    0.155304
    48  H    0.161512
    49  O   -0.543407
    50  C   -0.480434
    51  H    0.157417
    52  H    0.192866
    53  H    0.142800
    54  O   -0.613622
    55  H    0.401402
    56  N   -0.639272
    57  H    0.364809
    58  C   -0.041633
    59  H    0.210719
    60  C    0.594944
    61  C   -0.298846
    62  H    0.184261
    63  H    0.191370
    64  O   -0.433444
    65  C   -0.257706
    66  H    0.130913
    67  H    0.164927
    68  C   -0.175310
    69  H    0.161828
    70  H    0.180796
    71  N   -0.588204
    72  H    0.326648
    73  N   -0.767521
    74  H    0.347983
    75  H    0.332666
    76  N   -0.667142
    77  H    0.271350
    78  C    0.575991
    79  O   -0.594043
    80  H    0.433859
    81  H    0.467065
 Sum of Mulliken charges =   1.00000

 Dipole moment (field-independent basis, Debye):
    X=             -7.8695    Y=              3.1660    Z=             -5.1128  Tot=              9.9042
 Quadrupole moment (field-independent basis, Debye-Ang):
   XX=           -115.3289   YY=           -236.5409   ZZ=           -246.8740
   XY=             -8.6839   XZ=              7.4134   YZ=            -28.5917

 Normal termination of Gaussian 16 at Sat May 14 21:09:02 2022.
