 Gaussian 16, Revision C.01,
 Gaussian 16:  ES64L-G16RevC.01  3-Jul-2019

 ----------------------------------------------------------------------
 # B3LYP/6-31G* empiricaldispersion=gd3 guess=read geom=check nosymm in
 tegral(ultrafinegrid)
 ----------------------------------------------------------------------

 ------------------------------------------------------
 Candidate Structure: Conf:797 Charge calc in gas phase
 ------------------------------------------------------
 Structure from the checkpoint file:  "conf-797.chk"
 Charge =  1 Multiplicity = 1

                          Input orientation:
 ---------------------------------------------------------------------
 Center     Atomic      Atomic             Coordinates (Angstroms)
 Number     Number       Type             X           Y           Z
 ---------------------------------------------------------------------
      1          7           0       -1.484147   -1.938745    4.774271
      2          1           0       -0.933129   -2.564511    4.170682
      3          1           0       -0.897304   -1.120765    4.987325
      4          1           0       -1.711077   -2.409781    5.656685
      5          6           0       -2.751362   -1.492336    4.024729
      6          1           0       -3.353417   -2.402352    3.931277
      7          6           0       -2.271023   -1.038926    2.652112
      8          6           0       -3.471515   -0.418500    4.834032
      9          1           0       -4.378792   -0.177184    4.273404
     10          1           0       -3.817115   -0.857997    5.776829
     11          8           0       -1.352652   -1.932652    2.185897
     12          6           0       -2.624913    0.856678    5.101573
     13          1           0       -1.737970    0.900721    4.453768
     14          1           0       -2.299723    0.911677    6.142608
     15          6           0       -3.429183    2.139911    4.819612
     16          8           0       -3.601676    2.996930    5.644627
     17          8           0       -3.930245    2.225334    3.569584
     18          7           0       -2.678743    0.043910    2.139998
     19          1           0       -3.615024    1.474570    3.014807
     20          6           0       -2.026552    0.549873    0.921526
     21          1           0       -2.295719   -0.097682    0.079178
     22          6           0       -0.499058    0.498789    1.149733
     23          6           0       -2.458068    1.996763    0.605477
     24          1           0       -2.354901    2.595615    1.515811
     25          1           0       -3.524949    1.983611    0.344895
     26          8           0        0.007461    0.896937    2.192943
     27          6           0       -1.597282    2.570701   -0.480402
     28          6           0       -0.788879    3.683605   -0.372675
     29          1           0       -0.696051    4.377857    0.452273
     30          6           0       -1.335107    2.004007   -1.780505
     31          6           0       -0.342876    2.826411   -2.388786
     32          6           0       -1.812938    0.884303   -2.490843
     33          1           0       -2.613084    0.266365   -2.088197
     34          7           0       -0.043400    3.845345   -1.511042
     35          1           0        0.597775    4.619264   -1.739273
     36          6           0       -0.288996    1.417034   -4.316602
     37          1           0        0.104047    1.167941   -5.298105
     38          6           0        0.182330    2.544430   -3.655031
     39          1           0        0.937066    3.187669   -4.096185
     40          6           0       -1.281274    0.596801   -3.742290
     41          1           0       -1.640577   -0.267308   -4.293120
     42          7           0        0.190266   -0.187110    0.188206
     43          1           0       -0.219544   -0.278725   -0.744070
     44          6           0        1.649134   -0.185872    0.180909
     45          1           0        2.009937    0.742916    0.634145
     46          6           0        2.105155   -0.308255   -1.273250
     47          6           0        2.232632   -1.360087    1.027545
     48          1           0        1.830682   -1.220334    2.038492
     49          8           0        1.365380   -0.763022   -2.139390
     50          6           0        1.852814   -2.742157    0.496463
     51          1           0        0.768322   -2.868139    0.412970
     52          1           0        2.242330   -3.513209    1.168137
     53          1           0        2.273779   -2.906164   -0.501516
     54          8           0        3.640450   -1.210215    1.142280
     55          1           0        4.055719   -1.660145    0.384423
     56          7           0        3.394374    0.066903   -1.485356
     57          1           0        3.941751    0.344085   -0.679676
     58          6           0        4.086216   -0.201386   -2.730947
     59          1           0        3.308689   -0.456748   -3.460190
     60          6           0        5.004774   -1.422039   -2.649509
     61          6           0        4.865877    1.031146   -3.224754
     62          1           0        5.428543    0.744833   -4.118767
     63          1           0        5.607849    1.306937   -2.460663
     64          8           0        5.790403   -1.736298   -3.506972
     65          6           0        3.931398    2.213246   -3.492933
     66          1           0        3.256890    1.976749   -4.326050
     67          1           0        3.298829    2.376782   -2.614904
     68          6           0        4.691071    3.515583   -3.788370
     69          1           0        5.480257    3.663167   -3.042375
     70          1           0        5.203576    3.464045   -4.753852
     71          7           0        3.828724    4.701238   -3.820340
     72          1           0        3.367925    4.854707   -4.707455
     73          7           0        3.619091    4.780640   -1.496993
     74          1           0        3.120274    5.257233   -0.754274
     75          1           0        4.617359    4.951075   -1.441554
     76          7           0        1.879691    5.612486   -2.770195
     77          1           0        1.516434    5.681646   -3.721190
     78          6           0        3.051898    5.065384   -2.736648
     79          8           0        4.846155   -2.149311   -1.500158
     80          1           0        5.463689   -2.903114   -1.571549
     81          1           0       -0.885105   -1.618830    1.378476
 ---------------------------------------------------------------------

 SCF Done:  E(RB3LYP) =  -2053.99312692     A.U. after    1 cycles

 Alpha  occ. eigenvalues --  -19.34517 -19.30227 -19.26573 -19.24088 -19.23659
 Alpha  occ. eigenvalues --  -19.23519 -19.21701 -19.21378 -14.63583 -14.47613
 Alpha  occ. eigenvalues --  -14.47498 -14.46043 -14.43432 -14.43156 -14.42525
 Alpha  occ. eigenvalues --  -14.37119 -10.44527 -10.42905 -10.41760 -10.40439
 Alpha  occ. eigenvalues --  -10.40368 -10.38749 -10.36759 -10.34810 -10.34607
 Alpha  occ. eigenvalues --  -10.34462 -10.33457 -10.33122 -10.32090 -10.30703
 Alpha  occ. eigenvalues --  -10.28716 -10.28454 -10.28233 -10.28118 -10.27905
 Alpha  occ. eigenvalues --  -10.26629 -10.25604 -10.25539 -10.25364 -10.25324
 Alpha  occ. eigenvalues --  -10.24997 -10.24839  -1.23455  -1.20381  -1.17621
 Alpha  occ. eigenvalues --   -1.17512  -1.15442  -1.13793  -1.11790  -1.11404
 Alpha  occ. eigenvalues --   -1.09695  -1.06318  -1.06140  -1.03986  -1.03653
 Alpha  occ. eigenvalues --   -1.02918  -0.97008  -0.96152  -0.92671  -0.90932
 Alpha  occ. eigenvalues --   -0.90130  -0.89282  -0.87926  -0.86993  -0.84121
 Alpha  occ. eigenvalues --   -0.83507  -0.81048  -0.80742  -0.79866  -0.78747
 Alpha  occ. eigenvalues --   -0.76578  -0.76318  -0.75029  -0.74999  -0.73934
 Alpha  occ. eigenvalues --   -0.72835  -0.71298  -0.70301  -0.69381  -0.69126
 Alpha  occ. eigenvalues --   -0.68720  -0.67999  -0.67548  -0.67117  -0.66055
 Alpha  occ. eigenvalues --   -0.65573  -0.63696  -0.63274  -0.62450  -0.61909
 Alpha  occ. eigenvalues --   -0.61808  -0.61176  -0.60845  -0.59816  -0.59360
 Alpha  occ. eigenvalues --   -0.58421  -0.58164  -0.57463  -0.57071  -0.56722
 Alpha  occ. eigenvalues --   -0.56256  -0.55891  -0.55272  -0.55121  -0.54895
 Alpha  occ. eigenvalues --   -0.54361  -0.54016  -0.53773  -0.53670  -0.53288
 Alpha  occ. eigenvalues --   -0.52894  -0.52622  -0.51997  -0.51912  -0.51615
 Alpha  occ. eigenvalues --   -0.51188  -0.50220  -0.49922  -0.49845  -0.49632
 Alpha  occ. eigenvalues --   -0.49327  -0.48902  -0.48622  -0.48549  -0.47964
 Alpha  occ. eigenvalues --   -0.47792  -0.47247  -0.46892  -0.46669  -0.46081
 Alpha  occ. eigenvalues --   -0.45702  -0.45416  -0.44944  -0.44252  -0.43715
 Alpha  occ. eigenvalues --   -0.42990  -0.42484  -0.42282  -0.42155  -0.41647
 Alpha  occ. eigenvalues --   -0.41009  -0.40269  -0.39918  -0.39469  -0.38999
 Alpha  occ. eigenvalues --   -0.38546  -0.36831  -0.36400  -0.35546  -0.35261
 Alpha  occ. eigenvalues --   -0.34998  -0.34578  -0.34159  -0.33972  -0.30756
 Alpha  occ. eigenvalues --   -0.28769  -0.27053
 Alpha virt. eigenvalues --   -0.16123  -0.12371  -0.10153  -0.08894  -0.08167
 Alpha virt. eigenvalues --   -0.08022  -0.07578  -0.07563  -0.06089  -0.04824
 Alpha virt. eigenvalues --   -0.04125  -0.03762  -0.03679  -0.02737  -0.02178

 Mulliken charges:
               1
     1  N   -0.736823
     2  H    0.437164
     3  H    0.433027
     4  H    0.424694
     5  C   -0.122525
     6  H    0.236322
     7  C    0.586456
     8  C   -0.298728
     9  H    0.226057
    10  H    0.184070
    11  O   -0.661205
    12  C   -0.438686
    13  H    0.194068
    14  H    0.193210
    15  C    0.595273
    16  O   -0.414960
    17  O   -0.594988
    18  N   -0.467060
    19  H    0.466912
    20  C   -0.075204
    21  H    0.170640
    22  C    0.550684
    23  C   -0.372816
    24  H    0.178299
    25  H    0.175677
    26  O   -0.521846
    27  C    0.024448
    28  C    0.017645
    29  H    0.162049
    30  C    0.076145
    31  C    0.294486
    32  C   -0.260287
    33  H    0.120215
    34  N   -0.700452
    35  H    0.388497
    36  C   -0.148127
    37  H    0.130372
    38  C   -0.155192
    39  H    0.114261
    40  C   -0.112204
    41  H    0.132478
    42  N   -0.642232
    43  H    0.392704
    44  C   -0.045997
    45  H    0.195573
    46  C    0.605261
    47  C    0.141332
    48  H    0.133953
    49  O   -0.519286
    50  C   -0.494989
    51  H    0.141113
    52  H    0.167714
    53  H    0.182943
    54  O   -0.650020
    55  H    0.426883
    56  N   -0.602972
    57  H    0.345130
    58  C   -0.074129
    59  H    0.229708
    60  C    0.608587
    61  C   -0.283127
    62  H    0.188058
    63  H    0.141170
    64  O   -0.431316
    65  C   -0.273681
    66  H    0.149041
    67  H    0.180735
    68  C   -0.154158
    69  H    0.150873
    70  H    0.170062
    71  N   -0.577546
    72  H    0.327176
    73  N   -0.737281
    74  H    0.344700
    75  H    0.337217
    76  N   -0.692025
    77  H    0.287674
    78  C    0.601860
    79  O   -0.596694
    80  H    0.429147
    81  H    0.464790
 Sum of Mulliken charges =   1.00000

 Dipole moment (field-independent basis, Debye):
    X=              3.4897    Y=             -7.8942    Z=              9.5541  Tot=             12.8755
 Quadrupole moment (field-independent basis, Debye-Ang):
   XX=           -200.9880   YY=           -215.1539   ZZ=           -159.6906
   XY=             46.7616   XZ=            -36.3772   YZ=            -71.9582

 Normal termination of Gaussian 16 at Sat May 14 21:08:54 2022.
