 Gaussian 16, Revision C.01,
 Gaussian 16:  ES64L-G16RevC.01  3-Jul-2019

 ----------------------------------------------------------------------
 # B3LYP/6-31G* empiricaldispersion=gd3 guess=read geom=check nosymm in
 tegral(ultrafinegrid)
 ----------------------------------------------------------------------

 ------------------------------------------------------
 Candidate Structure: Conf:448 Charge calc in gas phase
 ------------------------------------------------------
 Structure from the checkpoint file:  "conf-448.chk"
 Charge =  1 Multiplicity = 1

                          Input orientation:
 ---------------------------------------------------------------------
 Center     Atomic      Atomic             Coordinates (Angstroms)
 Number     Number       Type             X           Y           Z
 ---------------------------------------------------------------------
      1          7           0       -2.340045    2.923023    2.975957
      2          1           0       -3.199565    3.449741    2.779022
      3          1           0       -2.592770    2.065690    3.490259
      4          1           0       -1.726599    3.493675    3.580178
      5          6           0       -1.562791    2.539344    1.725714
      6          1           0       -1.604614    3.366358    1.014659
      7          6           0       -2.094357    1.235598    1.179094
      8          6           0       -0.121535    2.158220    2.126769
      9          1           0       -0.192298    1.259896    2.746028
     10          1           0        0.394506    1.889836    1.202168
     11          8           0       -2.390047    0.281379    2.032972
     12          6           0        0.760913    3.139103    2.893014
     13          1           0        0.365906    3.402971    3.884361
     14          1           0        0.978827    4.050340    2.325173
     15          6           0        2.082136    2.248446    3.117767
     16          8           0        2.552636    1.813973    2.020462
     17          8           0        2.377845    2.005919    4.287605
     18          7           0       -2.078747    1.066413   -0.110216
     19          1           0       -1.841140    1.896464   -0.655709
     20          6           0       -1.821800   -0.218386   -0.825537
     21          1           0       -2.493107   -0.978331   -0.419576
     22          6           0       -0.334939   -0.427822   -0.425061
     23          6           0       -2.029016   -0.029084   -2.335621
     24          1           0       -1.896330   -1.018532   -2.789356
     25          1           0       -1.207098    0.595785   -2.711955
     26          8           0        0.513716    0.307672   -0.900152
     27          6           0       -3.373468    0.540561   -2.703981
     28          6           0       -4.450576   -0.189424   -3.152287
     29          1           0       -4.522235   -1.248010   -3.365169
     30          6           0       -3.821114    1.918156   -2.621590
     31          6           0       -5.184039    1.932409   -3.040034
     32          6           0       -3.236367    3.144427   -2.234729
     33          1           0       -2.199987    3.239978   -1.910918
     34          7           0       -5.532780    0.634650   -3.351305
     35          1           0       -6.417782    0.346313   -3.741975
     36          6           0       -5.343751    4.287935   -2.693668
     37          1           0       -5.911113    5.213512   -2.721604
     38          6           0       -5.951393    3.101073   -3.084166
     39          1           0       -6.985536    3.081149   -3.416701
     40          6           0       -3.999445    4.306844   -2.271382
     41          1           0       -3.539266    5.248624   -1.984947
     42          7           0       -0.149545   -1.227583    0.656841
     43          1           0       -0.726444   -2.053073    0.759966
     44          6           0        1.034161   -1.065905    1.501360
     45          1           0        1.167016    0.006293    1.629979
     46          6           0        2.321965   -1.619512    0.838397
     47          6           0        0.715283   -1.679346    2.860717
     48          1           0        0.534022   -2.756708    2.743648
     49          8           0        2.349071   -2.737927    0.341062
     50          6           0        1.781874   -1.412276    3.910156
     51          1           0        2.718064   -1.892493    3.607968
     52          1           0        1.487808   -1.841300    4.875589
     53          1           0        1.973015   -0.341026    4.038460
     54          8           0       -0.568851   -1.061406    3.274738
     55          1           0       -0.782307   -1.360525    4.174507
     56          7           0        3.301382   -0.694314    0.848983
     57          1           0        3.123490    0.204585    1.331948
     58          6           0        4.451003   -0.711298   -0.045401
     59          1           0        4.621870   -1.752438   -0.332528
     60          6           0        5.676857   -0.224503    0.729631
     61          6           0        4.187613    0.172198   -1.294913
     62          1           0        3.543544   -0.406216   -1.970221
     63          1           0        5.141964    0.346268   -1.803828
     64          8           0        6.316747    0.767330    0.460970
     65          6           0        3.479678    1.492592   -0.952525
     66          1           0        2.539466    1.269811   -0.449885
     67          1           0        4.078264    2.066969   -0.234757
     68          6           0        3.134451    2.366735   -2.162636
     69          1           0        4.024185    2.850565   -2.580775
     70          1           0        2.677913    1.767627   -2.955176
     71          7           0        2.168757    3.424512   -1.776526
     72          1           0        2.434942    3.843438   -0.889833
     73          7           0        0.363240    2.719700   -3.071331
     74          1           0       -0.626075    2.863663   -3.233090
     75          1           0        0.921000    3.010722   -3.865786
     76          7           0       -0.066478    3.502648   -0.922950
     77          1           0        0.450701    3.749750   -0.078052
     78          6           0        0.801590    3.222953   -1.854899
     79          8           0        5.949157   -1.028294    1.781414
     80          1           0        6.716903   -0.634955    2.240420
     81          1           0       -1.606713   -0.288029    2.431893
 ---------------------------------------------------------------------

 SCF Done:  E(RB3LYP) =  -2053.92778396     A.U. after    1 cycles

 Alpha  occ. eigenvalues --  -19.35036 -19.31367 -19.25248 -19.24570 -19.19844
 Alpha  occ. eigenvalues --  -19.18709 -19.16097 -19.15721 -14.64315 -14.56264
 Alpha  occ. eigenvalues --  -14.48649 -14.47676 -14.43400 -14.43000 -14.42190
 Alpha  occ. eigenvalues --  -14.38966 -10.49905 -10.43252 -10.41680 -10.38318
 Alpha  occ. eigenvalues --  -10.37901 -10.37784 -10.36739 -10.36198 -10.34656
 Alpha  occ. eigenvalues --  -10.33218 -10.33050 -10.31925 -10.31492 -10.31149
 Alpha  occ. eigenvalues --  -10.29998 -10.29250 -10.28898 -10.28691 -10.28631
 Alpha  occ. eigenvalues --  -10.28212 -10.28071 -10.27606 -10.27518 -10.26938
 Alpha  occ. eigenvalues --  -10.24813 -10.23496  -1.25684  -1.18454  -1.17145
 Alpha  occ. eigenvalues --   -1.16816  -1.16174  -1.12751  -1.10543  -1.09125
 Alpha  occ. eigenvalues --   -1.07661  -1.07296  -1.06489  -1.04816  -1.00992
 Alpha  occ. eigenvalues --   -0.99526  -0.97077  -0.96982  -0.93743  -0.93393
 Alpha  occ. eigenvalues --   -0.92698  -0.89921  -0.88118  -0.86045  -0.85419
 Alpha  occ. eigenvalues --   -0.83040  -0.82381  -0.81961  -0.80606  -0.79726
 Alpha  occ. eigenvalues --   -0.78012  -0.77728  -0.76715  -0.75113  -0.74324
 Alpha  occ. eigenvalues --   -0.73054  -0.72742  -0.71723  -0.71054  -0.69477
 Alpha  occ. eigenvalues --   -0.69103  -0.68666  -0.67843  -0.67348  -0.66268
 Alpha  occ. eigenvalues --   -0.66218  -0.64737  -0.64368  -0.63992  -0.63747
 Alpha  occ. eigenvalues --   -0.62870  -0.62551  -0.60334  -0.59063  -0.58877
 Alpha  occ. eigenvalues --   -0.58267  -0.57958  -0.57711  -0.56804  -0.56691
 Alpha  occ. eigenvalues --   -0.56306  -0.56178  -0.55947  -0.54899  -0.54653
 Alpha  occ. eigenvalues --   -0.53866  -0.53746  -0.53407  -0.52800  -0.52611
 Alpha  occ. eigenvalues --   -0.52342  -0.51960  -0.51670  -0.51156  -0.50778
 Alpha  occ. eigenvalues --   -0.50719  -0.50299  -0.50025  -0.49295  -0.49137
 Alpha  occ. eigenvalues --   -0.48703  -0.48586  -0.48314  -0.48003  -0.47617
 Alpha  occ. eigenvalues --   -0.47555  -0.47468  -0.47134  -0.46711  -0.46372
 Alpha  occ. eigenvalues --   -0.45912  -0.44995  -0.44826  -0.44480  -0.43655
 Alpha  occ. eigenvalues --   -0.43398  -0.43107  -0.42827  -0.42499  -0.41806
 Alpha  occ. eigenvalues --   -0.40649  -0.39707  -0.38588  -0.38021  -0.37555
 Alpha  occ. eigenvalues --   -0.37312  -0.36948  -0.34273  -0.33989  -0.32655
 Alpha  occ. eigenvalues --   -0.31842  -0.31681  -0.31590  -0.31215  -0.30610
 Alpha  occ. eigenvalues --   -0.30093  -0.29446
 Alpha virt. eigenvalues --   -0.21354  -0.13839  -0.11419  -0.10950  -0.08491
 Alpha virt. eigenvalues --   -0.07572  -0.07076  -0.06609  -0.05824  -0.05266
 Alpha virt. eigenvalues --   -0.05260  -0.04498  -0.03870  -0.03479  -0.03117

 Mulliken charges:
               1
     1  N   -0.728840
     2  H    0.429500
     3  H    0.420718
     4  H    0.424833
     5  C   -0.121069
     6  H    0.253466
     7  C    0.612189
     8  C   -0.372702
     9  H    0.170687
    10  H    0.256643
    11  O   -0.653203
    12  C   -0.380834
    13  H    0.133586
    14  H    0.163539
    15  C    0.585662
    16  O   -0.580158
    17  O   -0.514192
    18  N   -0.510112
    19  H    0.427485
    20  C   -0.058106
    21  H    0.187732
    22  C    0.609189
    23  C   -0.423899
    24  H    0.187110
    25  H    0.219103
    26  O   -0.465463
    27  C    0.045529
    28  C    0.010885
    29  H    0.169715
    30  C    0.074354
    31  C    0.314928
    32  C   -0.299251
    33  H    0.170437
    34  N   -0.680300
    35  H    0.346062
    36  C   -0.152432
    37  H    0.147969
    38  C   -0.155450
    39  H    0.148254
    40  C   -0.157305
    41  H    0.137139
    42  N   -0.621094
    43  H    0.349657
    44  C   -0.089993
    45  H    0.199394
    46  C    0.635567
    47  C    0.101736
    48  H    0.174250
    49  O   -0.529545
    50  C   -0.514399
    51  H    0.204820
    52  H    0.151993
    53  H    0.230876
    54  O   -0.693130
    55  H    0.433275
    56  N   -0.639690
    57  H    0.418463
    58  C   -0.050329
    59  H    0.201695
    60  C    0.583344
    61  C   -0.265598
    62  H    0.145596
    63  H    0.164282
    64  O   -0.451696
    65  C   -0.307358
    66  H    0.186344
    67  H    0.172661
    68  C   -0.160554
    69  H    0.168062
    70  H    0.163065
    71  N   -0.580706
    72  H    0.327468
    73  N   -0.738594
    74  H    0.345917
    75  H    0.347386
    76  N   -0.752889
    77  H    0.280996
    78  C    0.633805
    79  O   -0.559540
    80  H    0.419272
    81  H    0.521794
 Sum of Mulliken charges =   1.00000

 Dipole moment (field-independent basis, Debye):
    X=            -18.5131    Y=              6.8124    Z=              4.2902  Tot=             20.1879
 Quadrupole moment (field-independent basis, Debye-Ang):
   XX=           -183.6566   YY=           -206.2050   ZZ=           -190.4879
   XY=            -29.1711   XZ=            -16.3869   YZ=              5.2349

 Normal termination of Gaussian 16 at Sat May 14 21:09:07 2022.
