 Gaussian 16, Revision C.01,
 Gaussian 16:  ES64L-G16RevC.01  3-Jul-2019

 ----------------------------------------------------------------------
 # B3LYP/6-31G* empiricaldispersion=gd3 guess=read geom=check nosymm in
 tegral(ultrafinegrid)
 ----------------------------------------------------------------------

 ------------------------------------------------------
 Candidate Structure: Conf:879 Charge calc in gas phase
 ------------------------------------------------------
 Structure from the checkpoint file:  "conf-879.chk"
 Charge =  1 Multiplicity = 1

                          Input orientation:
 ---------------------------------------------------------------------
 Center     Atomic      Atomic             Coordinates (Angstroms)
 Number     Number       Type             X           Y           Z
 ---------------------------------------------------------------------
      1          7           0       -4.056798    1.283035    3.297063
      2          1           0       -4.879752    0.724938    2.998866
      3          1           0       -3.408963    0.619929    3.754945
      4          1           0       -4.359106    2.007971    3.954463
      5          6           0       -3.315465    1.860852    2.107077
      6          1           0       -4.081067    2.202246    1.407280
      7          6           0       -2.630669    0.603180    1.503910
      8          6           0       -2.442826    3.030654    2.574667
      9          1           0       -3.107186    3.807493    2.977607
     10          1           0       -1.775400    2.663433    3.362355
     11          8           0       -2.508403   -0.414251    2.186613
     12          6           0       -1.538448    3.587412    1.470097
     13          1           0       -1.210763    4.605081    1.704697
     14          1           0       -2.053211    3.670969    0.502389
     15          6           0       -0.315468    2.651477    1.306949
     16          8           0        0.465674    2.925257    0.338894
     17          8           0       -0.232239    1.665549    2.070153
     18          7           0       -2.367382    0.654377    0.179405
     19          1           0       -2.312025    1.533930   -0.338883
     20          6           0       -2.641136   -0.478376   -0.681962
     21          1           0       -2.938176   -1.301412   -0.017736
     22          6           0       -1.410614   -0.956957   -1.423941
     23          6           0       -3.805529   -0.159048   -1.659332
     24          1           0       -4.185700   -1.104527   -2.063023
     25          1           0       -3.396460    0.407358   -2.499558
     26          8           0       -1.271246   -1.108915   -2.594789
     27          6           0       -4.874226    0.656105   -0.990432
     28          6           0       -5.220310    1.935587   -1.351429
     29          1           0       -4.867523    2.526605   -2.185648
     30          6           0       -5.616021    0.360973    0.213353
     31          6           0       -6.392580    1.520828    0.522131
     32          6           0       -5.671474   -0.735842    1.092588
     33          1           0       -5.107061   -1.641079    0.890455
     34          7           0       -6.127453    2.459299   -0.451360
     35          1           0       -6.596346    3.348228   -0.550367
     36          6           0       -7.226250    0.507009    2.517238
     37          1           0       -7.853969    0.533467    3.403133
     38          6           0       -7.197089    1.607001    1.663693
     39          1           0       -7.785062    2.496135    1.873249
     40          6           0       -6.468719   -0.654877    2.235487
     41          1           0       -6.530404   -1.506557    2.907098
     42          7           0       -0.245752   -1.316312   -0.494487
     43          1           0        0.243649   -2.127440   -0.953361
     44          6           0        0.846593   -0.250249   -0.526182
     45          1           0        0.351059    0.710973   -0.671214
     46          6           0        1.701921   -0.653429   -1.738506
     47          6           0        1.696222   -0.181625    0.775854
     48          1           0        1.003445   -0.004560    1.608037
     49          8           0        1.574496   -1.782264   -2.224895
     50          6           0        2.546730   -1.421216    1.007976
     51          1           0        1.928236   -2.327397    1.075310
     52          1           0        3.083069   -1.305659    1.951937
     53          1           0        3.273693   -1.554667    0.202515
     54          8           0        2.527223    0.951332    0.599295
     55          1           0        1.960421    1.765402    0.725858
     56          7           0        2.546501    0.306281   -2.136569
     57          1           0        2.698558    1.039696   -1.444144
     58          6           0        3.510567    0.172448   -3.213720
     59          1           0        3.158003   -0.634527   -3.866966
     60          6           0        4.906644   -0.260729   -2.742763
     61          6           0        3.583686    1.489451   -4.005050
     62          1           0        4.455354    1.430896   -4.661453
     63          1           0        3.795096    2.300413   -3.293201
     64          8           0        5.903591   -0.133357   -3.414369
     65          6           0        2.298984    1.790524   -4.814812
     66          1           0        2.558249    1.911549   -5.872867
     67          1           0        1.607891    0.941352   -4.759987
     68          6           0        1.532256    3.054002   -4.377005
     69          1           0        2.228972    3.882627   -4.214419
     70          1           0        0.875906    3.386426   -5.194875
     71          7           0        0.746610    2.916774   -3.153603
     72          1           0        1.078183    3.358902   -2.307007
     73          7           0       -0.872621    1.543220   -4.137493
     74          1           0       -1.827825    1.225145   -4.061890
     75          1           0       -0.638092    1.903372   -5.051862
     76          7           0       -1.123176    2.167882   -1.915910
     77          1           0       -0.609680    2.666037   -1.181387
     78          6           0       -0.438665    2.237119   -3.021797
     79          8           0        4.897385   -0.828058   -1.518381
     80          1           0        5.818451   -1.088984   -1.323187
     81          1           0       -0.615178   -1.531920    0.439335
 ---------------------------------------------------------------------

 SCF Done:  E(RB3LYP) =  -2054.00783986     A.U. after    1 cycles

 Alpha  occ. eigenvalues --  -19.29556 -19.27394 -19.25610 -19.22057 -19.21645
 Alpha  occ. eigenvalues --  -19.21345 -19.17209 -19.17086 -14.58317 -14.55657
 Alpha  occ. eigenvalues --  -14.49860 -14.47630 -14.44928 -14.43354 -14.42964
 Alpha  occ. eigenvalues --  -14.35912 -10.44989 -10.42672 -10.39593 -10.38659
 Alpha  occ. eigenvalues --  -10.38399 -10.37246 -10.36949 -10.35267 -10.34220
 Alpha  occ. eigenvalues --  -10.33984 -10.33576 -10.32302 -10.32216 -10.31193
 Alpha  occ. eigenvalues --  -10.31189 -10.31050 -10.30911 -10.30808 -10.30795
 Alpha  occ. eigenvalues --  -10.30742 -10.30408 -10.30114 -10.28029 -10.26974
 Alpha  occ. eigenvalues --  -10.26539 -10.25266  -1.21313  -1.18166  -1.17799
 Alpha  occ. eigenvalues --   -1.14119  -1.12547  -1.10659  -1.09861  -1.09320
 Alpha  occ. eigenvalues --   -1.09113  -1.08666  -1.06066  -1.05586  -1.02331
 Alpha  occ. eigenvalues --   -1.01535  -0.96954  -0.96175  -0.93004  -0.92342
 Alpha  occ. eigenvalues --   -0.91504  -0.89054  -0.88282  -0.86140  -0.85660
 Alpha  occ. eigenvalues --   -0.84320  -0.82888  -0.82579  -0.80199  -0.79042
 Alpha  occ. eigenvalues --   -0.75716  -0.75462  -0.74211  -0.72498  -0.72121
 Alpha  occ. eigenvalues --   -0.71808  -0.71365  -0.70846  -0.70369  -0.69319
 Alpha  occ. eigenvalues --   -0.69147  -0.68301  -0.67688  -0.67225  -0.66817
 Alpha  occ. eigenvalues --   -0.65930  -0.64645  -0.63695  -0.62487  -0.61915
 Alpha  occ. eigenvalues --   -0.61117  -0.60492  -0.59836  -0.59669  -0.58900
 Alpha  occ. eigenvalues --   -0.58664  -0.58319  -0.57791  -0.57238  -0.56725
 Alpha  occ. eigenvalues --   -0.56482  -0.56058  -0.55534  -0.55278  -0.55076
 Alpha  occ. eigenvalues --   -0.54934  -0.54843  -0.54341  -0.54263  -0.53223
 Alpha  occ. eigenvalues --   -0.52934  -0.52769  -0.52280  -0.51436  -0.51429
 Alpha  occ. eigenvalues --   -0.51078  -0.50927  -0.50340  -0.49702  -0.49581
 Alpha  occ. eigenvalues --   -0.49316  -0.48963  -0.48692  -0.48461  -0.48103
 Alpha  occ. eigenvalues --   -0.47215  -0.47102  -0.46965  -0.46487  -0.46068
 Alpha  occ. eigenvalues --   -0.45644  -0.45427  -0.45390  -0.45051  -0.44541
 Alpha  occ. eigenvalues --   -0.43410  -0.43145  -0.42626  -0.42259  -0.42080
 Alpha  occ. eigenvalues --   -0.40152  -0.39889  -0.39583  -0.39153  -0.37792
 Alpha  occ. eigenvalues --   -0.37578  -0.36497  -0.35968  -0.34746  -0.34711
 Alpha  occ. eigenvalues --   -0.34148  -0.33191  -0.32476  -0.32383  -0.32004
 Alpha  occ. eigenvalues --   -0.31034  -0.29889
 Alpha virt. eigenvalues --   -0.15781  -0.13451  -0.12297  -0.10085  -0.08035
 Alpha virt. eigenvalues --   -0.07551  -0.06588  -0.05964  -0.04761  -0.03427
 Alpha virt. eigenvalues --   -0.03392  -0.03042  -0.02715  -0.02426  -0.01683

 Mulliken charges:
               1
     1  N   -0.755874
     2  H    0.422899
     3  H    0.419709
     4  H    0.401462
     5  C   -0.126274
     6  H    0.219723
     7  C    0.685110
     8  C   -0.262440
     9  H    0.140532
    10  H    0.197291
    11  O   -0.552407
    12  C   -0.397389
    13  H    0.191603
    14  H    0.155671
    15  C    0.622157
    16  O   -0.630372
    17  O   -0.564592
    18  N   -0.605709
    19  H    0.395646
    20  C   -0.081825
    21  H    0.198442
    22  C    0.610334
    23  C   -0.371731
    24  H    0.184030
    25  H    0.190047
    26  O   -0.349479
    27  C    0.071847
    28  C    0.001856
    29  H    0.186255
    30  C    0.068237
    31  C    0.295604
    32  C   -0.211851
    33  H    0.152826
    34  N   -0.672892
    35  H    0.350811
    36  C   -0.182819
    37  H    0.163704
    38  C   -0.179005
    39  H    0.159507
    40  C   -0.200008
    41  H    0.162841
    42  N   -0.713590
    43  H    0.418280
    44  C   -0.155476
    45  H    0.244766
    46  C    0.664888
    47  C    0.126442
    48  H    0.192202
    49  O   -0.545084
    50  C   -0.480884
    51  H    0.123048
    52  H    0.182824
    53  H    0.197401
    54  O   -0.656283
    55  H    0.433478
    56  N   -0.583211
    57  H    0.365024
    58  C   -0.083274
    59  H    0.219017
    60  C    0.600170
    61  C   -0.281344
    62  H    0.196660
    63  H    0.142823
    64  O   -0.444665
    65  C   -0.273171
    66  H    0.156862
    67  H    0.174462
    68  C   -0.169505
    69  H    0.171821
    70  H    0.151330
    71  N   -0.603744
    72  H    0.351938
    73  N   -0.745984
    74  H    0.345769
    75  H    0.337461
    76  N   -0.820059
    77  H    0.345637
    78  C    0.637543
    79  O   -0.556506
    80  H    0.424828
    81  H    0.404626
 Sum of Mulliken charges =   1.00000

 Dipole moment (field-independent basis, Debye):
    X=            -17.8844    Y=              6.6197    Z=              2.4802  Tot=             19.2308
 Quadrupole moment (field-independent basis, Debye-Ang):
   XX=           -139.8753   YY=           -208.4183   ZZ=           -188.6342
   XY=            -36.6777   XZ=            -36.2112   YZ=             -9.3888

 Normal termination of Gaussian 16 at Sat May 14 21:08:55 2022.
