 Gaussian 16, Revision C.01,
 Gaussian 16:  ES64L-G16RevC.01  3-Jul-2019

 ----------------------------------------------------------------------
 # B3LYP/6-31G* empiricaldispersion=gd3 guess=read geom=check nosymm in
 tegral(ultrafinegrid)
 ----------------------------------------------------------------------

 ------------------------------------------------------
 Candidate Structure: Conf:674 Charge calc in gas phase
 ------------------------------------------------------
 Structure from the checkpoint file:  "conf-674.chk"
 Charge =  1 Multiplicity = 1

                          Input orientation:
 ---------------------------------------------------------------------
 Center     Atomic      Atomic             Coordinates (Angstroms)
 Number     Number       Type             X           Y           Z
 ---------------------------------------------------------------------
      1          7           0       -4.007344   -1.610947    2.929202
      2          1           0       -4.650765   -1.670166    2.104266
      3          1           0       -3.294298   -2.344846    2.824238
      4          1           0       -4.549600   -1.774004    3.783331
      5          6           0       -3.329095   -0.252996    2.940299
      6          1           0       -4.130421    0.469353    2.782365
      7          6           0       -2.406455   -0.229726    1.731626
      8          6           0       -2.591161    0.018730    4.254330
      9          1           0       -3.296682   -0.037518    5.093271
     10          1           0       -1.817644   -0.744191    4.407357
     11          8           0       -1.805795   -1.424095    1.494256
     12          6           0       -1.939405    1.422570    4.240121
     13          1           0       -1.175661    1.479990    3.457715
     14          1           0       -1.458780    1.587682    5.206171
     15          6           0       -3.002614    2.518204    4.072040
     16          8           0       -3.358826    2.831071    2.808870
     17          8           0       -3.547289    3.027558    5.020616
     18          7           0       -2.355124    0.844912    1.070679
     19          1           0       -2.872553    2.301235    2.125939
     20          6           0       -1.848980    0.905709   -0.304689
     21          1           0       -1.927117   -0.090516   -0.757842
     22          6           0       -0.375200    1.295161   -0.181438
     23          6           0       -2.760815    1.899855   -1.066751
     24          1           0       -2.685627    1.677793   -2.134184
     25          1           0       -2.356687    2.907605   -0.929031
     26          8           0       -0.035765    2.379646    0.281960
     27          6           0       -4.169909    1.852913   -0.529741
     28          6           0       -4.859027    2.933030   -0.037898
     29          1           0       -4.582096    3.977973   -0.044290
     30          6           0       -4.965422    0.692875   -0.196366
     31          6           0       -6.109669    1.156860    0.524937
     32          6           0       -4.797895   -0.693080   -0.355050
     33          1           0       -3.960067   -1.087779   -0.922480
     34          7           0       -6.029843    2.526267    0.570017
     35          1           0       -6.674213    3.137041    1.049349
     36          6           0       -6.837092   -1.081777    0.944175
     37          1           0       -7.558012   -1.782143    1.356434
     38          6           0       -7.043524    0.286391    1.098389
     39          1           0       -7.903081    0.665513    1.643777
     40          6           0       -5.721873   -1.570986    0.219820
     41          1           0       -5.623606   -2.640921    0.049089
     42          7           0        0.486368    0.270895   -0.429611
     43          1           0        0.141153   -0.537012   -0.928863
     44          6           0        1.845571    0.233208    0.071218
     45          1           0        1.996400    1.189085    0.584978
     46          6           0        2.898159    0.142081   -1.053938
     47          6           0        2.020183   -0.928027    1.072968
     48          1           0        2.143776   -1.864697    0.514640
     49          8           0        3.897553   -0.562022   -0.938806
     50          6           0        3.196886   -0.717975    2.014595
     51          1           0        4.116496   -0.636245    1.432885
     52          1           0        3.303193   -1.566272    2.702806
     53          1           0        3.054429    0.196709    2.600464
     54          8           0        0.780708   -1.008582    1.843712
     55          1           0        0.974046   -1.559128    2.619772
     56          7           0        2.654382    0.912049   -2.139886
     57          1           0        1.773705    1.416442   -2.223060
     58          6           0        3.679432    1.056461   -3.162029
     59          1           0        3.909786    0.075943   -3.591274
     60          6           0        4.969872    1.599251   -2.536642
     61          6           0        3.215728    2.016031   -4.279204
     62          1           0        2.246042    1.647818   -4.635308
     63          1           0        3.913354    1.922242   -5.117103
     64          8           0        5.037628    2.263373   -1.530102
     65          6           0        3.111114    3.486069   -3.819183
     66          1           0        2.914243    3.526113   -2.743474
     67          1           0        4.074619    3.988962   -3.962804
     68          6           0        2.022350    4.298211   -4.539589
     69          1           0        2.009847    5.318409   -4.141519
     70          1           0        2.234032    4.386318   -5.610077
     71          7           0        0.666294    3.714148   -4.434236
     72          1           0        0.456539    3.075433   -5.191425
     73          7           0        0.423498    4.057725   -2.152711
     74          1           0        0.151336    3.725191   -1.233537
     75          1           0        0.384650    5.051274   -2.323341
     76          7           0       -0.232185    2.009774   -3.001520
     77          1           0       -0.165365    1.452685   -3.854713
     78          6           0        0.244719    3.203950   -3.205546
     79          8           0        6.028195    1.299912   -3.319894
     80          1           0        6.813813    1.700642   -2.901947
     81          1           0       -0.816221   -1.292437    1.362649
 ---------------------------------------------------------------------

 SCF Done:  E(RB3LYP) =  -2054.00177125     A.U. after    1 cycles

 Alpha  occ. eigenvalues --  -19.31034 -19.28535 -19.26260 -19.26170 -19.21788
 Alpha  occ. eigenvalues --  -19.20993 -19.20421 -19.19618 -14.60248 -14.47562
 Alpha  occ. eigenvalues --  -14.46551 -14.45585 -14.43514 -14.42724 -14.41839
 Alpha  occ. eigenvalues --  -14.37391 -10.42164 -10.39869 -10.39675 -10.39349
 Alpha  occ. eigenvalues --  -10.38538 -10.36888 -10.36702 -10.34860 -10.33894
 Alpha  occ. eigenvalues --  -10.33685 -10.32837 -10.32394 -10.31393 -10.31238
 Alpha  occ. eigenvalues --  -10.30702 -10.29975 -10.29757 -10.29666 -10.29570
 Alpha  occ. eigenvalues --  -10.29451 -10.28847 -10.28076 -10.27724 -10.27494
 Alpha  occ. eigenvalues --  -10.26639 -10.25865  -1.20262  -1.17117  -1.17069
 Alpha  occ. eigenvalues --   -1.14936  -1.14401  -1.13753  -1.11626  -1.09069
 Alpha  occ. eigenvalues --   -1.08166  -1.07713  -1.05776  -1.04679  -1.03157
 Alpha  occ. eigenvalues --   -1.00140  -0.96289  -0.94713  -0.94339  -0.92513
 Alpha  occ. eigenvalues --   -0.90414  -0.88698  -0.87284  -0.86703  -0.84655
 Alpha  occ. eigenvalues --   -0.83943  -0.82457  -0.81793  -0.79827  -0.78160
 Alpha  occ. eigenvalues --   -0.75279  -0.75110  -0.74739  -0.72671  -0.72288
 Alpha  occ. eigenvalues --   -0.71507  -0.70949  -0.70087  -0.69683  -0.69372
 Alpha  occ. eigenvalues --   -0.68868  -0.68551  -0.67130  -0.66370  -0.65431
 Alpha  occ. eigenvalues --   -0.65209  -0.63845  -0.63768  -0.63067  -0.62996
 Alpha  occ. eigenvalues --   -0.61984  -0.61058  -0.59145  -0.58643  -0.58465
 Alpha  occ. eigenvalues --   -0.58012  -0.57901  -0.57300  -0.57015  -0.56758
 Alpha  occ. eigenvalues --   -0.56657  -0.55341  -0.54826  -0.54196  -0.53749
 Alpha  occ. eigenvalues --   -0.53727  -0.53427  -0.53417  -0.53390  -0.52967
 Alpha  occ. eigenvalues --   -0.52504  -0.52273  -0.52067  -0.51693  -0.51357
 Alpha  occ. eigenvalues --   -0.50785  -0.50239  -0.50088  -0.49856  -0.49303
 Alpha  occ. eigenvalues --   -0.48913  -0.48422  -0.48092  -0.47814  -0.47646
 Alpha  occ. eigenvalues --   -0.47531  -0.47163  -0.46882  -0.46433  -0.46130
 Alpha  occ. eigenvalues --   -0.45331  -0.45072  -0.44851  -0.44606  -0.44394
 Alpha  occ. eigenvalues --   -0.44224  -0.43221  -0.43108  -0.42012  -0.41416
 Alpha  occ. eigenvalues --   -0.41343  -0.39884  -0.39491  -0.38705  -0.38312
 Alpha  occ. eigenvalues --   -0.37224  -0.36989  -0.35966  -0.35309  -0.34646
 Alpha  occ. eigenvalues --   -0.34608  -0.33204  -0.32994  -0.32723  -0.32643
 Alpha  occ. eigenvalues --   -0.30997  -0.30106
 Alpha virt. eigenvalues --   -0.14128  -0.11857  -0.10115  -0.09066  -0.08165
 Alpha virt. eigenvalues --   -0.07452  -0.06779  -0.05674  -0.05239  -0.04255
 Alpha virt. eigenvalues --   -0.03970  -0.03035  -0.02833  -0.02196  -0.01755

 Mulliken charges:
               1
     1  N   -0.755157
     2  H    0.415318
     3  H    0.413960
     4  H    0.411348
     5  C   -0.111507
     6  H    0.244196
     7  C    0.558925
     8  C   -0.292429
     9  H    0.186578
    10  H    0.163866
    11  O   -0.687753
    12  C   -0.380098
    13  H    0.190314
    14  H    0.205152
    15  C    0.573748
    16  O   -0.601587
    17  O   -0.432060
    18  N   -0.447720
    19  H    0.458992
    20  C   -0.089906
    21  H    0.138699
    22  C    0.683526
    23  C   -0.346226
    24  H    0.188534
    25  H    0.170598
    26  O   -0.543684
    27  C    0.070599
    28  C    0.025479
    29  H    0.181327
    30  C    0.081302
    31  C    0.319364
    32  C   -0.220601
    33  H    0.145904
    34  N   -0.673723
    35  H    0.350449
    36  C   -0.172841
    37  H    0.152323
    38  C   -0.162878
    39  H    0.157483
    40  C   -0.242478
    41  H    0.150360
    42  N   -0.611784
    43  H    0.335741
    44  C   -0.090354
    45  H    0.222169
    46  C    0.638637
    47  C    0.143010
    48  H    0.157242
    49  O   -0.528275
    50  C   -0.496667
    51  H    0.226015
    52  H    0.147308
    53  H    0.166260
    54  O   -0.675077
    55  H    0.414770
    56  N   -0.642723
    57  H    0.391110
    58  C   -0.019140
    59  H    0.187714
    60  C    0.619591
    61  C   -0.306119
    62  H    0.130415
    63  H    0.179309
    64  O   -0.467051
    65  C   -0.300627
    66  H    0.190778
    67  H    0.161015
    68  C   -0.157311
    69  H    0.162864
    70  H    0.163525
    71  N   -0.575126
    72  H    0.318854
    73  N   -0.761637
    74  H    0.391853
    75  H    0.343678
    76  N   -0.705568
    77  H    0.272381
    78  C    0.574953
    79  O   -0.570677
    80  H    0.420088
    81  H    0.471157
 Sum of Mulliken charges =   1.00000

 Dipole moment (field-independent basis, Debye):
    X=            -10.9719    Y=             -3.3962    Z=              2.7958  Tot=             11.8209
 Quadrupole moment (field-independent basis, Debye-Ang):
   XX=           -159.8598   YY=           -212.5614   ZZ=           -186.4869
   XY=             25.3771   XZ=            -42.4615   YZ=            -53.4809

 Normal termination of Gaussian 16 at Sat May 14 21:09:13 2022.
