 Gaussian 16, Revision C.01,
 Gaussian 16:  ES64L-G16RevC.01  3-Jul-2019

 ----------------------------------------------------------------------
 # B3LYP/6-31G* empiricaldispersion=gd3 guess=read geom=check nosymm in
 tegral(ultrafinegrid)
 ----------------------------------------------------------------------

 ------------------------------------------------------
 Candidate Structure: Conf:586 Charge calc in gas phase
 ------------------------------------------------------
 Structure from the checkpoint file:  "conf-586.chk"
 Charge =  1 Multiplicity = 1

                          Input orientation:
 ---------------------------------------------------------------------
 Center     Atomic      Atomic             Coordinates (Angstroms)
 Number     Number       Type             X           Y           Z
 ---------------------------------------------------------------------
      1          7           0       -4.835178    1.939013    0.876191
      2          1           0       -4.311373    1.364619    0.176613
      3          1           0       -5.346673    1.295729    1.488043
      4          1           0       -5.496559    2.521580    0.352194
      5          6           0       -3.791453    2.710921    1.641836
      6          1           0       -3.372203    3.448927    0.943609
      7          6           0       -2.658498    1.692742    1.891472
      8          6           0       -4.331706    3.354411    2.924001
      9          1           0       -4.571722    4.401973    2.721904
     10          1           0       -5.262285    2.869820    3.240450
     11          8           0       -3.195266    0.660999    2.682580
     12          6           0       -3.308566    3.256595    4.080729
     13          1           0       -3.484020    2.324629    4.628208
     14          1           0       -3.409305    4.086562    4.780638
     15          6           0       -1.860108    3.208809    3.632081
     16          8           0       -0.953933    3.806049    4.139888
     17          8           0       -1.586866    2.354557    2.574070
     18          7           0       -2.242194    1.234259    0.608089
     19          1           0       -1.898038    2.036623    0.073368
     20          6           0       -1.381602    0.079412    0.417120
     21          1           0       -1.606873   -0.672826    1.180323
     22          6           0        0.102173    0.483928    0.441890
     23          6           0       -1.674931   -0.543449   -0.993587
     24          1           0       -1.123442   -1.482540   -1.090303
     25          1           0       -1.244978    0.122190   -1.748959
     26          8           0        0.439529    1.648215    0.221025
     27          6           0       -3.140443   -0.727560   -1.237185
     28          6           0       -3.920520   -1.819352   -0.949899
     29          1           0       -3.632462   -2.796104   -0.585623
     30          6           0       -4.040835    0.296765   -1.712098
     31          6           0       -5.362854   -0.230155   -1.640586
     32          6           0       -3.853804    1.623618   -2.148248
     33          1           0       -2.858995    2.047449   -2.233962
     34          7           0       -5.255378   -1.524674   -1.176224
     35          1           0       -6.009942   -2.193278   -1.135553
     36          6           0       -6.275708    1.868443   -2.328196
     37          1           0       -7.129444    2.493005   -2.575319
     38          6           0       -6.489591    0.548386   -1.935671
     39          1           0       -7.493555    0.138571   -1.867611
     40          6           0       -4.969177    2.398005   -2.444124
     41          1           0       -4.827022    3.421610   -2.776820
     42          7           0        1.013983   -0.506335    0.617829
     43          1           0        0.700667   -1.468271    0.541258
     44          6           0        2.346067   -0.289053    0.067582
     45          1           0        2.764245    0.613064    0.522774
     46          6           0        2.201678   -0.068381   -1.459656
     47          6           0        3.252547   -1.485762    0.401662
     48          1           0        4.173677   -1.376127   -0.192090
     49          8           0        1.254778   -0.528988   -2.089132
     50          6           0        3.605120   -1.549715    1.887189
     51          1           0        4.190297   -0.674857    2.190464
     52          1           0        4.206368   -2.441920    2.097738
     53          1           0        2.696541   -1.591700    2.495380
     54          8           0        2.525961   -2.641018   -0.020367
     55          1           0        3.056300   -3.427539    0.178879
     56          7           0        3.167862    0.686629   -2.034282
     57          1           0        3.937955    1.072502   -1.500892
     58          6           0        3.100181    1.052422   -3.441206
     59          1           0        2.951746    0.146999   -4.039638
     60          6           0        4.435001    1.674866   -3.815173
     61          6           0        1.928001    2.021738   -3.739051
     62          1           0        1.022022    1.533352   -3.371628
     63          1           0        1.830640    2.120332   -4.825565
     64          8           0        5.302311    1.971639   -3.020999
     65          6           0        2.094044    3.407044   -3.098768
     66          1           0        2.536432    3.313888   -2.097649
     67          1           0        2.793581    4.010967   -3.688602
     68          6           0        0.772078    4.173191   -2.976806
     69          1           0        0.976777    5.228748   -2.746182
     70          1           0        0.252096    4.141012   -3.944558
     71          7           0       -0.065150    3.568803   -1.934650
     72          1           0        0.431720    3.029319   -1.232134
     73          7           0       -2.047007    4.729841   -2.391264
     74          1           0       -2.658759    5.439628   -2.013479
     75          1           0       -1.667005    4.943096   -3.301630
     76          7           0       -1.635661    4.070467   -0.217751
     77          1           0       -0.881286    3.727420    0.378895
     78          6           0       -1.222210    4.137869   -1.451295
     79          8           0        4.519459    1.897127   -5.138932
     80          1           0        5.385572    2.315005   -5.308124
     81          1           0       -2.462553    0.146175    3.059349
 ---------------------------------------------------------------------

 SCF Done:  E(RB3LYP) =  -2054.02718989     A.U. after    1 cycles

 Alpha  occ. eigenvalues --  -19.28853 -19.28756 -19.28312 -19.23731 -19.22895
 Alpha  occ. eigenvalues --  -19.22788 -19.21723 -19.19677 -14.56808 -14.47725
 Alpha  occ. eigenvalues --  -14.45009 -14.44453 -14.43335 -14.43209 -14.42544
 Alpha  occ. eigenvalues --  -14.36549 -10.44786 -10.41133 -10.40791 -10.38273
 Alpha  occ. eigenvalues --  -10.36938 -10.36924 -10.36367 -10.33455 -10.33336
 Alpha  occ. eigenvalues --  -10.32272 -10.32060 -10.32048 -10.32014 -10.31511
 Alpha  occ. eigenvalues --  -10.30772 -10.30515 -10.29098 -10.28564 -10.28375
 Alpha  occ. eigenvalues --  -10.28225 -10.28150 -10.27872 -10.27771 -10.27271
 Alpha  occ. eigenvalues --  -10.26845 -10.26148  -1.21675  -1.19354  -1.16264
 Alpha  occ. eigenvalues --   -1.13830  -1.11850  -1.11790  -1.11017  -1.10874
 Alpha  occ. eigenvalues --   -1.10443  -1.07585  -1.05956  -1.02105  -1.01614
 Alpha  occ. eigenvalues --   -1.00967  -0.96949  -0.93876  -0.92648  -0.92394
 Alpha  occ. eigenvalues --   -0.90260  -0.88461  -0.87287  -0.85990  -0.83640
 Alpha  occ. eigenvalues --   -0.83170  -0.82857  -0.81274  -0.79078  -0.77599
 Alpha  occ. eigenvalues --   -0.75532  -0.75338  -0.74320  -0.72183  -0.71872
 Alpha  occ. eigenvalues --   -0.71216  -0.69715  -0.69103  -0.68976  -0.68669
 Alpha  occ. eigenvalues --   -0.68351  -0.68018  -0.67508  -0.65872  -0.65352
 Alpha  occ. eigenvalues --   -0.64717  -0.63787  -0.63552  -0.63052  -0.62139
 Alpha  occ. eigenvalues --   -0.60440  -0.60100  -0.59557  -0.58303  -0.58106
 Alpha  occ. eigenvalues --   -0.57914  -0.57177  -0.56799  -0.56670  -0.56295
 Alpha  occ. eigenvalues --   -0.56132  -0.55545  -0.55165  -0.54750  -0.54097
 Alpha  occ. eigenvalues --   -0.53819  -0.53279  -0.53145  -0.52847  -0.52649
 Alpha  occ. eigenvalues --   -0.52285  -0.52138  -0.51852  -0.51659  -0.51244
 Alpha  occ. eigenvalues --   -0.50828  -0.50355  -0.49829  -0.49451  -0.49250
 Alpha  occ. eigenvalues --   -0.49092  -0.48555  -0.48418  -0.48143  -0.47547
 Alpha  occ. eigenvalues --   -0.47284  -0.46651  -0.46414  -0.46232  -0.45628
 Alpha  occ. eigenvalues --   -0.45229  -0.44698  -0.44250  -0.43706  -0.43535
 Alpha  occ. eigenvalues --   -0.43430  -0.43282  -0.42791  -0.42498  -0.42306
 Alpha  occ. eigenvalues --   -0.41687  -0.40497  -0.40315  -0.38019  -0.36821
 Alpha  occ. eigenvalues --   -0.36715  -0.36376  -0.36315  -0.35968  -0.35446
 Alpha  occ. eigenvalues --   -0.34559  -0.33943  -0.33217  -0.32996  -0.32416
 Alpha  occ. eigenvalues --   -0.30623  -0.29974
 Alpha virt. eigenvalues --   -0.11266  -0.09213  -0.08513  -0.07814  -0.07738
 Alpha virt. eigenvalues --   -0.07073  -0.05867  -0.04138  -0.04084  -0.03339
 Alpha virt. eigenvalues --   -0.02605  -0.01851  -0.01459  -0.00944  -0.00772

 Mulliken charges:
               1
     1  N   -0.773173
     2  H    0.461693
     3  H    0.402185
     4  H    0.405832
     5  C   -0.085154
     6  H    0.264242
     7  C    0.645045
     8  C   -0.303354
     9  H    0.194957
    10  H    0.161233
    11  O   -0.635657
    12  C   -0.362920
    13  H    0.198892
    14  H    0.206818
    15  C    0.601750
    16  O   -0.410732
    17  O   -0.480625
    18  N   -0.638955
    19  H    0.364349
    20  C   -0.079955
    21  H    0.131126
    22  C    0.655825
    23  C   -0.383208
    24  H    0.180049
    25  H    0.193634
    26  O   -0.550594
    27  C    0.116994
    28  C   -0.005238
    29  H    0.169373
    30  C   -0.000426
    31  C    0.315624
    32  C   -0.219436
    33  H    0.171436
    34  N   -0.681064
    35  H    0.344497
    36  C   -0.179250
    37  H    0.151330
    38  C   -0.182638
    39  H    0.149673
    40  C   -0.172638
    41  H    0.146433
    42  N   -0.592126
    43  H    0.358045
    44  C   -0.076192
    45  H    0.184183
    46  C    0.646036
    47  C    0.121991
    48  H    0.145321
    49  O   -0.531139
    50  C   -0.463273
    51  H    0.162814
    52  H    0.156471
    53  H    0.166629
    54  O   -0.633533
    55  H    0.409732
    56  N   -0.626779
    57  H    0.354296
    58  C   -0.030583
    59  H    0.204224
    60  C    0.586022
    61  C   -0.282822
    62  H    0.195600
    63  H    0.166937
    64  O   -0.465877
    65  C   -0.314100
    66  H    0.156713
    67  H    0.162454
    68  C   -0.131587
    69  H    0.160171
    70  H    0.147995
    71  N   -0.635404
    72  H    0.382312
    73  N   -0.743224
    74  H    0.343019
    75  H    0.342525
    76  N   -0.734166
    77  H    0.319015
    78  C    0.609679
    79  O   -0.561110
    80  H    0.427108
    81  H    0.424650
 Sum of Mulliken charges =   1.00000

 Dipole moment (field-independent basis, Debye):
    X=            -12.2634    Y=              4.2276    Z=             -1.1713  Tot=             13.0245
 Quadrupole moment (field-independent basis, Debye-Ang):
   XX=           -112.2225   YY=           -194.0897   ZZ=           -210.7897
   XY=            -26.0869   XZ=            -30.1636   YZ=            -29.5910

 Normal termination of Gaussian 16 at Sat May 14 21:09:08 2022.
