 Gaussian 16, Revision C.01,
 Gaussian 16:  ES64L-G16RevC.01  3-Jul-2019

 ----------------------------------------------------------------------
 # B3LYP/6-31G* empiricaldispersion=gd3 guess=read geom=check nosymm in
 tegral(ultrafinegrid)
 ----------------------------------------------------------------------

 ------------------------------------------------------
 Candidate Structure: Conf:727 Charge calc in gas phase
 ------------------------------------------------------
 Structure from the checkpoint file:  "conf-727.chk"
 Charge =  1 Multiplicity = 1

                          Input orientation:
 ---------------------------------------------------------------------
 Center     Atomic      Atomic             Coordinates (Angstroms)
 Number     Number       Type             X           Y           Z
 ---------------------------------------------------------------------
      1          7           0       -3.043479   -1.408754    3.134377
      2          1           0       -3.852682   -1.998471    2.911871
      3          1           0       -2.242245   -1.726257    2.541163
      4          1           0       -2.826764   -1.505297    4.130993
      5          6           0       -3.239902    0.039860    2.713058
      6          1           0       -4.294355    0.299877    2.841376
      7          6           0       -2.809089    0.000534    1.227439
      8          6           0       -2.315137    0.923700    3.578410
      9          1           0       -2.521488    0.691682    4.632878
     10          1           0       -1.278340    0.649169    3.356065
     11          8           0       -1.900675   -0.792984    0.915902
     12          6           0       -2.495867    2.433616    3.349757
     13          1           0       -1.769195    2.955630    3.980524
     14          1           0       -3.497097    2.759305    3.645123
     15          6           0       -2.256310    2.804546    1.866688
     16          8           0       -3.117083    3.483686    1.284892
     17          8           0       -1.241193    2.236103    1.334469
     18          7           0       -3.468205    0.809066    0.410839
     19          1           0       -4.062624    1.505291    0.851524
     20          6           0       -3.060521    1.188425   -0.941822
     21          1           0       -2.987186    0.262893   -1.529438
     22          6           0       -1.682729    1.884485   -1.061055
     23          6           0       -4.150636    2.117422   -1.533160
     24          1           0       -3.899745    2.304137   -2.580691
     25          1           0       -4.071982    3.075971   -1.010032
     26          8           0       -1.482035    2.904284   -1.644480
     27          6           0       -5.526433    1.537676   -1.388648
     28          6           0       -6.173700    0.707622   -2.271394
     29          1           0       -5.869482    0.374755   -3.254674
     30          6           0       -6.391013    1.668008   -0.238473
     31          6           0       -7.540970    0.870854   -0.489096
     32          6           0       -6.303339    2.379731    0.975870
     33          1           0       -5.466547    3.046535    1.178193
     34          7           0       -7.377028    0.297963   -1.734500
     35          1           0       -8.074047   -0.244255   -2.221724
     36          6           0       -8.461911    1.445336    1.633958
     37          1           0       -9.257521    1.379190    2.370338
     38          6           0       -8.583973    0.751251    0.435466
     39          1           0       -9.459062    0.143284    0.223061
     40          6           0       -7.335049    2.251819    1.900198
     41          1           0       -7.289347    2.809055    2.831882
     42          7           0       -0.492821    0.954821   -0.781459
     43          1           0       -0.514043    0.104445   -1.398898
     44          6           0        0.856018    1.531580   -1.050698
     45          1           0        0.713276    2.355998   -1.755481
     46          6           0        1.615660    0.389224   -1.770780
     47          6           0        1.516759    2.109885    0.214111
     48          1           0        0.807653    2.822463    0.645951
     49          8           0        0.974020   -0.600521   -2.146391
     50          6           0        1.898525    1.058933    1.255383
     51          1           0        1.015729    0.523159    1.621140
     52          1           0        2.347285    1.551290    2.125520
     53          1           0        2.621556    0.344842    0.849913
     54          8           0        2.670952    2.791528   -0.300048
     55          1           0        3.108589    3.252396    0.431612
     56          7           0        2.923617    0.586593   -1.971367
     57          1           0        3.344043    1.394104   -1.515079
     58          6           0        3.781746   -0.404503   -2.608389
     59          1           0        3.134381   -1.127594   -3.108256
     60          6           0        4.609664   -1.183806   -1.590183
     61          6           0        4.699295    0.269991   -3.652378
     62          1           0        5.415122    0.926222   -3.135535
     63          1           0        4.050193    0.909001   -4.260799
     64          8           0        5.093229   -2.270366   -1.795973
     65          6           0        5.427116   -0.724906   -4.563378
     66          1           0        6.069999   -1.391165   -3.978054
     67          1           0        4.684383   -1.356554   -5.063101
     68          6           0        6.277880   -0.028842   -5.639655
     69          1           0        7.131927    0.483548   -5.182426
     70          1           0        6.696959   -0.789924   -6.306129
     71          7           0        5.568615    0.983936   -6.435466
     72          1           0        5.565181    1.898996   -6.002639
     73          7           0        4.288583   -0.569542   -7.618027
     74          1           0        3.441333   -0.680028   -8.162508
     75          1           0        5.114182   -0.809019   -8.155194
     76          7           0        3.298264    1.453013   -7.078557
     77          1           0        3.431595    2.290980   -6.508826
     78          6           0        4.335789    0.695313   -7.035637
     79          8           0        4.801281   -0.491216   -0.435746
     80          1           0        5.387225   -1.041769    0.118162
     81          1           0       -0.608970    0.602599    0.186074
 ---------------------------------------------------------------------

 SCF Done:  E(RB3LYP) =  -2053.97225686     A.U. after    1 cycles

 Alpha  occ. eigenvalues --  -19.28688 -19.27490 -19.27260 -19.25989 -19.23212
 Alpha  occ. eigenvalues --  -19.22523 -19.18713 -19.17614 -14.61452 -14.53758
 Alpha  occ. eigenvalues --  -14.49785 -14.46176 -14.46044 -14.40293 -14.39090
 Alpha  occ. eigenvalues --  -14.33657 -10.44031 -10.43956 -10.40862 -10.40606
 Alpha  occ. eigenvalues --  -10.40052 -10.36546 -10.36115 -10.35281 -10.34866
 Alpha  occ. eigenvalues --  -10.33233 -10.33035 -10.32707 -10.30170 -10.29807
 Alpha  occ. eigenvalues --  -10.28650 -10.28640 -10.28294 -10.27926 -10.27321
 Alpha  occ. eigenvalues --  -10.26726 -10.26606 -10.26488 -10.26134 -10.26126
 Alpha  occ. eigenvalues --  -10.25912 -10.24836  -1.19805  -1.19266  -1.19227
 Alpha  occ. eigenvalues --   -1.15321  -1.15072  -1.13112  -1.11551  -1.10280
 Alpha  occ. eigenvalues --   -1.08108  -1.07121  -1.05895  -1.03240  -1.02643
 Alpha  occ. eigenvalues --   -1.02539  -0.94128  -0.93895  -0.91677  -0.90698
 Alpha  occ. eigenvalues --   -0.89643  -0.89240  -0.87303  -0.86217  -0.84194
 Alpha  occ. eigenvalues --   -0.82590  -0.81324  -0.80867  -0.79928  -0.77448
 Alpha  occ. eigenvalues --   -0.76721  -0.74868  -0.74764  -0.73726  -0.73014
 Alpha  occ. eigenvalues --   -0.71665  -0.70549  -0.70186  -0.69869  -0.69300
 Alpha  occ. eigenvalues --   -0.67821  -0.67241  -0.67084  -0.66534  -0.64677
 Alpha  occ. eigenvalues --   -0.64106  -0.64038  -0.63483  -0.62595  -0.61359
 Alpha  occ. eigenvalues --   -0.60766  -0.60393  -0.59967  -0.59597  -0.59306
 Alpha  occ. eigenvalues --   -0.57414  -0.56904  -0.56610  -0.56289  -0.56108
 Alpha  occ. eigenvalues --   -0.55823  -0.55615  -0.55209  -0.54830  -0.54442
 Alpha  occ. eigenvalues --   -0.53808  -0.53498  -0.52926  -0.52606  -0.51898
 Alpha  occ. eigenvalues --   -0.51693  -0.51525  -0.51048  -0.50870  -0.50528
 Alpha  occ. eigenvalues --   -0.50462  -0.50290  -0.49955  -0.49782  -0.49212
 Alpha  occ. eigenvalues --   -0.49080  -0.49016  -0.48646  -0.48392  -0.48070
 Alpha  occ. eigenvalues --   -0.47526  -0.47050  -0.46559  -0.46310  -0.45359
 Alpha  occ. eigenvalues --   -0.45188  -0.44848  -0.44389  -0.43606  -0.43007
 Alpha  occ. eigenvalues --   -0.42575  -0.42222  -0.41755  -0.41709  -0.41259
 Alpha  occ. eigenvalues --   -0.41049  -0.40988  -0.40097  -0.38612  -0.38520
 Alpha  occ. eigenvalues --   -0.37975  -0.36978  -0.35370  -0.34363  -0.34129
 Alpha  occ. eigenvalues --   -0.33238  -0.31868  -0.31490  -0.30635  -0.30207
 Alpha  occ. eigenvalues --   -0.28379  -0.27735
 Alpha virt. eigenvalues --   -0.13746  -0.13357  -0.11314  -0.09308  -0.08560
 Alpha virt. eigenvalues --   -0.07740  -0.06899  -0.05565  -0.05278  -0.04089
 Alpha virt. eigenvalues --   -0.03746  -0.03150  -0.02196  -0.01743  -0.01103

 Mulliken charges:
               1
     1  N   -0.742940
     2  H    0.421883
     3  H    0.426572
     4  H    0.414444
     5  C   -0.124925
     6  H    0.223970
     7  C    0.643575
     8  C   -0.288780
     9  H    0.155234
    10  H    0.185979
    11  O   -0.593976
    12  C   -0.341913
    13  H    0.183507
    14  H    0.167914
    15  C    0.573412
    16  O   -0.536479
    17  O   -0.624346
    18  N   -0.571610
    19  H    0.393438
    20  C   -0.039873
    21  H    0.197247
    22  C    0.635844
    23  C   -0.419977
    24  H    0.183425
    25  H    0.232101
    26  O   -0.375000
    27  C    0.061168
    28  C    0.004011
    29  H    0.164643
    30  C    0.064226
    31  C    0.312543
    32  C   -0.277447
    33  H    0.195605
    34  N   -0.686426
    35  H    0.341134
    36  C   -0.153643
    37  H    0.141028
    38  C   -0.162161
    39  H    0.140838
    40  C   -0.160930
    41  H    0.135405
    42  N   -0.735016
    43  H    0.409550
    44  C   -0.078756
    45  H    0.248749
    46  C    0.615679
    47  C    0.112150
    48  H    0.207200
    49  O   -0.541612
    50  C   -0.497697
    51  H    0.152245
    52  H    0.162272
    53  H    0.182234
    54  O   -0.637526
    55  H    0.418821
    56  N   -0.599930
    57  H    0.382985
    58  C   -0.062133
    59  H    0.220286
    60  C    0.596499
    61  C   -0.290330
    62  H    0.140390
    63  H    0.170103
    64  O   -0.436759
    65  C   -0.280661
    66  H    0.166122
    67  H    0.178135
    68  C   -0.148555
    69  H    0.151231
    70  H    0.161114
    71  N   -0.578460
    72  H    0.310900
    73  N   -0.732061
    74  H    0.341084
    75  H    0.330321
    76  N   -0.633436
    77  H    0.260291
    78  C    0.543723
    79  O   -0.574709
    80  H    0.421468
    81  H    0.445373
 Sum of Mulliken charges =   1.00000

 Dipole moment (field-independent basis, Debye):
    X=             -6.6860    Y=             -4.4253    Z=              8.1991  Tot=             11.4678
 Quadrupole moment (field-independent basis, Debye-Ang):
   XX=           -116.2578   YY=           -251.5088   ZZ=           -180.1698
   XY=             42.9572   XZ=            -35.4465   YZ=             -7.0698

 Normal termination of Gaussian 16 at Sat May 14 21:09:02 2022.
