 Gaussian 16, Revision C.01,
 Gaussian 16:  ES64L-G16RevC.01  3-Jul-2019

 ----------------------------------------------------------------------
 # B3LYP/6-31G* empiricaldispersion=gd3 guess=read geom=check nosymm in
 tegral(ultrafinegrid)
 ----------------------------------------------------------------------

 ------------------------------------------------------
 Candidate Structure: Conf:736 Charge calc in gas phase
 ------------------------------------------------------
 Structure from the checkpoint file:  "conf-736.chk"
 Charge =  1 Multiplicity = 1

                          Input orientation:
 ---------------------------------------------------------------------
 Center     Atomic      Atomic             Coordinates (Angstroms)
 Number     Number       Type             X           Y           Z
 ---------------------------------------------------------------------
      1          7           0       -2.575632    0.369206    5.440493
      2          1           0       -2.827367   -0.617342    5.457703
      3          1           0       -1.598204    0.443591    5.717338
      4          1           0       -4.203636    1.369229    6.212933
      5          6           0       -2.803595    0.976088    4.137260
      6          1           0       -3.876216    0.900596    3.926462
      7          6           0       -2.036064    0.332556    2.992388
      8          6           0       -2.397084    2.474813    4.153762
      9          1           0       -1.303774    2.549638    4.203028
     10          1           0       -2.710066    2.930455    3.207735
     11          8           0       -0.838917   -0.044408    3.303653
     12          6           0       -3.023695    3.248235    5.332097
     13          1           0       -2.812491    4.310744    5.192814
     14          1           0       -2.572073    2.932922    6.278544
     15          6           0       -4.545829    3.079136    5.374302
     16          8           0       -4.968434    1.911899    5.923978
     17          8           0       -5.315738    3.873012    4.897354
     18          7           0       -2.629670    0.217618    1.825168
     19          1           0       -3.580945    0.573085    1.789011
     20          6           0       -2.069019   -0.256182    0.545556
     21          1           0       -2.045612   -1.350500    0.582178
     22          6           0       -0.656206    0.326968    0.428781
     23          6           0       -2.940959    0.197974   -0.650186
     24          1           0       -2.979172    1.294523   -0.642089
     25          1           0       -3.964415   -0.174018   -0.508649
     26          8           0       -0.424964    1.452446    0.869514
     27          6           0       -2.366754   -0.319540   -1.938571
     28          6           0       -2.614022   -1.559369   -2.490370
     29          1           0       -3.326064   -2.318536   -2.193236
     30          6           0       -1.344601    0.299435   -2.750201
     31          6           0       -1.021770   -0.624469   -3.780215
     32          6           0       -0.644629    1.519856   -2.688115
     33          1           0       -0.861796    2.243950   -1.907850
     34          7           0       -1.830657   -1.732383   -3.607742
     35          1           0       -1.786083   -2.570622   -4.166388
     36          6           0        0.658316    0.829297   -4.632789
     37          1           0        1.449776    1.053248   -5.340897
     38          6           0       -0.023785   -0.376878   -4.730663
     39          1           0        0.211921   -1.104717   -5.502002
     40          6           0        0.348968    1.768507   -3.624441
     41          1           0        0.906495    2.698845   -3.581469
     42          7           0        0.259349   -0.515137   -0.083660
     43          1           0       -0.065036   -1.266392   -0.684431
     44          6           0        1.655926   -0.095227   -0.183248
     45          1           0        1.672501    0.981811   -0.369217
     46          6           0        2.323627   -0.728068   -1.411311
     47          6           0        2.374542   -0.385539    1.159275
     48          1           0        2.431527   -1.463546    1.336248
     49          8           0        3.047049   -0.075686   -2.140794
     50          6           0        3.765254    0.232394    1.211874
     51          1           0        4.452826   -0.293176    0.540522
     52          1           0        4.158116    0.154944    2.230991
     53          1           0        3.736597    1.289907    0.922762
     54          8           0        1.547737    0.104396    2.255671
     55          1           0        1.517818    1.075155    2.173060
     56          7           0        1.954733   -2.031555   -1.660026
     57          1           0        1.733545   -2.635040   -0.876785
     58          6           0        2.404822   -2.676612   -2.886254
     59          1           0        2.544372   -1.872218   -3.609598
     60          6           0        1.331476   -3.601524   -3.435904
     61          6           0        3.743025   -3.434276   -2.714735
     62          1           0        4.370662   -2.752084   -2.135700
     63          1           0        4.210373   -3.546909   -3.697198
     64          8           0        1.290582   -4.005333   -4.572740
     65          6           0        3.622951   -4.816020   -2.023836
     66          1           0        2.615047   -4.950682   -1.605884
     67          1           0        3.746756   -5.608998   -2.769551
     68          6           0        4.609959   -5.053959   -0.871556
     69          1           0        4.617007   -6.121791   -0.621693
     70          1           0        5.635366   -4.798632   -1.160648
     71          7           0        4.244014   -4.312964    0.332394
     72          1           0        3.684856   -4.823436    1.002626
     73          7           0        4.481939   -2.846367    2.115445
     74          1           0        5.065715   -2.088110    2.455404
     75          1           0        4.522069   -3.624868    2.768716
     76          7           0        5.700115   -2.395684    0.200418
     77          1           0        5.862094   -2.660150   -0.769181
     78          6           0        4.887201   -3.182282    0.807821
     79          8           0        0.441395   -4.008408   -2.482166
     80          1           0       -0.107969   -4.697616   -2.903805
     81          1           0       -0.069060   -0.154687    2.644340
 ---------------------------------------------------------------------

 SCF Done:  E(RB3LYP) =  -2053.99226068     A.U. after    1 cycles

 Alpha  occ. eigenvalues --  -19.35703 -19.30537 -19.28685 -19.26276 -19.25085
 Alpha  occ. eigenvalues --  -19.24313 -19.22218 -19.20894 -14.55812 -14.49058
 Alpha  occ. eigenvalues --  -14.47899 -14.46953 -14.46700 -14.44515 -14.42954
 Alpha  occ. eigenvalues --  -14.36911 -10.48664 -10.42375 -10.42249 -10.39622
 Alpha  occ. eigenvalues --  -10.39525 -10.38698 -10.38021 -10.36990 -10.35531
 Alpha  occ. eigenvalues --  -10.34256 -10.33644 -10.33005 -10.32447 -10.32447
 Alpha  occ. eigenvalues --  -10.31602 -10.31162 -10.29825 -10.29098 -10.28490
 Alpha  occ. eigenvalues --  -10.28051 -10.27950 -10.27536 -10.27356 -10.26899
 Alpha  occ. eigenvalues --  -10.26639 -10.26560  -1.25845  -1.20993  -1.17565
 Alpha  occ. eigenvalues --   -1.16962  -1.14896  -1.14234  -1.12284  -1.12018
 Alpha  occ. eigenvalues --   -1.09129  -1.07812  -1.06382  -1.05944  -1.04258
 Alpha  occ. eigenvalues --   -1.03051  -0.97731  -0.95074  -0.92683  -0.92611
 Alpha  occ. eigenvalues --   -0.91017  -0.90127  -0.88699  -0.87965  -0.84995
 Alpha  occ. eigenvalues --   -0.84082  -0.82502  -0.82324  -0.80933  -0.79817
 Alpha  occ. eigenvalues --   -0.78622  -0.77382  -0.75451  -0.74025  -0.73292
 Alpha  occ. eigenvalues --   -0.72692  -0.71352  -0.71285  -0.69939  -0.68744
 Alpha  occ. eigenvalues --   -0.68671  -0.68582  -0.67422  -0.66815  -0.66271
 Alpha  occ. eigenvalues --   -0.65613  -0.64615  -0.63742  -0.63416  -0.62968
 Alpha  occ. eigenvalues --   -0.62435  -0.61636  -0.60969  -0.60541  -0.59785
 Alpha  occ. eigenvalues --   -0.59385  -0.58583  -0.58243  -0.57886  -0.57321
 Alpha  occ. eigenvalues --   -0.57025  -0.56616  -0.56342  -0.55556  -0.55394
 Alpha  occ. eigenvalues --   -0.55162  -0.54848  -0.54286  -0.54177  -0.53852
 Alpha  occ. eigenvalues --   -0.53391  -0.52965  -0.51960  -0.51868  -0.51691
 Alpha  occ. eigenvalues --   -0.51441  -0.51276  -0.51090  -0.51029  -0.50787
 Alpha  occ. eigenvalues --   -0.50159  -0.49905  -0.49762  -0.49129  -0.48898
 Alpha  occ. eigenvalues --   -0.48408  -0.47912  -0.47799  -0.47461  -0.47133
 Alpha  occ. eigenvalues --   -0.47053  -0.46820  -0.45490  -0.44935  -0.44619
 Alpha  occ. eigenvalues --   -0.44362  -0.44113  -0.43958  -0.43104  -0.42575
 Alpha  occ. eigenvalues --   -0.42461  -0.41870  -0.41672  -0.39686  -0.39174
 Alpha  occ. eigenvalues --   -0.38948  -0.38756  -0.38547  -0.36922  -0.36071
 Alpha  occ. eigenvalues --   -0.35401  -0.34689  -0.34430  -0.34231  -0.31324
 Alpha  occ. eigenvalues --   -0.31215  -0.29991
 Alpha virt. eigenvalues --   -0.17693  -0.12368  -0.10541  -0.09774  -0.08892
 Alpha virt. eigenvalues --   -0.08099  -0.06909  -0.06338  -0.05173  -0.04635
 Alpha virt. eigenvalues --   -0.04425  -0.03656  -0.03473  -0.02934  -0.02501

 Mulliken charges:
               1
     1  N   -0.731444
     2  H    0.338404
     3  H    0.344169
     4  H    0.439175
     5  C   -0.102524
     6  H    0.195578
     7  C    0.666828
     8  C   -0.289965
     9  H    0.177391
    10  H    0.186736
    11  O   -0.589262
    12  C   -0.363939
    13  H    0.202615
    14  H    0.174618
    15  C    0.577203
    16  O   -0.582480
    17  O   -0.424645
    18  N   -0.577248
    19  H    0.385713
    20  C   -0.018818
    21  H    0.187840
    22  C    0.584933
    23  C   -0.399209
    24  H    0.196536
    25  H    0.175392
    26  O   -0.546425
    27  C    0.021438
    28  C    0.001095
    29  H    0.162976
    30  C    0.081024
    31  C    0.304822
    32  C   -0.220967
    33  H    0.142159
    34  N   -0.676897
    35  H    0.340635
    36  C   -0.140846
    37  H    0.154183
    38  C   -0.176374
    39  H    0.157994
    40  C   -0.131425
    41  H    0.148767
    42  N   -0.604894
    43  H    0.366357
    44  C   -0.089962
    45  H    0.207045
    46  C    0.635306
    47  C    0.130890
    48  H    0.173398
    49  O   -0.485236
    50  C   -0.493889
    51  H    0.227640
    52  H    0.164346
    53  H    0.157004
    54  O   -0.656308
    55  H    0.422813
    56  N   -0.623808
    57  H    0.340251
    58  C   -0.076987
    59  H    0.224251
    60  C    0.601792
    61  C   -0.281834
    62  H    0.174538
    63  H    0.183245
    64  O   -0.449793
    65  C   -0.274350
    66  H    0.135230
    67  H    0.167622
    68  C   -0.167405
    69  H    0.163710
    70  H    0.175982
    71  N   -0.600070
    72  H    0.321584
    73  N   -0.760753
    74  H    0.347823
    75  H    0.322443
    76  N   -0.642143
    77  H    0.289931
    78  C    0.576532
    79  O   -0.588624
    80  H    0.415276
    81  H    0.495290
 Sum of Mulliken charges =   1.00000

 Dipole moment (field-independent basis, Debye):
    X=             -0.7551    Y=            -11.7701    Z=              5.9854  Tot=             13.2261
 Quadrupole moment (field-independent basis, Debye-Ang):
   XX=           -237.2095   YY=           -195.7423   ZZ=           -197.6871
   XY=             -0.6191   XZ=             12.2432   YZ=              1.8714

 Normal termination of Gaussian 16 at Sat May 14 21:09:08 2022.
