 Gaussian 16, Revision C.01,
 Gaussian 16:  ES64L-G16RevC.01  3-Jul-2019

 ----------------------------------------------------------------------
 # B3LYP/6-31G* empiricaldispersion=gd3 guess=read geom=check nosymm in
 tegral(ultrafinegrid)
 ----------------------------------------------------------------------

 ------------------------------------------------------
 Candidate Structure: Conf:883 Charge calc in gas phase
 ------------------------------------------------------
 Structure from the checkpoint file:  "conf-883.chk"
 Charge =  1 Multiplicity = 1

                          Input orientation:
 ---------------------------------------------------------------------
 Center     Atomic      Atomic             Coordinates (Angstroms)
 Number     Number       Type             X           Y           Z
 ---------------------------------------------------------------------
      1          7           0       -4.072888   -1.390896    3.655320
      2          1           0       -5.047226   -1.100576    3.803915
      3          1           0       -4.078168   -2.254353    3.095884
      4          1           0       -3.637835   -1.613661    4.566586
      5          6           0       -3.214179   -0.332745    2.991309
      6          1           0       -3.339461    0.593753    3.557218
      7          6           0       -3.582951   -0.158373    1.554136
      8          6           0       -1.722320   -0.775178    3.007511
      9          1           0       -1.558969   -1.567703    2.268661
     10          1           0       -1.142147    0.083108    2.657605
     11          8           0       -4.125929   -1.230567    0.993329
     12          6           0       -1.208460   -1.170200    4.384324
     13          1           0       -1.502718   -2.181461    4.693768
     14          1           0       -1.531920   -0.462595    5.159572
     15          6           0        0.411663   -1.142848    4.391216
     16          8           0        0.889535   -1.391500    5.490652
     17          8           0        0.930216   -0.857315    3.274808
     18          7           0       -3.166079    0.873720    0.873933
     19          1           0       -2.691265    1.618246    1.401333
     20          6           0       -2.508596    0.804755   -0.478382
     21          1           0       -2.702277   -0.171728   -0.935443
     22          6           0       -1.031871    0.896025    0.018394
     23          6           0       -2.976763    1.957624   -1.357687
     24          1           0       -2.817923    2.897563   -0.806661
     25          1           0       -4.058534    1.844649   -1.517550
     26          8           0       -0.735277    1.772444    0.835837
     27          6           0       -2.273602    2.084261   -2.675899
     28          6           0       -1.102594    1.525467   -3.135128
     29          1           0       -0.408627    0.827855   -2.691983
     30          6           0       -2.731397    2.984465   -3.702820
     31          6           0       -1.792432    2.923382   -4.764823
     32          6           0       -3.824801    3.860629   -3.802582
     33          1           0       -4.550433    3.935171   -2.996241
     34          7           0       -0.818348    2.023276   -4.389570
     35          1           0       -0.007090    1.768327   -4.930589
     36          6           0       -3.018094    4.553326   -5.996517
     37          1           0       -3.151043    5.170320   -6.880317
     38          6           0       -1.925406    3.696994   -5.921238
     39          1           0       -1.199332    3.637387   -6.727102
     40          6           0       -3.957874    4.638113   -4.947226
     41          1           0       -4.797750    5.320432   -5.040852
     42          7           0       -0.264097   -0.135704   -0.340446
     43          1           0       -0.594244   -0.737014   -1.084042
     44          6           0        1.151254   -0.290204   -0.008359
     45          1           0        1.328100    0.271754    0.911963
     46          6           0        1.943304    0.244887   -1.203823
     47          6           0        1.442929   -1.793890    0.254439
     48          1           0        1.284256   -2.329857   -0.691813
     49          8           0        1.560953   -0.019071   -2.348607
     50          6           0        2.879814   -1.992269    0.739962
     51          1           0        3.616009   -1.616561    0.021472
     52          1           0        3.060266   -3.058989    0.897575
     53          1           0        3.014794   -1.479211    1.699063
     54          8           0        0.507247   -2.309419    1.180060
     55          1           0        0.726774   -1.872327    2.043050
     56          7           0        3.031936    0.997489   -0.947851
     57          1           0        3.392018    1.116423   -0.007836
     58          6           0        3.793987    1.573514   -2.047353
     59          1           0        3.863147    0.828403   -2.845611
     60          6           0        5.185874    1.897450   -1.537326
     61          6           0        3.089574    2.831448   -2.607716
     62          1           0        2.041202    2.554510   -2.758515
     63          1           0        3.512881    3.064001   -3.590584
     64          8           0        5.505778    1.890513   -0.368185
     65          6           0        3.190850    4.064088   -1.692481
     66          1           0        3.293518    3.766313   -0.639938
     67          1           0        4.098492    4.627432   -1.937150
     68          6           0        1.965370    4.976781   -1.827232
     69          1           0        2.199512    5.992684   -1.471044
     70          1           0        1.692809    5.047876   -2.884777
     71          7           0        0.838663    4.404942   -1.097294
     72          1           0        1.048334    4.161328   -0.137057
     73          7           0       -0.785575    5.274623   -2.553723
     74          1           0       -1.778895    5.458212   -2.640701
     75          1           0       -0.235994    6.084005   -2.816692
     76          7           0       -1.454900    4.460660   -0.481505
     77          1           0       -1.085763    3.952780    0.322330
     78          6           0       -0.496582    4.727001   -1.306328
     79          8           0        6.007642    2.241593   -2.544401
     80          1           0        6.872357    2.464970   -2.149622
     81          1           0       -4.259417   -1.134223    0.030756
 ---------------------------------------------------------------------

 SCF Done:  E(RB3LYP) =  -2053.90146347     A.U. after    1 cycles

 Alpha  occ. eigenvalues --  -19.42179 -19.28252 -19.25114 -19.22803 -19.20847
 Alpha  occ. eigenvalues --  -19.19503 -19.16545 -19.16157 -14.66106 -14.57601
 Alpha  occ. eigenvalues --  -14.48974 -14.45363 -14.44711 -14.41936 -14.40193
 Alpha  occ. eigenvalues --  -14.34673 -10.52692 -10.46005 -10.42381 -10.40742
 Alpha  occ. eigenvalues --  -10.39997 -10.38024 -10.35104 -10.34720 -10.33904
 Alpha  occ. eigenvalues --  -10.32346 -10.32331 -10.31766 -10.29859 -10.29793
 Alpha  occ. eigenvalues --  -10.29707 -10.28917 -10.28496 -10.26990 -10.26766
 Alpha  occ. eigenvalues --  -10.26276 -10.25370 -10.25289 -10.25102 -10.24887
 Alpha  occ. eigenvalues --  -10.24635 -10.24071  -1.31669  -1.20454  -1.19289
 Alpha  occ. eigenvalues --   -1.17961  -1.14301  -1.12904  -1.10444  -1.09818
 Alpha  occ. eigenvalues --   -1.07982  -1.04952  -1.04752  -1.04031  -1.01775
 Alpha  occ. eigenvalues --   -1.01649  -0.99191  -0.95375  -0.93316  -0.90792
 Alpha  occ. eigenvalues --   -0.90439  -0.89015  -0.88437  -0.86589  -0.85275
 Alpha  occ. eigenvalues --   -0.83814  -0.82154  -0.80391  -0.79918  -0.79642
 Alpha  occ. eigenvalues --   -0.78765  -0.78523  -0.77329  -0.76525  -0.75126
 Alpha  occ. eigenvalues --   -0.74982  -0.72757  -0.71443  -0.70157  -0.69288
 Alpha  occ. eigenvalues --   -0.69049  -0.68304  -0.67049  -0.66806  -0.66350
 Alpha  occ. eigenvalues --   -0.65762  -0.65252  -0.64463  -0.63314  -0.62053
 Alpha  occ. eigenvalues --   -0.61447  -0.61361  -0.60976  -0.60417  -0.59557
 Alpha  occ. eigenvalues --   -0.59236  -0.57961  -0.57448  -0.56756  -0.56575
 Alpha  occ. eigenvalues --   -0.56299  -0.55830  -0.55663  -0.55003  -0.54876
 Alpha  occ. eigenvalues --   -0.54582  -0.54406  -0.53421  -0.52975  -0.52134
 Alpha  occ. eigenvalues --   -0.51821  -0.51513  -0.51110  -0.50762  -0.50469
 Alpha  occ. eigenvalues --   -0.50076  -0.49865  -0.49703  -0.49134  -0.49093
 Alpha  occ. eigenvalues --   -0.48656  -0.48394  -0.48322  -0.47829  -0.47671
 Alpha  occ. eigenvalues --   -0.47453  -0.47258  -0.46279  -0.46107  -0.45201
 Alpha  occ. eigenvalues --   -0.44773  -0.44210  -0.43738  -0.43434  -0.43168
 Alpha  occ. eigenvalues --   -0.42527  -0.42139  -0.41411  -0.40390  -0.40317
 Alpha  occ. eigenvalues --   -0.39903  -0.39549  -0.39065  -0.38261  -0.36451
 Alpha  occ. eigenvalues --   -0.34987  -0.34708  -0.34195  -0.33599  -0.33163
 Alpha  occ. eigenvalues --   -0.32093  -0.31756  -0.30969  -0.29590  -0.28829
 Alpha  occ. eigenvalues --   -0.28496  -0.27293
 Alpha virt. eigenvalues --   -0.23021  -0.16038  -0.12279  -0.11047  -0.09420
 Alpha virt. eigenvalues --   -0.08488  -0.08005  -0.07855  -0.07704  -0.07105
 Alpha virt. eigenvalues --   -0.05919  -0.04093  -0.03467  -0.02669  -0.01768

 Mulliken charges:
               1
     1  N   -0.722027
     2  H    0.427920
     3  H    0.437125
     4  H    0.435712
     5  C   -0.145666
     6  H    0.245049
     7  C    0.621001
     8  C   -0.316291
     9  H    0.207241
    10  H    0.241291
    11  O   -0.563331
    12  C   -0.445415
    13  H    0.155881
    14  H    0.163260
    15  C    0.631242
    16  O   -0.480698
    17  O   -0.594520
    18  N   -0.524982
    19  H    0.404693
    20  C   -0.144686
    21  H    0.152486
    22  C    0.662037
    23  C   -0.339894
    24  H    0.235197
    25  H    0.145712
    26  O   -0.546976
    27  C    0.049254
    28  C   -0.013240
    29  H    0.180408
    30  C    0.084595
    31  C    0.342852
    32  C   -0.226922
    33  H    0.120794
    34  N   -0.712917
    35  H    0.338225
    36  C   -0.152533
    37  H    0.139325
    38  C   -0.161368
    39  H    0.135102
    40  C   -0.144015
    41  H    0.134344
    42  N   -0.554639
    43  H    0.351002
    44  C   -0.112080
    45  H    0.206456
    46  C    0.657634
    47  C    0.132522
    48  H    0.138612
    49  O   -0.554657
    50  C   -0.489616
    51  H    0.146297
    52  H    0.177692
    53  H    0.187519
    54  O   -0.684772
    55  H    0.449606
    56  N   -0.606817
    57  H    0.364944
    58  C   -0.050255
    59  H    0.205088
    60  C    0.591847
    61  C   -0.274462
    62  H    0.185784
    63  H    0.165481
    64  O   -0.462085
    65  C   -0.293113
    66  H    0.146423
    67  H    0.160115
    68  C   -0.146143
    69  H    0.151500
    70  H    0.168847
    71  N   -0.598630
    72  H    0.319996
    73  N   -0.746485
    74  H    0.347690
    75  H    0.327522
    76  N   -0.699017
    77  H    0.283323
    78  C    0.610385
    79  O   -0.560427
    80  H    0.428187
    81  H    0.473464
 Sum of Mulliken charges =   1.00000

 Dipole moment (field-independent basis, Debye):
    X=            -17.5125    Y=              2.0750    Z=              1.3667  Tot=             17.6879
 Quadrupole moment (field-independent basis, Debye-Ang):
   XX=           -125.5149   YY=           -212.7724   ZZ=           -213.0275
   XY=             44.3057   XZ=            -87.0281   YZ=            -25.9551

 Normal termination of Gaussian 16 at Sat May 14 21:08:56 2022.
