 Gaussian 16, Revision C.01,
 Gaussian 16:  ES64L-G16RevC.01  3-Jul-2019

 ----------------------------------------------------------------------
 # B3LYP/6-31G* empiricaldispersion=gd3 guess=read geom=check nosymm in
 tegral(ultrafinegrid)
 ----------------------------------------------------------------------

 ------------------------------------------------------
 Candidate Structure: Conf:746 Charge calc in gas phase
 ------------------------------------------------------
 Structure from the checkpoint file:  "conf-746.chk"
 Charge =  1 Multiplicity = 1

                          Input orientation:
 ---------------------------------------------------------------------
 Center     Atomic      Atomic             Coordinates (Angstroms)
 Number     Number       Type             X           Y           Z
 ---------------------------------------------------------------------
      1          7           0       -1.756332    3.338258   -4.667396
      2          1           0       -2.226215    4.153042   -4.260544
      3          1           0       -0.698404    3.539643   -4.617389
      4          1           0       -2.033091    3.280616   -5.651815
      5          6           0       -2.064872    2.053336   -3.938110
      6          1           0       -3.127727    1.836817   -4.063244
      7          6           0       -1.739630    2.244858   -2.464914
      8          6           0       -1.198942    0.938902   -4.573817
      9          1           0       -1.428184    0.909128   -5.647646
     10          1           0       -0.141830    1.206878   -4.459033
     11          8           0       -0.892755    3.256960   -2.236759
     12          6           0       -1.410536   -0.470373   -3.987138
     13          1           0       -1.039557   -0.510595   -2.960670
     14          1           0       -0.814580   -1.168472   -4.578055
     15          6           0       -2.873596   -0.904922   -4.102140
     16          8           0       -3.288396   -1.545155   -5.037239
     17          8           0       -3.698209   -0.462623   -3.128162
     18          7           0       -2.229635    1.402107   -1.641922
     19          1           0       -3.203820    0.078338   -2.460160
     20          6           0       -1.881521    1.409942   -0.208118
     21          1           0       -2.037540    2.413742    0.206223
     22          6           0       -0.368662    1.171046   -0.119833
     23          6           0       -2.803404    0.398352    0.505052
     24          1           0       -2.829037   -0.522473   -0.090625
     25          1           0       -3.816770    0.817631    0.452874
     26          8           0        0.412559    2.093467   -0.462500
     27          6           0       -2.414846    0.074005    1.918530
     28          6           0       -2.221766   -1.193730    2.417082
     29          1           0       -2.338133   -2.150327    1.926159
     30          6           0       -2.121765    0.990154    2.995737
     31          6           0       -1.748839    0.201686    4.119574
     32          6           0       -2.142039    2.390540    3.132012
     33          1           0       -2.448580    3.026453    2.305894
     34          7           0       -1.806116   -1.123501    3.730037
     35          1           0       -1.700007   -1.916252    4.344769
     36          6           0       -1.422485    2.151887    5.448594
     37          1           0       -1.158746    2.623783    6.390362
     38          6           0       -1.397721    0.766039    5.349803
     39          1           0       -1.122572    0.144791    6.197569
     40          6           0       -1.792587    2.956435    4.350859
     41          1           0       -1.811684    4.036028    4.467112
     42          7           0        0.087595   -0.036161    0.196259
     43          1           0       -0.504758   -0.695788    0.694535
     44          6           0        1.500394   -0.361590    0.128897
     45          1           0        2.053052    0.249805    0.855883
     46          6           0        2.027298   -0.119085   -1.301728
     47          6           0        1.650688   -1.867697    0.481582
     48          1           0        1.249970   -2.436323   -0.363673
     49          8           0        1.410140   -0.539582   -2.277948
     50          6           0        3.100138   -2.257688    0.744793
     51          1           0        3.731170   -2.059528   -0.127520
     52          1           0        3.157543   -3.323262    0.981050
     53          1           0        3.508694   -1.691934    1.592447
     54          8           0        0.793963   -2.202046    1.572633
     55          1           0        1.146107   -1.795697    2.382666
     56          7           0        3.225127    0.503960   -1.361725
     57          1           0        3.612794    0.937641   -0.530796
     58          6           0        4.030662    0.664520   -2.563838
     59          1           0        4.440326   -0.309364   -2.866530
     60          6           0        5.221515    1.535681   -2.161979
     61          6           0        3.287138    1.243903   -3.788429
     62          1           0        2.622711    0.466170   -4.171033
     63          1           0        4.042939    1.446861   -4.555208
     64          8           0        5.372629    2.024125   -1.062857
     65          6           0        2.464636    2.502612   -3.492057
     66          1           0        1.582902    2.225163   -2.904330
     67          1           0        3.036242    3.214986   -2.881857
     68          6           0        2.044546    3.184399   -4.798997
     69          1           0        2.899151    3.708570   -5.243442
     70          1           0        1.713407    2.424858   -5.520286
     71          7           0        0.921546    4.122069   -4.568005
     72          1           0        0.907445    4.450384   -3.605162
     73          7           0        1.149796    5.061775   -6.722358
     74          1           0        0.837833    5.754806   -7.389359
     75          1           0        1.389556    4.155828   -7.095378
     76          7           0       -0.108528    6.203891   -5.160477
     77          1           0       -0.292654    6.261641   -4.157549
     78          6           0        0.639072    5.204429   -5.459123
     79          8           0        6.084941    1.688686   -3.178960
     80          1           0        6.828025    2.233241   -2.854700
     81          1           0       -0.340970    3.017511   -1.396316
 ---------------------------------------------------------------------

 SCF Done:  E(RB3LYP) =  -2054.01810242     A.U. after    1 cycles

 Alpha  occ. eigenvalues --  -19.30704 -19.30508 -19.25730 -19.25348 -19.25323
 Alpha  occ. eigenvalues --  -19.25228 -19.22312 -19.20134 -14.58204 -14.48758
 Alpha  occ. eigenvalues --  -14.47904 -14.46830 -14.46236 -14.46197 -14.45730
 Alpha  occ. eigenvalues --  -14.39975 -10.43293 -10.42507 -10.41338 -10.40372
 Alpha  occ. eigenvalues --  -10.39712 -10.39486 -10.38886 -10.35227 -10.34872
 Alpha  occ. eigenvalues --  -10.34808 -10.34558 -10.34316 -10.33261 -10.30447
 Alpha  occ. eigenvalues --  -10.30374 -10.29947 -10.29919 -10.29417 -10.29292
 Alpha  occ. eigenvalues --  -10.27763 -10.27145 -10.26645 -10.26524 -10.26521
 Alpha  occ. eigenvalues --  -10.25957 -10.25645  -1.21820  -1.20599  -1.16381
 Alpha  occ. eigenvalues --   -1.16257  -1.14182  -1.13129  -1.13039  -1.12916
 Alpha  occ. eigenvalues --   -1.09766  -1.08275  -1.06169  -1.04831  -1.03980
 Alpha  occ. eigenvalues --   -1.03535  -1.01037  -0.96241  -0.93703  -0.91786
 Alpha  occ. eigenvalues --   -0.91545  -0.90369  -0.88438  -0.86389  -0.85830
 Alpha  occ. eigenvalues --   -0.83982  -0.81455  -0.81232  -0.80187  -0.78568
 Alpha  occ. eigenvalues --   -0.77545  -0.75724  -0.74401  -0.73695  -0.73277
 Alpha  occ. eigenvalues --   -0.72207  -0.71400  -0.70787  -0.70188  -0.70113
 Alpha  occ. eigenvalues --   -0.68927  -0.68054  -0.67962  -0.67506  -0.66986
 Alpha  occ. eigenvalues --   -0.66659  -0.64911  -0.63860  -0.62934  -0.62132
 Alpha  occ. eigenvalues --   -0.61768  -0.61590  -0.60982  -0.60624  -0.60374
 Alpha  occ. eigenvalues --   -0.59781  -0.59357  -0.58854  -0.58560  -0.57887
 Alpha  occ. eigenvalues --   -0.57574  -0.57065  -0.56579  -0.56406  -0.55334
 Alpha  occ. eigenvalues --   -0.54827  -0.54675  -0.54327  -0.54180  -0.53413
 Alpha  occ. eigenvalues --   -0.53040  -0.52952  -0.52486  -0.52161  -0.51666
 Alpha  occ. eigenvalues --   -0.51373  -0.51038  -0.50910  -0.50783  -0.50166
 Alpha  occ. eigenvalues --   -0.50025  -0.49642  -0.49262  -0.48912  -0.48747
 Alpha  occ. eigenvalues --   -0.48285  -0.48021  -0.47819  -0.47186  -0.47041
 Alpha  occ. eigenvalues --   -0.46486  -0.46269  -0.46166  -0.45910  -0.45507
 Alpha  occ. eigenvalues --   -0.43928  -0.43099  -0.43046  -0.42854  -0.42004
 Alpha  occ. eigenvalues --   -0.41273  -0.41134  -0.39676  -0.39499  -0.39108
 Alpha  occ. eigenvalues --   -0.38836  -0.38146  -0.37865  -0.37699  -0.37174
 Alpha  occ. eigenvalues --   -0.36289  -0.35893  -0.35281  -0.34440  -0.33733
 Alpha  occ. eigenvalues --   -0.30163  -0.28560
 Alpha virt. eigenvalues --   -0.13126  -0.10925  -0.10455  -0.09612  -0.09063
 Alpha virt. eigenvalues --   -0.08573  -0.06862  -0.06511  -0.05221  -0.04721
 Alpha virt. eigenvalues --   -0.04327  -0.03245  -0.02792  -0.02628  -0.02153

 Mulliken charges:
               1
     1  N   -0.775621
     2  H    0.410940
     3  H    0.463714
     4  H    0.405116
     5  C   -0.118027
     6  H    0.235589
     7  C    0.584024
     8  C   -0.309827
     9  H    0.175832
    10  H    0.186250
    11  O   -0.664950
    12  C   -0.366482
    13  H    0.194335
    14  H    0.198471
    15  C    0.565757
    16  O   -0.433955
    17  O   -0.608192
    18  N   -0.498805
    19  H    0.458132
    20  C   -0.085286
    21  H    0.186135
    22  C    0.661299
    23  C   -0.382292
    24  H    0.164148
    25  H    0.185879
    26  O   -0.600692
    27  C    0.020068
    28  C    0.000476
    29  H    0.174402
    30  C    0.092478
    31  C    0.301447
    32  C   -0.215147
    33  H    0.122320
    34  N   -0.686815
    35  H    0.342161
    36  C   -0.149104
    37  H    0.145573
    38  C   -0.161086
    39  H    0.140704
    40  C   -0.136361
    41  H    0.138221
    42  N   -0.604356
    43  H    0.389056
    44  C   -0.049131
    45  H    0.161680
    46  C    0.650760
    47  C    0.102636
    48  H    0.183319
    49  O   -0.546425
    50  C   -0.476500
    51  H    0.165492
    52  H    0.190581
    53  H    0.149948
    54  O   -0.621101
    55  H    0.401732
    56  N   -0.633364
    57  H    0.366853
    58  C   -0.014524
    59  H    0.202019
    60  C    0.583229
    61  C   -0.296713
    62  H    0.188707
    63  H    0.176082
    64  O   -0.457952
    65  C   -0.322852
    66  H    0.176611
    67  H    0.165387
    68  C   -0.133239
    69  H    0.188952
    70  H    0.148449
    71  N   -0.695197
    72  H    0.358819
    73  N   -0.733112
    74  H    0.368569
    75  H    0.342401
    76  N   -0.629643
    77  H    0.278070
    78  C    0.566534
    79  O   -0.559253
    80  H    0.433637
    81  H    0.473014
 Sum of Mulliken charges =   1.00000

 Dipole moment (field-independent basis, Debye):
    X=              5.6112    Y=              9.9224    Z=             -9.6183  Tot=             14.9148
 Quadrupole moment (field-independent basis, Debye-Ang):
   XX=           -210.2705   YY=           -213.4414   ZZ=           -140.0762
   XY=            -13.1790   XZ=            -23.5706   YZ=            -70.3784

 Normal termination of Gaussian 16 at Sat May 14 21:09:06 2022.
