 Gaussian 16, Revision C.01,
 Gaussian 16:  ES64L-G16RevC.01  3-Jul-2019

 ----------------------------------------------------------------------
 # B3LYP/6-31G* empiricaldispersion=gd3 guess=read geom=check nosymm in
 tegral(ultrafinegrid)
 ----------------------------------------------------------------------

 ------------------------------------------------------
 Candidate Structure: Conf:474 Charge calc in gas phase
 ------------------------------------------------------
 Structure from the checkpoint file:  "conf-474.chk"
 Charge =  1 Multiplicity = 1

                          Input orientation:
 ---------------------------------------------------------------------
 Center     Atomic      Atomic             Coordinates (Angstroms)
 Number     Number       Type             X           Y           Z
 ---------------------------------------------------------------------
      1          7           0       -2.563945   -0.749714    4.821779
      2          1           0       -2.903830   -1.717540    4.766199
      3          1           0       -1.545356   -0.759707    4.676767
      4          1           0       -2.754253   -0.354516    5.764960
      5          6           0       -3.217567    0.196843    3.831523
      6          1           0       -4.290559   -0.008537    3.859117
      7          6           0       -2.633616   -0.019274    2.475499
      8          6           0       -2.955468    1.654460    4.303085
      9          1           0       -1.901436    1.905585    4.127970
     10          1           0       -3.572027    2.329268    3.687717
     11          8           0       -1.428718   -0.530687    2.427599
     12          6           0       -3.377851    1.907911    5.735188
     13          1           0       -2.582812    1.783926    6.475840
     14          1           0       -4.259359    1.316306    6.022913
     15          6           0       -3.974519    3.468366    5.830039
     16          8           0       -3.933792    3.881094    6.986784
     17          8           0       -4.376154    3.896364    4.737970
     18          7           0       -3.260870    0.443382    1.415164
     19          1           0       -4.134725    0.942215    1.563165
     20          6           0       -2.708477    0.444286    0.039517
     21          1           0       -2.570826   -0.601777   -0.245938
     22          6           0       -1.339574    1.159298    0.089487
     23          6           0       -3.646416    1.129058   -0.963380
     24          1           0       -3.798333    2.168416   -0.651521
     25          1           0       -4.618020    0.615436   -0.945130
     26          8           0       -1.217822    2.352441    0.242295
     27          6           0       -2.987130    1.075343   -2.310445
     28          6           0       -2.548688    2.155142   -3.039312
     29          1           0       -2.660157    3.211567   -2.837687
     30          6           0       -2.540924   -0.107186   -3.009671
     31          6           0       -1.840220    0.341760   -4.163033
     32          6           0       -2.652755   -1.491782   -2.780815
     33          1           0       -3.226291   -1.873203   -1.938398
     34          7           0       -1.896224    1.719284   -4.165152
     35          1           0       -1.426363    2.312572   -4.831893
     36          6           0       -1.356405   -1.902668   -4.802376
     37          1           0       -0.906198   -2.615939   -5.486426
     38          6           0       -1.244875   -0.541965   -5.065699
     39          1           0       -0.716482   -0.182491   -5.944339
     40          6           0       -2.056313   -2.374755   -3.673873
     41          1           0       -2.140868   -3.445173   -3.511209
     42          7           0       -0.276322    0.238711    0.212943
     43          1           0       -0.361756   -0.552704   -0.434167
     44          6           0        1.087022    0.774452    0.108541
     45          1           0        1.217013    1.564664    0.852732
     46          6           0        1.262681    1.318220   -1.323057
     47          6           0        2.079579   -0.405110    0.322687
     48          1           0        3.094403   -0.024361    0.140873
     49          8           0        0.424921    1.100302   -2.187454
     50          6           0        2.019652   -0.990952    1.729423
     51          1           0        2.136849   -0.217296    2.496153
     52          1           0        2.817221   -1.729220    1.845086
     53          1           0        1.069851   -1.514891    1.882971
     54          8           0        1.762774   -1.444000   -0.588667
     55          1           0        2.149038   -1.218143   -1.459253
     56          7           0        2.430974    1.957012   -1.590400
     57          1           0        3.149156    1.990496   -0.878558
     58          6           0        2.861038    2.052489   -2.978862
     59          1           0        2.168430    2.689987   -3.534873
     60          6           0        2.823169    0.645059   -3.591759
     61          6           0        4.287589    2.635734   -3.045729
     62          1           0        4.964649    1.952805   -2.512380
     63          1           0        4.278385    3.582389   -2.488964
     64          8           0        3.034130   -0.377282   -2.967150
     65          6           0        4.806023    2.868120   -4.468265
     66          1           0        4.831384    1.925545   -5.022334
     67          1           0        4.122912    3.536639   -5.009321
     68          6           0        6.223602    3.461702   -4.478192
     69          1           0        6.234207    4.447575   -3.998891
     70          1           0        6.889385    2.823245   -3.888067
     71          7           0        6.783534    3.623007   -5.820826
     72          1           0        6.406562    4.422581   -6.316573
     73          7           0        7.375955    1.363938   -5.988347
     74          1           0        7.599327    0.640719   -6.664722
     75          1           0        8.164800    1.534778   -5.371179
     76          7           0        6.726903    2.456938   -7.926695
     77          1           0        6.288546    3.312307   -8.273659
     78          6           0        6.939437    2.512598   -6.664564
     79          8           0        2.589431    0.674509   -4.907803
     80          1           0        2.657221   -0.238254   -5.249331
     81          1           0       -0.881475   -0.316777    1.561679
 ---------------------------------------------------------------------

 SCF Done:  E(RB3LYP) =  -2053.88216354     A.U. after    1 cycles

 Alpha  occ. eigenvalues --  -19.37260 -19.30669 -19.27863 -19.25256 -19.25171
 Alpha  occ. eigenvalues --  -19.23729 -19.13635 -19.13423 -14.63473 -14.56974
 Alpha  occ. eigenvalues --  -14.51383 -14.47877 -14.46914 -14.41309 -14.39857
 Alpha  occ. eigenvalues --  -14.34275 -10.50249 -10.44324 -10.43574 -10.43260
 Alpha  occ. eigenvalues --  -10.40581 -10.39429 -10.36484 -10.36023 -10.34918
 Alpha  occ. eigenvalues --  -10.33687 -10.32521 -10.32152 -10.32022 -10.31405
 Alpha  occ. eigenvalues --  -10.30633 -10.29922 -10.29820 -10.29377 -10.28073
 Alpha  occ. eigenvalues --  -10.27773 -10.27646 -10.27498 -10.27438 -10.27117
 Alpha  occ. eigenvalues --  -10.26923 -10.26819  -1.27635  -1.21772  -1.19712
 Alpha  occ. eigenvalues --   -1.17863  -1.16169  -1.13601  -1.13111  -1.12608
 Alpha  occ. eigenvalues --   -1.07225  -1.07019  -1.06755  -1.04560  -1.03391
 Alpha  occ. eigenvalues --   -0.99206  -0.97418  -0.94834  -0.93710  -0.92406
 Alpha  occ. eigenvalues --   -0.91119  -0.90059  -0.89092  -0.87878  -0.85793
 Alpha  occ. eigenvalues --   -0.84317  -0.82744  -0.82274  -0.81356  -0.80866
 Alpha  occ. eigenvalues --   -0.78818  -0.77666  -0.76668  -0.76106  -0.75283
 Alpha  occ. eigenvalues --   -0.73496  -0.72327  -0.72224  -0.71659  -0.71124
 Alpha  occ. eigenvalues --   -0.70004  -0.69348  -0.68438  -0.68247  -0.66678
 Alpha  occ. eigenvalues --   -0.66128  -0.65831  -0.65168  -0.64411  -0.63942
 Alpha  occ. eigenvalues --   -0.63219  -0.62626  -0.62192  -0.60580  -0.60301
 Alpha  occ. eigenvalues --   -0.59813  -0.59514  -0.58348  -0.57744  -0.57536
 Alpha  occ. eigenvalues --   -0.57124  -0.57011  -0.56119  -0.55883  -0.55615
 Alpha  occ. eigenvalues --   -0.54963  -0.54854  -0.54562  -0.54120  -0.53278
 Alpha  occ. eigenvalues --   -0.52720  -0.52180  -0.52142  -0.52009  -0.51546
 Alpha  occ. eigenvalues --   -0.51168  -0.51064  -0.50680  -0.50321  -0.50231
 Alpha  occ. eigenvalues --   -0.49863  -0.49638  -0.49567  -0.49454  -0.48762
 Alpha  occ. eigenvalues --   -0.48395  -0.47883  -0.47520  -0.47381  -0.47075
 Alpha  occ. eigenvalues --   -0.46364  -0.44747  -0.44554  -0.44492  -0.44260
 Alpha  occ. eigenvalues --   -0.43726  -0.43179  -0.43144  -0.42543  -0.42478
 Alpha  occ. eigenvalues --   -0.42019  -0.41876  -0.41353  -0.40244  -0.39341
 Alpha  occ. eigenvalues --   -0.38798  -0.37643  -0.37489  -0.36214  -0.32506
 Alpha  occ. eigenvalues --   -0.31551  -0.30955  -0.29496  -0.28753  -0.28601
 Alpha  occ. eigenvalues --   -0.28072  -0.26580
 Alpha virt. eigenvalues --   -0.20220  -0.15103  -0.13233  -0.11064  -0.10129
 Alpha virt. eigenvalues --   -0.09133  -0.08312  -0.07362  -0.06343  -0.05964
 Alpha virt. eigenvalues --   -0.05720  -0.04340  -0.03598  -0.03003  -0.02463

 Mulliken charges:
               1
     1  N   -0.711671
     2  H    0.416307
     3  H    0.424333
     4  H    0.413047
     5  C   -0.158528
     6  H    0.231517
     7  C    0.658696
     8  C   -0.279792
     9  H    0.166566
    10  H    0.228033
    11  O   -0.631731
    12  C   -0.452962
    13  H    0.160552
    14  H    0.150284
    15  C    0.618954
    16  O   -0.503248
    17  O   -0.544610
    18  N   -0.577179
    19  H    0.398617
    20  C   -0.066971
    21  H    0.195348
    22  C    0.618986
    23  C   -0.389257
    24  H    0.194424
    25  H    0.176585
    26  O   -0.434212
    27  C    0.026823
    28  C    0.039855
    29  H    0.176347
    30  C    0.093862
    31  C    0.340661
    32  C   -0.237426
    33  H    0.113068
    34  N   -0.678440
    35  H    0.341540
    36  C   -0.152985
    37  H    0.142692
    38  C   -0.158950
    39  H    0.138993
    40  C   -0.133805
    41  H    0.138455
    42  N   -0.702877
    43  H    0.389671
    44  C   -0.083060
    45  H    0.191427
    46  C    0.639689
    47  C    0.109907
    48  H    0.144768
    49  O   -0.515220
    50  C   -0.453624
    51  H    0.148566
    52  H    0.193438
    53  H    0.142419
    54  O   -0.654232
    55  H    0.456932
    56  N   -0.612859
    57  H    0.341486
    58  C   -0.000786
    59  H    0.194060
    60  C    0.620154
    61  C   -0.322791
    62  H    0.158182
    63  H    0.167822
    64  O   -0.499949
    65  C   -0.272745
    66  H    0.185828
    67  H    0.141727
    68  C   -0.140115
    69  H    0.153439
    70  H    0.154031
    71  N   -0.577421
    72  H    0.314984
    73  N   -0.743248
    74  H    0.341685
    75  H    0.326069
    76  N   -0.621336
    77  H    0.267937
    78  C    0.538491
    79  O   -0.545065
    80  H    0.431124
    81  H    0.498713
 Sum of Mulliken charges =   1.00000

 Dipole moment (field-independent basis, Debye):
    X=              1.4659    Y=             -6.6433    Z=             -0.8087  Tot=              6.8510
 Quadrupole moment (field-independent basis, Debye-Ang):
   XX=           -202.3659   YY=           -258.4734   ZZ=           -229.2201
   XY=             65.5502   XZ=              4.5563   YZ=            -92.8616

 Normal termination of Gaussian 16 at Sat May 14 21:09:06 2022.
