 Gaussian 16, Revision C.01,
 Gaussian 16:  ES64L-G16RevC.01  3-Jul-2019

 ----------------------------------------------------------------------
 # B3LYP/6-31G* empiricaldispersion=gd3 guess=read geom=check nosymm in
 tegral(ultrafinegrid)
 ----------------------------------------------------------------------

 ------------------------------------------------------
 Candidate Structure: Conf:885 Charge calc in gas phase
 ------------------------------------------------------
 Structure from the checkpoint file:  "conf-885.chk"
 Charge =  1 Multiplicity = 1

                          Input orientation:
 ---------------------------------------------------------------------
 Center     Atomic      Atomic             Coordinates (Angstroms)
 Number     Number       Type             X           Y           Z
 ---------------------------------------------------------------------
      1          7           0       -2.509532   -0.708877    4.484075
      2          1           0       -2.848994   -1.542263    4.007115
      3          1           0       -0.831493   -0.683808    4.373990
      4          1           0       -2.914083   -0.684169    5.417407
      5          6           0       -2.852743    0.517713    3.742767
      6          1           0       -3.899182    0.816397    3.908091
      7          6           0       -2.666326    0.240356    2.254734
      8          6           0       -1.930967    1.671914    4.219438
      9          1           0       -2.431060    2.629669    4.032800
     10          1           0       -1.850778    1.584542    5.309125
     11          8           0       -2.113423   -0.778264    1.841089
     12          6           0       -0.535473    1.763794    3.563598
     13          1           0        0.065063    2.489855    4.124983
     14          1           0       -0.629351    2.194924    2.562313
     15          6           0        0.370096    0.540051    3.384973
     16          8           0        0.118705   -0.596015    4.009899
     17          8           0        1.350734    0.646948    2.657997
     18          7           0       -3.109619    1.149119    1.352371
     19          1           0       -3.483583    2.047538    1.630935
     20          6           0       -2.728845    0.898405   -0.037677
     21          1           0       -3.143194   -0.070059   -0.334020
     22          6           0       -1.197766    0.838140   -0.080731
     23          6           0       -3.159351    1.963871   -1.055218
     24          1           0       -2.835358    2.953410   -0.714044
     25          1           0       -4.252124    1.979921   -1.128724
     26          8           0       -0.469965    1.748360    0.170310
     27          6           0       -2.488866    1.614219   -2.361301
     28          6           0       -2.881919    0.635061   -3.251812
     29          1           0       -3.749284   -0.011232   -3.226075
     30          6           0       -1.270562    2.187400   -2.886698
     31          6           0       -0.991594    1.516468   -4.106860
     32          6           0       -0.386978    3.187702   -2.442564
     33          1           0       -0.562440    3.704967   -1.504301
     34          7           0       -1.988886    0.578316   -4.296110
     35          1           0       -2.065722   -0.034278   -5.094092
     36          6           0        0.959218    2.841331   -4.447783
     37          1           0        1.818960    3.130302   -5.045720
     38          6           0        0.116932    1.832939   -4.901452
     39          1           0        0.304767    1.317233   -5.838605
     40          6           0        0.715670    3.503934   -3.225020
     41          1           0        1.401395    4.280225   -2.899059
     42          7           0       -0.629741   -0.514297   -0.421400
     43          1           0       -0.585723   -0.637470   -1.479775
     44          6           0        0.802798   -0.707696   -0.024232
     45          1           0        1.135992    0.238263    0.407052
     46          6           0        1.490158   -0.939910   -1.378209
     47          6           0        1.033307   -1.816082    1.044883
     48          1           0        0.286650   -1.664488    1.834370
     49          8           0        0.789140   -0.911817   -2.403841
     50          6           0        0.932759   -3.236383    0.500259
     51          1           0       -0.011598   -3.400601   -0.035135
     52          1           0        0.985143   -3.944262    1.330751
     53          1           0        1.767847   -3.448920   -0.172408
     54          8           0        2.337814   -1.615150    1.548636
     55          1           0        2.273857   -0.851240    2.165979
     56          7           0        2.804156   -1.138092   -1.349596
     57          1           0        3.243092   -1.285581   -0.438572
     58          6           0        3.561615   -1.415683   -2.562812
     59          1           0        2.838849   -1.660500   -3.349779
     60          6           0        4.416589   -2.652990   -2.313335
     61          6           0        4.371342   -0.187559   -3.020168
     62          1           0        4.930129   -0.453117   -3.921601
     63          1           0        5.110146    0.074871   -2.251404
     64          8           0        4.445695   -3.272113   -1.275054
     65          6           0        3.442439    1.003878   -3.293389
     66          1           0        2.653107    0.707787   -4.001128
     67          1           0        2.917427    1.292185   -2.375408
     68          6           0        4.170714    2.234980   -3.831110
     69          1           0        3.459582    3.077103   -3.893217
     70          1           0        4.957705    2.535148   -3.128201
     71          7           0        4.796899    1.952050   -5.113482
     72          1           0        4.185740    1.474903   -5.769389
     73          7           0        5.947968    2.548180   -7.030584
     74          1           0        6.591063    3.220876   -7.434006
     75          1           0        6.314908    1.603301   -7.085122
     76          7           0        5.939287    4.076272   -5.279512
     77          1           0        5.481313    4.300144   -4.396444
     78          6           0        5.575100    2.937795   -5.740020
     79          8           0        5.139061   -2.966926   -3.403716
     80          1           0        5.666323   -3.759213   -3.184914
     81          1           0       -1.337648   -0.988431   -0.159304
 ---------------------------------------------------------------------

 SCF Done:  E(RB3LYP) =  -2053.98890725     A.U. after    1 cycles

 Alpha  occ. eigenvalues --  -19.31144 -19.28687 -19.27412 -19.27245 -19.24901
 Alpha  occ. eigenvalues --  -19.23424 -19.23194 -19.22991 -14.55225 -14.51399
 Alpha  occ. eigenvalues --  -14.48391 -14.47357 -14.47201 -14.40889 -14.38749
 Alpha  occ. eigenvalues --  -14.33648 -10.46447 -10.43844 -10.42330 -10.41267
 Alpha  occ. eigenvalues --  -10.41147 -10.38920 -10.37232 -10.36057 -10.34386
 Alpha  occ. eigenvalues --  -10.33513 -10.32968 -10.32938 -10.32827 -10.32614
 Alpha  occ. eigenvalues --  -10.31625 -10.31271 -10.29603 -10.28961 -10.28370
 Alpha  occ. eigenvalues --  -10.28130 -10.27863 -10.27568 -10.27512 -10.27189
 Alpha  occ. eigenvalues --  -10.26708 -10.26705  -1.23343  -1.19787  -1.19754
 Alpha  occ. eigenvalues --   -1.19126  -1.17274  -1.12495  -1.11324  -1.10919
 Alpha  occ. eigenvalues --   -1.10382  -1.08249  -1.07554  -1.04400  -1.03763
 Alpha  occ. eigenvalues --   -1.02795  -0.94724  -0.94377  -0.93135  -0.91319
 Alpha  occ. eigenvalues --   -0.90822  -0.89118  -0.88330  -0.87357  -0.83852
 Alpha  occ. eigenvalues --   -0.83291  -0.82989  -0.82548  -0.81620  -0.79458
 Alpha  occ. eigenvalues --   -0.77130  -0.75294  -0.73856  -0.73465  -0.73008
 Alpha  occ. eigenvalues --   -0.72615  -0.71899  -0.70754  -0.69667  -0.69158
 Alpha  occ. eigenvalues --   -0.68281  -0.68049  -0.66808  -0.66524  -0.65864
 Alpha  occ. eigenvalues --   -0.64970  -0.63789  -0.63777  -0.63593  -0.62468
 Alpha  occ. eigenvalues --   -0.61536  -0.60901  -0.60252  -0.59885  -0.59660
 Alpha  occ. eigenvalues --   -0.59324  -0.58683  -0.58527  -0.58256  -0.57365
 Alpha  occ. eigenvalues --   -0.57084  -0.56802  -0.56246  -0.55937  -0.55878
 Alpha  occ. eigenvalues --   -0.55199  -0.54946  -0.54712  -0.53831  -0.53557
 Alpha  occ. eigenvalues --   -0.53191  -0.52754  -0.52388  -0.52142  -0.51695
 Alpha  occ. eigenvalues --   -0.51600  -0.50993  -0.50906  -0.50765  -0.50633
 Alpha  occ. eigenvalues --   -0.50185  -0.50073  -0.49162  -0.48686  -0.48448
 Alpha  occ. eigenvalues --   -0.48239  -0.47892  -0.47768  -0.47575  -0.46102
 Alpha  occ. eigenvalues --   -0.45821  -0.45296  -0.44857  -0.44695  -0.44063
 Alpha  occ. eigenvalues --   -0.43458  -0.43056  -0.42750  -0.42574  -0.42194
 Alpha  occ. eigenvalues --   -0.41444  -0.41348  -0.40939  -0.40789  -0.40308
 Alpha  occ. eigenvalues --   -0.39336  -0.39188  -0.37381  -0.37341  -0.37168
 Alpha  occ. eigenvalues --   -0.36538  -0.36252  -0.32015  -0.31377  -0.30751
 Alpha  occ. eigenvalues --   -0.30456  -0.28381
 Alpha virt. eigenvalues --   -0.17539  -0.12979  -0.10833  -0.09940  -0.08896
 Alpha virt. eigenvalues --   -0.08091  -0.06893  -0.06584  -0.04743  -0.04523
 Alpha virt. eigenvalues --   -0.03392  -0.02653  -0.01456  -0.01274  -0.00591

 Mulliken charges:
               1
     1  N   -0.772832
     2  H    0.355806
     3  H    0.472667
     4  H    0.349468
     5  C   -0.087394
     6  H    0.181019
     7  C    0.645957
     8  C   -0.289086
     9  H    0.166824
    10  H    0.185099
    11  O   -0.545460
    12  C   -0.400252
    13  H    0.215935
    14  H    0.196125
    15  C    0.616157
    16  O   -0.589305
    17  O   -0.507125
    18  N   -0.607316
    19  H    0.358189
    20  C   -0.016917
    21  H    0.181936
    22  C    0.568176
    23  C   -0.374088
    24  H    0.185785
    25  H    0.189754
    26  O   -0.384387
    27  C   -0.010044
    28  C   -0.001221
    29  H    0.170106
    30  C    0.078859
    31  C    0.328226
    32  C   -0.200947
    33  H    0.139880
    34  N   -0.679267
    35  H    0.347819
    36  C   -0.156135
    37  H    0.159890
    38  C   -0.155717
    39  H    0.144989
    40  C   -0.140079
    41  H    0.146445
    42  N   -0.681203
    43  H    0.430202
    44  C   -0.117781
    45  H    0.267178
    46  C    0.637099
    47  C    0.109526
    48  H    0.183043
    49  O   -0.561076
    50  C   -0.467936
    51  H    0.128333
    52  H    0.188730
    53  H    0.187264
    54  O   -0.639056
    55  H    0.438664
    56  N   -0.582773
    57  H    0.386446
    58  C   -0.078279
    59  H    0.210620
    60  C    0.591878
    61  C   -0.255525
    62  H    0.187650
    63  H    0.153598
    64  O   -0.448854
    65  C   -0.296110
    66  H    0.150190
    67  H    0.147569
    68  C   -0.138199
    69  H    0.139083
    70  H    0.160992
    71  N   -0.602818
    72  H    0.316063
    73  N   -0.752307
    74  H    0.341778
    75  H    0.320386
    76  N   -0.635821
    77  H    0.277989
    78  C    0.574544
    79  O   -0.557953
    80  H    0.429767
    81  H    0.389559
 Sum of Mulliken charges =   1.00000

 Dipole moment (field-independent basis, Debye):
    X=            -10.2022    Y=             -0.8313    Z=              1.0871  Tot=             10.2935
 Quadrupole moment (field-independent basis, Debye-Ang):
   XX=           -191.5002   YY=           -240.3377   ZZ=           -169.3974
   XY=            -25.8562   XZ=            -36.8415   YZ=             33.1539

 Normal termination of Gaussian 16 at Sat May 14 21:08:56 2022.
