 Gaussian 16, Revision C.01,
 Gaussian 16:  ES64L-G16RevC.01  3-Jul-2019

 ----------------------------------------------------------------------
 # B3LYP/6-31G* empiricaldispersion=gd3 guess=read geom=check nosymm in
 tegral(ultrafinegrid)
 ----------------------------------------------------------------------

 ------------------------------------------------------
 Candidate Structure: Conf:315 Charge calc in gas phase
 ------------------------------------------------------
 Structure from the checkpoint file:  "conf-315.chk"
 Charge =  1 Multiplicity = 1

                          Input orientation:
 ---------------------------------------------------------------------
 Center     Atomic      Atomic             Coordinates (Angstroms)
 Number     Number       Type             X           Y           Z
 ---------------------------------------------------------------------
      1          7           0       -1.510053    2.449303    2.392664
      2          1           0       -0.566239    2.804236    2.037478
      3          1           0       -2.102926    3.278489    2.543020
      4          1           0       -1.419349    1.923679    3.264392
      5          6           0       -2.131903    1.636074    1.293378
      6          1           0       -1.351175    0.977255    0.900647
      7          6           0       -2.506706    2.682676    0.223176
      8          6           0       -3.345610    0.831042    1.805953
      9          1           0       -2.990767    0.099702    2.543468
     10          1           0       -3.729612    0.253675    0.957927
     11          8           0       -2.551437    3.868730    0.533621
     12          6           0       -4.425243    1.714006    2.393666
     13          6           0       -4.441491    2.003076    3.764650
     14          1           0       -3.728579    1.517631    4.430258
     15          6           0       -5.385757    2.308934    1.563974
     16          1           0       -5.388517    2.086864    0.499857
     17          6           0       -5.390477    2.879342    4.296210
     18          1           0       -5.397480    3.087002    5.362189
     19          6           0       -6.333750    3.183749    2.092422
     20          1           0       -7.073370    3.635520    1.437815
     21          6           0       -6.335288    3.474446    3.458968
     22          1           0       -7.075822    4.153492    3.870730
     23          7           0       -2.778619    2.163789   -0.999960
     24          1           0       -2.437721    1.214116   -1.120132
     25          6           0       -2.724758    2.924331   -2.267657
     26          1           0       -3.290880    2.333760   -2.991282
     27          6           0       -1.271869    2.867776   -2.774802
     28          6           0       -3.309686    4.344936   -2.231123
     29          1           0       -2.664789    4.999142   -1.640431
     30          1           0       -3.277025    4.706424   -3.268375
     31          8           0       -1.024401    2.405069   -3.898899
     32          6           0       -4.753652    4.441674   -1.700990
     33          1           0       -4.734300    4.158857   -0.641993
     34          6           0       -5.226786    5.899624   -1.785655
     35          1           0       -5.272071    6.240379   -2.827831
     36          1           0       -6.228688    6.009616   -1.356290
     37          1           0       -4.552255    6.569006   -1.239913
     38          6           0       -5.721268    3.505981   -2.438425
     39          1           0       -5.723178    3.707774   -3.517592
     40          1           0       -5.469362    2.448639   -2.290437
     41          1           0       -6.745602    3.648719   -2.076906
     42          7           0       -0.307253    3.272226   -1.914354
     43          1           0       -0.585800    3.596726   -0.992348
     44          6           0        1.011737    2.661136   -1.958471
     45          1           0        1.436355    2.807821   -2.956477
     46          6           0        0.892576    1.132252   -1.670165
     47          6           0        1.971614    3.312435   -0.933405
     48          1           0        2.998740    3.007339   -1.143160
     49          1           0        1.909726    4.400471   -1.036207
     50          8           0       -0.168918    0.628410   -1.287107
     51          6           0        1.594992    2.952952    0.496985
     52          7           0        2.468921    2.227071    1.181441
     53          1           0        2.247953    1.969336    2.135655
     54          1           0        3.258908    1.726794    0.698048
     55          8           0        0.484945    3.348457    0.938152
     56          7           0        2.036617    0.438338   -1.887025
     57          1           0        2.901824    0.999168   -1.849804
     58          6           0        2.354384   -0.793821   -1.130213
     59          1           0        1.519310   -0.993956   -0.451567
     60          6           0        3.622253   -0.472276   -0.251875
     61          6           0        2.559979   -2.007786   -2.039779
     62          1           0        2.889062   -2.827355   -1.396585
     63          1           0        3.396121   -1.803129   -2.722531
     64          8           0        4.063438    0.731081   -0.382622
     65          6           0        1.276597   -2.373252   -2.831180
     66          1           0        0.915740   -3.366757   -2.543497
     67          1           0        0.479943   -1.673882   -2.548639
     68          6           0        1.435107   -2.325515   -4.371320
     69          1           0        2.261471   -1.673841   -4.672521
     70          1           0        1.661731   -3.308190   -4.791024
     71          7           0        0.221574   -1.838967   -5.054745
     72          1           0       -0.515829   -2.512023   -5.217070
     73          7           0        0.727218    0.392082   -4.621101
     74          1           0        0.334992    1.328607   -4.487829
     75          1           0        1.451491    0.149100   -3.949039
     76          7           0       -1.349262   -0.155677   -5.454120
     77          1           0       -1.635257    0.805919   -5.299595
     78          1           0       -1.948457   -0.765003   -5.990100
     79          6           0       -0.133902   -0.544572   -5.029303
     80          8           0        4.019806   -1.384329    0.466155
 ---------------------------------------------------------------------

 SCF Done:  E(RB3LYP) =  -1866.72508226     A.U. after    2 cycles

 Alpha  occ. eigenvalues --  -19.25280 -19.25229 -19.24270 -19.23951 -19.15279
 Alpha  occ. eigenvalues --  -19.13886 -14.56081 -14.50610 -14.50104 -14.48847
 Alpha  occ. eigenvalues --  -14.48212 -14.47532 -14.45498 -14.45194 -10.46210
 Alpha  occ. eigenvalues --  -10.42273 -10.41440 -10.40817 -10.40057 -10.38292
 Alpha  occ. eigenvalues --  -10.35810 -10.35203 -10.34378 -10.32756 -10.32716
 Alpha  occ. eigenvalues --  -10.31124 -10.30504 -10.29486 -10.29450 -10.28999
 Alpha  occ. eigenvalues --  -10.28821 -10.28697 -10.28658 -10.28576 -10.28502
 Alpha  occ. eigenvalues --  -10.27619 -10.26785 -10.26086 -10.25100  -1.17727
 Alpha  occ. eigenvalues --   -1.16564  -1.15075  -1.14853  -1.14636  -1.11001
 Alpha  occ. eigenvalues --   -1.08022  -1.05988  -1.04542  -1.04163  -1.02660
 Alpha  occ. eigenvalues --   -1.02088  -1.01212  -0.99007  -0.96133  -0.92265
 Alpha  occ. eigenvalues --   -0.90409  -0.89853  -0.88799  -0.86004  -0.84407
 Alpha  occ. eigenvalues --   -0.83908  -0.83713  -0.79416  -0.78402  -0.77711
 Alpha  occ. eigenvalues --   -0.76877  -0.75784  -0.75031  -0.72579  -0.71838
 Alpha  occ. eigenvalues --   -0.71545  -0.70807  -0.70430  -0.69587  -0.69240
 Alpha  occ. eigenvalues --   -0.68590  -0.68172  -0.67984  -0.66766  -0.66202
 Alpha  occ. eigenvalues --   -0.64740  -0.64175  -0.63729  -0.63478  -0.62565
 Alpha  occ. eigenvalues --   -0.61894  -0.61082  -0.60060  -0.59422  -0.59096
 Alpha  occ. eigenvalues --   -0.58234  -0.57923  -0.57412  -0.57108  -0.56768
 Alpha  occ. eigenvalues --   -0.56188  -0.55766  -0.55556  -0.55169  -0.54933
 Alpha  occ. eigenvalues --   -0.54376  -0.53671  -0.53316  -0.52980  -0.52603
 Alpha  occ. eigenvalues --   -0.51955  -0.51451  -0.51175  -0.50923  -0.50487
 Alpha  occ. eigenvalues --   -0.50367  -0.50179  -0.50047  -0.49313  -0.48798
 Alpha  occ. eigenvalues --   -0.48427  -0.47688  -0.47374  -0.46929  -0.46460
 Alpha  occ. eigenvalues --   -0.45922  -0.45837  -0.45346  -0.44859  -0.44190
 Alpha  occ. eigenvalues --   -0.44088  -0.43898  -0.42835  -0.42331  -0.41687
 Alpha  occ. eigenvalues --   -0.41582  -0.41467  -0.41004  -0.40595  -0.39339
 Alpha  occ. eigenvalues --   -0.39053  -0.38569  -0.38457  -0.38179  -0.37491
 Alpha  occ. eigenvalues --   -0.36935  -0.36129  -0.34999  -0.34619  -0.30584
 Alpha  occ. eigenvalues --   -0.30021  -0.27628
 Alpha virt. eigenvalues --   -0.13172  -0.11063  -0.10773  -0.10394  -0.10351
 Alpha virt. eigenvalues --   -0.09365  -0.09036  -0.07205  -0.06152  -0.03764
 Alpha virt. eigenvalues --   -0.02446  -0.02178  -0.01543  -0.01098  -0.00579

 Mulliken charges:
               1
     1  N   -0.752665
     2  H    0.434855
     3  H    0.415852
     4  H    0.389842
     5  C   -0.133538
     6  H    0.225802
     7  C    0.656166
     8  C   -0.379403
     9  H    0.178975
    10  H    0.189082
    11  O   -0.524060
    12  C    0.151674
    13  C   -0.215119
    14  H    0.125010
    15  C   -0.173615
    16  H    0.148628
    17  C   -0.121361
    18  H    0.158665
    19  C   -0.126882
    20  H    0.155416
    21  C   -0.123267
    22  H    0.161150
    23  N   -0.594026
    24  H    0.361563
    25  C   -0.088772
    26  H    0.175521
    27  C    0.636304
    28  C   -0.267522
    29  H    0.174622
    30  H    0.156310
    31  O   -0.568171
    32  C   -0.084797
    33  H    0.151752
    34  C   -0.448923
    35  H    0.149449
    36  H    0.152552
    37  H    0.155862
    38  C   -0.459363
    39  H    0.148922
    40  H    0.134500
    41  H    0.159151
    42  N   -0.591535
    43  H    0.390646
    44  C   -0.083914
    45  H    0.191059
    46  C    0.598370
    47  C   -0.388895
    48  H    0.216589
    49  H    0.211126
    50  O   -0.562995
    51  C    0.602059
    52  N   -0.738056
    53  H    0.337001
    54  H    0.438778
    55  O   -0.595686
    56  N   -0.621783
    57  H    0.361889
    58  C   -0.092750
    59  H    0.161941
    60  C    0.588953
    61  C   -0.277524
    62  H    0.198703
    63  H    0.148523
    64  O   -0.647038
    65  C   -0.299481
    66  H    0.165679
    67  H    0.163569
    68  C   -0.193063
    69  H    0.190769
    70  H    0.196643
    71  N   -0.582242
    72  H    0.353671
    73  N   -0.792015
    74  H    0.406695
    75  H    0.396324
    76  N   -0.785424
    77  H    0.398006
    78  H    0.368713
    79  C    0.796482
    80  O   -0.515925
 Sum of Mulliken charges =   1.00000

 Dipole moment (field-independent basis, Debye):
    X=            -14.3129    Y=              5.7821    Z=             -8.0548  Tot=             17.4118
 Quadrupole moment (field-independent basis, Debye-Ang):
   XX=           -214.2616   YY=           -195.1250   ZZ=           -126.5744
   XY=            -13.1505   XZ=             -9.3551   YZ=             32.8945

 Normal termination of Gaussian 16 at Fri Jun 17 19:11:18 2022.
