 Gaussian 16, Revision C.01,
 Gaussian 16:  ES64L-G16RevC.01  3-Jul-2019

 ----------------------------------------------------------------------
 # B3LYP/6-31G* empiricaldispersion=gd3 guess=read geom=check nosymm in
 tegral(ultrafinegrid)
 ----------------------------------------------------------------------

 ------------------------------------------------------
 Candidate Structure: Conf:876 Charge calc in gas phase
 ------------------------------------------------------
 Structure from the checkpoint file:  "conf-876.chk"
 Charge =  1 Multiplicity = 1

                          Input orientation:
 ---------------------------------------------------------------------
 Center     Atomic      Atomic             Coordinates (Angstroms)
 Number     Number       Type             X           Y           Z
 ---------------------------------------------------------------------
      1          7           0       -5.762781    1.141823    4.091897
      2          1           0       -5.810466    0.429783    3.307968
      3          1           0       -5.322618    0.691171    4.913264
      4          1           0       -6.687261    1.494576    4.345590
      5          6           0       -4.829813    2.187834    3.526224
      6          1           0       -5.444957    3.025114    3.183540
      7          6           0       -4.238757    1.472260    2.275001
      8          6           0       -3.814775    2.654420    4.597080
      9          1           0       -4.345940    3.284009    5.320341
     10          1           0       -3.077227    3.301420    4.111291
     11          8           0       -4.748914    0.394887    1.936362
     12          6           0       -3.148627    1.485939    5.291090
     13          6           0       -3.668220    1.007083    6.506923
     14          1           0       -4.464818    1.555307    7.009877
     15          6           0       -2.075270    0.810544    4.692703
     16          1           0       -1.638332    1.166320    3.764322
     17          6           0       -3.129247   -0.134867    7.108858
     18          1           0       -3.530486   -0.487106    8.054727
     19          6           0       -1.540769   -0.328644    5.295075
     20          1           0       -0.715310   -0.829004    4.800300
     21          6           0       -2.069185   -0.805836    6.498343
     22          1           0       -1.650347   -1.693956    6.962467
     23          7           0       -3.266059    2.113336    1.638615
     24          1           0       -2.762930    2.873572    2.098317
     25          6           0       -2.454725    1.533503    0.566054
     26          1           0       -2.503103    0.443895    0.649365
     27          6           0       -1.016526    1.992773    0.889868
     28          6           0       -2.913770    2.003491   -0.827708
     29          1           0       -2.855193    3.099986   -0.846181
     30          1           0       -2.191948    1.643542   -1.572847
     31          8           0       -0.811769    2.794794    1.810981
     32          6           0       -4.324765    1.546746   -1.243194
     33          1           0       -5.029062    1.858476   -0.458171
     34          6           0       -4.726664    2.249209   -2.548536
     35          1           0       -4.047140    1.972643   -3.364610
     36          1           0       -5.740176    1.963286   -2.850412
     37          1           0       -4.699698    3.340558   -2.445469
     38          6           0       -4.417508    0.021516   -1.392115
     39          1           0       -3.693429   -0.341004   -2.133292
     40          1           0       -4.237006   -0.494555   -0.444691
     41          1           0       -5.415876   -0.270008   -1.736605
     42          7           0       -0.055188    1.477696    0.114683
     43          1           0       -0.258484    0.866964   -0.671235
     44          6           0        1.357178    1.724170    0.320106
     45          1           0        1.477127    2.730599    0.730703
     46          6           0        2.041132    1.588634   -1.057163
     47          6           0        1.996191    0.680688    1.280812
     48          1           0        1.929809   -0.305128    0.811448
     49          1           0        3.055783    0.925099    1.413786
     50          8           0        1.485346    0.957450   -1.960562
     51          6           0        1.255776    0.594410    2.608702
     52          7           0        1.802929    1.283690    3.643361
     53          1           0        1.289638    1.338322    4.512284
     54          1           0        2.618946    1.867348    3.534746
     55          8           0        0.216805   -0.054752    2.717347
     56          7           0        3.255961    2.147156   -1.131325
     57          1           0        3.726444    2.541570   -0.312394
     58          6           0        4.227745    1.880920   -2.185225
     59          1           0        4.229102    0.806221   -2.407298
     60          6           0        5.622223    2.276195   -1.588185
     61          6           0        3.891646    2.634122   -3.488468
     62          1           0        2.859432    2.387210   -3.753627
     63          1           0        4.522220    2.210468   -4.277235
     64          8           0        6.616650    2.187579   -2.382209
     65          6           0        4.089161    4.169661   -3.404629
     66          1           0        3.137288    4.698553   -3.526860
     67          1           0        4.461479    4.448114   -2.410232
     68          6           0        5.063755    4.718931   -4.463373
     69          1           0        4.658934    4.565190   -5.469653
     70          1           0        5.219321    5.793828   -4.322482
     71          7           0        6.355956    4.016294   -4.363453
     72          1           0        6.556816    3.627692   -3.423528
     73          7           0        6.749278    3.557860   -6.618442
     74          1           0        7.028507    2.914666   -7.343947
     75          1           0        6.627091    4.526345   -6.873863
     76          7           0        7.412325    2.062251   -4.950103
     77          1           0        8.066419    1.574649   -5.544087
     78          1           0        7.233023    1.762124   -3.973206
     79          6           0        6.848228    3.215097   -5.314412
     80          8           0        5.632448    2.688337   -0.416732
 ---------------------------------------------------------------------

 SCF Done:  E(RB3LYP) =  -1866.71078496     A.U. after    2 cycles

 Alpha  occ. eigenvalues --  -19.25428 -19.20848 -19.18643 -19.18067 -19.14153
 Alpha  occ. eigenvalues --  -19.13818 -14.57845 -14.47699 -14.47359 -14.45022
 Alpha  occ. eigenvalues --  -14.44298 -14.44284 -14.43227 -14.40918 -10.42138
 Alpha  occ. eigenvalues --  -10.42127 -10.39482 -10.37832 -10.36525 -10.35064
 Alpha  occ. eigenvalues --  -10.32884 -10.32837 -10.32076 -10.31521 -10.30648
 Alpha  occ. eigenvalues --  -10.30485 -10.29492 -10.28769 -10.28169 -10.27987
 Alpha  occ. eigenvalues --  -10.27659 -10.27311 -10.27245 -10.27214 -10.26521
 Alpha  occ. eigenvalues --  -10.25639 -10.24461 -10.24135 -10.23830  -1.17790
 Alpha  occ. eigenvalues --   -1.12897  -1.12018  -1.10822  -1.10355  -1.09788
 Alpha  occ. eigenvalues --   -1.07285  -1.04667  -1.01104  -1.00339  -0.99079
 Alpha  occ. eigenvalues --   -0.98683  -0.97829  -0.97319  -0.95931  -0.91830
 Alpha  occ. eigenvalues --   -0.89272  -0.86659  -0.85655  -0.85215  -0.83921
 Alpha  occ. eigenvalues --   -0.82824  -0.80314  -0.78342  -0.76312  -0.75013
 Alpha  occ. eigenvalues --   -0.74439  -0.73666  -0.72958  -0.72223  -0.71278
 Alpha  occ. eigenvalues --   -0.69945  -0.69325  -0.68412  -0.67955  -0.67324
 Alpha  occ. eigenvalues --   -0.66775  -0.66429  -0.65388  -0.64789  -0.63133
 Alpha  occ. eigenvalues --   -0.62583  -0.62166  -0.61418  -0.60753  -0.59685
 Alpha  occ. eigenvalues --   -0.59578  -0.59299  -0.58763  -0.57321  -0.56464
 Alpha  occ. eigenvalues --   -0.56231  -0.55771  -0.55286  -0.54925  -0.54556
 Alpha  occ. eigenvalues --   -0.54233  -0.53992  -0.53274  -0.52172  -0.52104
 Alpha  occ. eigenvalues --   -0.51644  -0.51375  -0.51138  -0.50608  -0.50434
 Alpha  occ. eigenvalues --   -0.50341  -0.49940  -0.49294  -0.49115  -0.48671
 Alpha  occ. eigenvalues --   -0.48290  -0.47749  -0.46891  -0.46314  -0.46077
 Alpha  occ. eigenvalues --   -0.45794  -0.45757  -0.45168  -0.45079  -0.44822
 Alpha  occ. eigenvalues --   -0.43774  -0.43662  -0.43580  -0.43484  -0.42987
 Alpha  occ. eigenvalues --   -0.42369  -0.41382  -0.40804  -0.40416  -0.40148
 Alpha  occ. eigenvalues --   -0.39853  -0.39706  -0.39566  -0.37807  -0.37590
 Alpha  occ. eigenvalues --   -0.35147  -0.34945  -0.34884  -0.34631  -0.34445
 Alpha  occ. eigenvalues --   -0.33893  -0.33069  -0.31573  -0.31355  -0.29708
 Alpha  occ. eigenvalues --   -0.28560  -0.28065
 Alpha virt. eigenvalues --   -0.11542  -0.10817  -0.10396  -0.07462  -0.07415
 Alpha virt. eigenvalues --   -0.06392  -0.05720  -0.03202  -0.03019  -0.02931
 Alpha virt. eigenvalues --   -0.01654  -0.00184  -0.00034   0.00077   0.00507

 Mulliken charges:
               1
     1  N   -0.758080
     2  H    0.431456
     3  H    0.405036
     4  H    0.406332
     5  C   -0.111396
     6  H    0.221908
     7  C    0.657803
     8  C   -0.390237
     9  H    0.182521
    10  H    0.209768
    11  O   -0.538798
    12  C    0.124662
    13  C   -0.238149
    14  H    0.138874
    15  C   -0.197840
    16  H    0.186118
    17  C   -0.118935
    18  H    0.158763
    19  C   -0.143472
    20  H    0.187230
    21  C   -0.124972
    22  H    0.161323
    23  N   -0.596547
    24  H    0.371556
    25  C   -0.091978
    26  H    0.210503
    27  C    0.668948
    28  C   -0.260269
    29  H    0.146722
    30  H    0.157923
    31  O   -0.572490
    32  C   -0.070102
    33  H    0.118734
    34  C   -0.446224
    35  H    0.151827
    36  H    0.153783
    37  H    0.143223
    38  C   -0.461777
    39  H    0.145344
    40  H    0.165947
    41  H    0.152905
    42  N   -0.600641
    43  H    0.360761
    44  C   -0.069195
    45  H    0.187353
    46  C    0.622373
    47  C   -0.359292
    48  H    0.191975
    49  H    0.176343
    50  O   -0.550225
    51  C    0.619110
    52  N   -0.736645
    53  H    0.347526
    54  H    0.351402
    55  O   -0.531140
    56  N   -0.610117
    57  H    0.355243
    58  C   -0.066655
    59  H    0.164624
    60  C    0.594428
    61  C   -0.275195
    62  H    0.175531
    63  H    0.135639
    64  O   -0.637059
    65  C   -0.299521
    66  H    0.155619
    67  H    0.176341
    68  C   -0.165194
    69  H    0.159131
    70  H    0.172811
    71  N   -0.584383
    72  H    0.400793
    73  N   -0.747844
    74  H    0.366016
    75  H    0.373572
    76  N   -0.767466
    77  H    0.351912
    78  H    0.426994
    79  C    0.746531
    80  O   -0.549403
 Sum of Mulliken charges =   1.00000

 Dipole moment (field-independent basis, Debye):
    X=             -7.9186    Y=             12.1695    Z=              2.0049  Tot=             14.6568
 Quadrupole moment (field-independent basis, Debye-Ang):
   XX=            -60.1115   YY=           -187.5975   ZZ=            -46.6297
   XY=             -0.6495   XZ=           -169.9378   YZ=            -27.9742

 Normal termination of Gaussian 16 at Fri Jun 17 19:11:04 2022.
