 Gaussian 16, Revision C.01,
 Gaussian 16:  ES64L-G16RevC.01  3-Jul-2019

 ----------------------------------------------------------------------
 # B3LYP/6-31G* empiricaldispersion=gd3 guess=read geom=check nosymm in
 tegral(ultrafinegrid)
 ----------------------------------------------------------------------

 ------------------------------------------------------
 Candidate Structure: Conf:771 Charge calc in gas phase
 ------------------------------------------------------
 Structure from the checkpoint file:  "conf-771.chk"
 Charge =  1 Multiplicity = 1

                          Input orientation:
 ---------------------------------------------------------------------
 Center     Atomic      Atomic             Coordinates (Angstroms)
 Number     Number       Type             X           Y           Z
 ---------------------------------------------------------------------
      1          7           0       -6.434426    0.176335    3.342040
      2          1           0       -6.698579   -0.244049    2.409937
      3          1           0       -5.970358   -0.553679    3.913607
      4          1           0       -7.248190    0.536554    3.843939
      5          6           0       -5.421228    1.231964    2.963801
      6          1           0       -5.952202    2.188150    2.921445
      7          6           0       -5.048496    0.832395    1.507668
      8          6           0       -4.272956    1.292489    3.998524
      9          1           0       -4.665198    1.758359    4.910303
     10          1           0       -3.505796    1.974595    3.618149
     11          8           0       -5.776295    0.013284    0.928528
     12          6           0       -3.695007   -0.072416    4.304779
     13          6           0       -4.245345   -0.833280    5.354039
     14          1           0       -4.989916   -0.387862    6.014744
     15          6           0       -2.667255   -0.623617    3.527080
     16          1           0       -2.197936   -0.055947    2.728005
     17          6           0       -3.788919   -2.130010    5.607606
     18          1           0       -4.212854   -2.701632    6.428188
     19          6           0       -2.204222   -1.913719    3.792132
     20          1           0       -1.391079   -2.298116    3.187004
     21          6           0       -2.770712   -2.670415    4.821329
     22          1           0       -2.406526   -3.673878    5.021469
     23          7           0       -4.003804    1.449914    0.969681
     24          1           0       -3.345103    1.990187    1.529388
     25          6           0       -3.461352    1.123100   -0.348612
     26          1           0       -3.714190    0.081641   -0.565453
     27          6           0       -1.937057    1.275303   -0.172051
     28          6           0       -4.058554    2.057960   -1.425103
     29          1           0       -5.150084    1.975146   -1.339958
     30          1           0       -3.793809    3.089250   -1.158048
     31          8           0       -1.490588    1.897693    0.794131
     32          6           0       -3.654466    1.781670   -2.887113
     33          1           0       -2.565440    1.895195   -2.977665
     34          6           0       -4.039406    0.364824   -3.342275
     35          1           0       -5.118607    0.201796   -3.232221
     36          1           0       -3.783740    0.213625   -4.396290
     37          1           0       -3.534858   -0.425205   -2.771329
     38          6           0       -4.307683    2.830830   -3.799836
     39          1           0       -5.401707    2.760145   -3.757085
     40          1           0       -4.025518    3.848804   -3.506806
     41          1           0       -4.006513    2.683272   -4.842812
     42          7           0       -1.172023    0.705833   -1.124315
     43          1           0       -1.604592    0.193226   -1.881176
     44          6           0        0.263635    0.573167   -0.997044
     45          1           0        0.569440    1.231650   -0.181299
     46          6           0        1.003255    0.940483   -2.278666
     47          6           0        0.672220   -0.902504   -0.677703
     48          1           0       -0.075391   -1.578323   -1.101441
     49          1           0        1.645754   -1.125567   -1.118717
     50          8           0        0.453200    0.780990   -3.392190
     51          6           0        0.725240   -1.106204    0.830955
     52          7           0        1.972220   -1.056393    1.341559
     53          1           0        2.086054   -1.132522    2.343078
     54          1           0        2.792562   -0.904808    0.745017
     55          8           0       -0.307950   -1.245291    1.490121
     56          7           0        2.286522    1.279843   -2.062916
     57          1           0        2.584612    1.150246   -1.084038
     58          6           0        3.398033    0.743143   -2.861674
     59          1           0        2.971477    0.079853   -3.616216
     60          6           0        4.259858   -0.172141   -1.895374
     61          6           0        4.287044    1.803436   -3.544147
     62          1           0        5.080201    2.102008   -2.852836
     63          1           0        3.690487    2.704985   -3.725554
     64          8           0        5.237005   -0.694154   -2.437909
     65          6           0        4.913081    1.274948   -4.859771
     66          1           0        6.001640    1.218824   -4.771409
     67          1           0        4.609434    0.234662   -5.007997
     68          6           0        4.618968    2.115406   -6.127367
     69          1           0        5.302073    2.966708   -6.181823
     70          1           0        4.788742    1.520076   -7.031793
     71          7           0        3.267479    2.731735   -6.188320
     72          1           0        3.243208    3.739201   -6.270500
     73          7           0        1.951312    0.845395   -5.780107
     74          1           0        1.343046    0.457600   -5.049959
     75          1           0        2.667677    0.251834   -6.172162
     76          7           0        1.140478    2.935431   -5.252522
     77          1           0        0.421109    2.431339   -4.736592
     78          1           0        1.397502    3.823406   -4.841386
     79          6           0        2.142595    2.164644   -5.732654
     80          8           0        3.827322   -0.230857   -0.701195
 ---------------------------------------------------------------------

 SCF Done:  E(RB3LYP) =  -1866.68108365     A.U. after    1 cycles

 Alpha  occ. eigenvalues --  -19.25709 -19.22280 -19.21915 -19.17112 -19.13303
 Alpha  occ. eigenvalues --  -19.11821 -14.58162 -14.49412 -14.48571 -14.48412
 Alpha  occ. eigenvalues --  -14.48192 -14.46044 -14.42855 -14.40398 -10.45080
 Alpha  occ. eigenvalues --  -10.42583 -10.39763 -10.39040 -10.38063 -10.34837
 Alpha  occ. eigenvalues --  -10.34013 -10.33409 -10.32927 -10.32456 -10.30817
 Alpha  occ. eigenvalues --  -10.30311 -10.29270 -10.28517 -10.28492 -10.28230
 Alpha  occ. eigenvalues --  -10.28116 -10.27754 -10.27744 -10.27185 -10.27095
 Alpha  occ. eigenvalues --  -10.26644 -10.26307 -10.26107 -10.25735  -1.18124
 Alpha  occ. eigenvalues --   -1.14098  -1.13937  -1.12599  -1.12395  -1.08585
 Alpha  occ. eigenvalues --   -1.05993  -1.05295  -1.03256  -1.02644  -1.01728
 Alpha  occ. eigenvalues --   -1.00326  -0.97354  -0.95723  -0.95545  -0.92126
 Alpha  occ. eigenvalues --   -0.90401  -0.88072  -0.86831  -0.85596  -0.83628
 Alpha  occ. eigenvalues --   -0.83525  -0.82114  -0.78405  -0.77674  -0.77101
 Alpha  occ. eigenvalues --   -0.76193  -0.75069  -0.73399  -0.73199  -0.71746
 Alpha  occ. eigenvalues --   -0.71011  -0.70382  -0.69273  -0.68973  -0.68352
 Alpha  occ. eigenvalues --   -0.67848  -0.66838  -0.65525  -0.65129  -0.64818
 Alpha  occ. eigenvalues --   -0.64160  -0.63144  -0.62129  -0.61493  -0.61293
 Alpha  occ. eigenvalues --   -0.59656  -0.59338  -0.59058  -0.58070  -0.57520
 Alpha  occ. eigenvalues --   -0.57051  -0.56772  -0.56291  -0.55960  -0.55549
 Alpha  occ. eigenvalues --   -0.55362  -0.54732  -0.54044  -0.53580  -0.53355
 Alpha  occ. eigenvalues --   -0.52647  -0.52191  -0.51693  -0.51450  -0.51020
 Alpha  occ. eigenvalues --   -0.50935  -0.50748  -0.50185  -0.49871  -0.49787
 Alpha  occ. eigenvalues --   -0.49327  -0.48546  -0.47684  -0.46960  -0.46729
 Alpha  occ. eigenvalues --   -0.46375  -0.46076  -0.45808  -0.45500  -0.45291
 Alpha  occ. eigenvalues --   -0.45169  -0.43525  -0.43488  -0.43361  -0.43196
 Alpha  occ. eigenvalues --   -0.42882  -0.42578  -0.41902  -0.41816  -0.41756
 Alpha  occ. eigenvalues --   -0.41611  -0.40306  -0.40184  -0.39652  -0.38441
 Alpha  occ. eigenvalues --   -0.38029  -0.36711  -0.35801  -0.35312  -0.34490
 Alpha  occ. eigenvalues --   -0.34341  -0.34215  -0.32155  -0.30951  -0.28270
 Alpha  occ. eigenvalues --   -0.27976  -0.25758
 Alpha virt. eigenvalues --   -0.11767  -0.10873  -0.10474  -0.10405  -0.08570
 Alpha virt. eigenvalues --   -0.07666  -0.07459  -0.05659  -0.03245  -0.03077
 Alpha virt. eigenvalues --   -0.02593  -0.02098  -0.01648  -0.00819  -0.00232

 Mulliken charges:
               1
     1  N   -0.755194
     2  H    0.429782
     3  H    0.404205
     4  H    0.406610
     5  C   -0.113982
     6  H    0.222681
     7  C    0.660943
     8  C   -0.389967
     9  H    0.184438
    10  H    0.205377
    11  O   -0.543010
    12  C    0.135998
    13  C   -0.245583
    14  H    0.134850
    15  C   -0.196713
    16  H    0.181452
    17  C   -0.117923
    18  H    0.156950
    19  C   -0.129348
    20  H    0.197051
    21  C   -0.126240
    22  H    0.160104
    23  N   -0.609502
    24  H    0.376505
    25  C   -0.086960
    26  H    0.199678
    27  C    0.651230
    28  C   -0.248381
    29  H    0.159858
    30  H    0.149984
    31  O   -0.542823
    32  C   -0.100592
    33  H    0.135396
    34  C   -0.458549
    35  H    0.161538
    36  H    0.162960
    37  H    0.134824
    38  C   -0.446795
    39  H    0.153578
    40  H    0.147963
    41  H    0.153415
    42  N   -0.596291
    43  H    0.354338
    44  C   -0.084698
    45  H    0.216258
    46  C    0.585432
    47  C   -0.370357
    48  H    0.165314
    49  H    0.202281
    50  O   -0.603486
    51  C    0.584179
    52  N   -0.758282
    53  H    0.337169
    54  H    0.415995
    55  O   -0.540959
    56  N   -0.562677
    57  H    0.356437
    58  C   -0.096755
    59  H    0.129449
    60  C    0.593183
    61  C   -0.262041
    62  H    0.184364
    63  H    0.107820
    64  O   -0.541584
    65  C   -0.290179
    66  H    0.196021
    67  H    0.164018
    68  C   -0.173186
    69  H    0.184588
    70  H    0.186539
    71  N   -0.583984
    72  H    0.357543
    73  N   -0.735212
    74  H    0.407808
    75  H    0.373836
    76  N   -0.738398
    77  H    0.390034
    78  H    0.358912
    79  C    0.745633
    80  O   -0.614871
 Sum of Mulliken charges =   1.00000

 Dipole moment (field-independent basis, Debye):
    X=            -18.8237    Y=             10.4149    Z=             -3.0274  Tot=             21.7248
 Quadrupole moment (field-independent basis, Debye-Ang):
   XX=           -113.2523   YY=           -193.2548   ZZ=            -85.2319
   XY=             14.2630   XZ=           -107.2795   YZ=            -43.2325

 Normal termination of Gaussian 16 at Fri Jun 17 19:10:49 2022.
