 Gaussian 16, Revision C.01,
 Gaussian 16:  ES64L-G16RevC.01  3-Jul-2019

 ----------------------------------------------------------------------
 # B3LYP/6-31G* empiricaldispersion=gd3 guess=read geom=check nosymm in
 tegral(ultrafinegrid)
 ----------------------------------------------------------------------

 ------------------------------------------------------
 Candidate Structure: Conf:197 Charge calc in gas phase
 ------------------------------------------------------
 Structure from the checkpoint file:  "conf-197.chk"
 Charge =  1 Multiplicity = 1

                          Input orientation:
 ---------------------------------------------------------------------
 Center     Atomic      Atomic             Coordinates (Angstroms)
 Number     Number       Type             X           Y           Z
 ---------------------------------------------------------------------
      1          7           0       -4.876846   -1.456112    3.901010
      2          1           0       -5.675441   -1.554285    4.530588
      3          1           0       -5.068952   -1.863272    2.944943
      4          1           0       -4.055373   -1.946817    4.299344
      5          6           0       -4.502365   -0.025240    3.590928
      6          1           0       -5.390993    0.588801    3.767149
      7          6           0       -4.246018   -0.071171    2.055200
      8          6           0       -3.334425    0.440776    4.494068
      9          1           0       -3.728056    0.563490    5.510352
     10          1           0       -3.029594    1.440225    4.167094
     11          8           0       -4.577300   -1.100354    1.452161
     12          6           0       -2.161717   -0.517487    4.487215
     13          6           0       -2.128119   -1.589271    5.398572
     14          1           0       -2.875318   -1.656154    6.190654
     15          6           0       -1.125176   -0.383851    3.553343
     16          1           0       -1.113541    0.456642    2.865860
     17          6           0       -1.088922   -2.524607    5.353873
     18          1           0       -1.066943   -3.341001    6.070097
     19          6           0       -0.077447   -1.306314    3.521114
     20          1           0        0.738293   -1.166155    2.814082
     21          6           0       -0.068932   -2.384376    4.412148
     22          1           0        0.747009   -3.100685    4.385723
     23          7           0       -3.755465    1.032854    1.488350
     24          1           0       -3.318436    1.738388    2.073031
     25          6           0       -3.263449    1.058650    0.102469
     26          1           0       -3.585206    0.127676   -0.365194
     27          6           0       -1.731127    1.129211    0.221506
     28          6           0       -3.815704    2.280889   -0.652985
     29          1           0       -4.911947    2.240376   -0.606369
     30          1           0       -3.501149    3.182018   -0.109618
     31          8           0       -1.227312    1.787233    1.136509
     32          6           0       -3.365126    2.386146   -2.125317
     33          1           0       -2.267578    2.386812   -2.160656
     34          6           0       -3.862092    1.206242   -2.974314
     35          1           0       -4.958829    1.162327   -2.977586
     36          1           0       -3.522236    1.310686   -4.009180
     37          1           0       -3.494964    0.235884   -2.618428
     38          6           0       -3.853933    3.716003   -2.716805
     39          1           0       -4.950276    3.768412   -2.712638
     40          1           0       -3.473276    4.571896   -2.147386
     41          1           0       -3.518659    3.825371   -3.753596
     42          7           0       -1.038251    0.425330   -0.692290
     43          1           0       -1.506048    0.108768   -1.536716
     44          6           0        0.408865    0.483985   -0.803812
     45          1           0        0.761407    1.223851   -0.080236
     46          6           0        0.732697    0.891355   -2.254086
     47          6           0        1.043563   -0.910079   -0.493710
     48          1           0        0.371947   -1.437324    0.186820
     49          1           0        1.141110   -1.490025   -1.417881
     50          8           0       -0.122228    0.789961   -3.131510
     51          6           0        2.382946   -0.782528    0.231290
     52          7           0        3.474442   -0.668261   -0.572872
     53          1           0        4.374094   -0.663380   -0.108572
     54          1           0        3.423407   -0.896529   -1.578210
     55          8           0        2.438589   -0.719933    1.457520
     56          7           0        2.007992    1.295387   -2.478461
     57          1           0        2.664768    1.135886   -1.720427
     58          6           0        2.570189    1.189444   -3.828220
     59          1           0        1.859731    1.645502   -4.520073
     60          6           0        2.747851   -0.306218   -4.217641
     61          6           0        3.911547    1.962927   -3.844448
     62          1           0        4.662644    1.376344   -3.295613
     63          1           0        3.743685    2.872422   -3.256648
     64          8           0        2.615633   -0.579345   -5.453039
     65          6           0        4.473413    2.392048   -5.222875
     66          1           0        3.657442    2.497714   -5.949188
     67          1           0        4.915451    3.389889   -5.123160
     68          6           0        5.571474    1.502657   -5.828370
     69          1           0        6.003433    2.006211   -6.702632
     70          1           0        6.375110    1.353331   -5.096217
     71          7           0        5.022637    0.203616   -6.223129
     72          1           0        3.988949    0.135488   -6.216165
     73          7           0        6.954333   -1.067637   -5.912542
     74          1           0        7.388454   -1.975005   -5.824542
     75          1           0        7.526797   -0.346951   -6.328311
     76          7           0        4.831515   -2.065365   -5.952933
     77          1           0        5.230493   -2.982784   -5.822581
     78          1           0        3.831062   -1.889451   -5.721173
     79          6           0        5.605647   -0.981361   -6.031493
     80          8           0        3.079488   -1.119717   -3.325304
 ---------------------------------------------------------------------

 SCF Done:  E(RB3LYP) =  -1866.71940227     A.U. after    1 cycles

 Alpha  occ. eigenvalues --  -19.25660 -19.20577 -19.18701 -19.17486 -19.15915
 Alpha  occ. eigenvalues --  -19.15865 -14.57913 -14.48438 -14.47641 -14.44870
 Alpha  occ. eigenvalues --  -14.44823 -14.44526 -14.42079 -14.40636 -10.42547
 Alpha  occ. eigenvalues --  -10.42407 -10.39629 -10.37640 -10.35509 -10.35071
 Alpha  occ. eigenvalues --  -10.33572 -10.32842 -10.32832 -10.31653 -10.31164
 Alpha  occ. eigenvalues --  -10.30102 -10.29105 -10.28500 -10.28278 -10.27483
 Alpha  occ. eigenvalues --  -10.27351 -10.27338 -10.27023 -10.26773 -10.26604
 Alpha  occ. eigenvalues --  -10.26333 -10.26041 -10.24017 -10.23590  -1.18075
 Alpha  occ. eigenvalues --   -1.12738  -1.12131  -1.11251  -1.10568  -1.09052
 Alpha  occ. eigenvalues --   -1.08940  -1.04971  -1.01158  -1.01019  -0.99969
 Alpha  occ. eigenvalues --   -0.99042  -0.98747  -0.95667  -0.95473  -0.91647
 Alpha  occ. eigenvalues --   -0.89191  -0.87475  -0.85688  -0.85035  -0.83372
 Alpha  occ. eigenvalues --   -0.82640  -0.81293  -0.78102  -0.76117  -0.74956
 Alpha  occ. eigenvalues --   -0.74444  -0.73215  -0.73054  -0.72674  -0.71542
 Alpha  occ. eigenvalues --   -0.70175  -0.68954  -0.68581  -0.67753  -0.67321
 Alpha  occ. eigenvalues --   -0.67131  -0.65733  -0.65061  -0.64561  -0.63721
 Alpha  occ. eigenvalues --   -0.63371  -0.61831  -0.60844  -0.59759  -0.59656
 Alpha  occ. eigenvalues --   -0.59393  -0.58992  -0.58327  -0.58142  -0.56766
 Alpha  occ. eigenvalues --   -0.56299  -0.55722  -0.55566  -0.55318  -0.55038
 Alpha  occ. eigenvalues --   -0.54454  -0.54090  -0.53331  -0.52619  -0.52316
 Alpha  occ. eigenvalues --   -0.51649  -0.51219  -0.50887  -0.50627  -0.50269
 Alpha  occ. eigenvalues --   -0.50170  -0.49951  -0.49743  -0.49369  -0.49290
 Alpha  occ. eigenvalues --   -0.48459  -0.47800  -0.47331  -0.46782  -0.45862
 Alpha  occ. eigenvalues --   -0.45386  -0.45249  -0.45215  -0.44908  -0.44751
 Alpha  occ. eigenvalues --   -0.44585  -0.43610  -0.43481  -0.43275  -0.42847
 Alpha  occ. eigenvalues --   -0.42498  -0.42056  -0.41892  -0.40961  -0.40822
 Alpha  occ. eigenvalues --   -0.40190  -0.39601  -0.39393  -0.38229  -0.37802
 Alpha  occ. eigenvalues --   -0.35020  -0.34870  -0.34419  -0.34250  -0.34104
 Alpha  occ. eigenvalues --   -0.33974  -0.32856  -0.32189  -0.31624  -0.31037
 Alpha  occ. eigenvalues --   -0.29879  -0.29471
 Alpha virt. eigenvalues --   -0.11681  -0.10346  -0.10290  -0.07410  -0.07068
 Alpha virt. eigenvalues --   -0.06855  -0.05044  -0.03636  -0.03574  -0.03122
 Alpha virt. eigenvalues --   -0.02196  -0.01976  -0.00093   0.00160   0.00368

 Mulliken charges:
               1
     1  N   -0.756232
     2  H    0.406781
     3  H    0.431318
     4  H    0.402104
     5  C   -0.115182
     6  H    0.224058
     7  C    0.657423
     8  C   -0.390209
     9  H    0.185535
    10  H    0.201064
    11  O   -0.533630
    12  C    0.139397
    13  C   -0.248803
    14  H    0.134335
    15  C   -0.214859
    16  H    0.197209
    17  C   -0.119024
    18  H    0.155489
    19  C   -0.157223
    20  H    0.222697
    21  C   -0.135061
    22  H    0.161075
    23  N   -0.587341
    24  H    0.360480
    25  C   -0.098670
    26  H    0.198078
    27  C    0.628121
    28  C   -0.255914
    29  H    0.151351
    30  H    0.150728
    31  O   -0.542222
    32  C   -0.101376
    33  H    0.155737
    34  C   -0.449636
    35  H    0.146111
    36  H    0.174534
    37  H    0.130920
    38  C   -0.446648
    39  H    0.145157
    40  H    0.147852
    41  H    0.160297
    42  N   -0.589631
    43  H    0.367394
    44  C   -0.089104
    45  H    0.208788
    46  C    0.628285
    47  C   -0.364965
    48  H    0.177061
    49  H    0.194379
    50  O   -0.531366
    51  C    0.551901
    52  N   -0.788790
    53  H    0.333950
    54  H    0.408437
    55  O   -0.498208
    56  N   -0.606781
    57  H    0.343229
    58  C   -0.039908
    59  H    0.183511
    60  C    0.611533
    61  C   -0.302026
    62  H    0.143041
    63  H    0.167899
    64  O   -0.618017
    65  C   -0.304689
    66  H    0.174856
    67  H    0.165831
    68  C   -0.148244
    69  H    0.170412
    70  H    0.164154
    71  N   -0.605207
    72  H    0.402382
    73  N   -0.755190
    74  H    0.363998
    75  H    0.371308
    76  N   -0.760524
    77  H    0.349258
    78  H    0.416925
    79  C    0.766859
    80  O   -0.578563
 Sum of Mulliken charges =   1.00000

 Dipole moment (field-independent basis, Debye):
    X=             -1.0660    Y=             -2.7275    Z=              1.8669  Tot=              3.4729
 Quadrupole moment (field-independent basis, Debye-Ang):
   XX=            -33.0450   YY=           -201.8058   ZZ=           -106.9945
   XY=             -2.7345   XZ=           -160.3678   YZ=            -16.7657

 Normal termination of Gaussian 16 at Fri Jun 17 19:10:48 2022.
