 Gaussian 16, Revision C.01,
 Gaussian 16:  ES64L-G16RevC.01  3-Jul-2019

 ----------------------------------------------------------------------
 # B3LYP/6-31G* empiricaldispersion=gd3 guess=read geom=check nosymm in
 tegral(ultrafinegrid)
 ----------------------------------------------------------------------

 ------------------------------------------------------
 Candidate Structure: Conf:304 Charge calc in gas phase
 ------------------------------------------------------
 Structure from the checkpoint file:  "conf-304.chk"
 Charge =  1 Multiplicity = 1

                          Input orientation:
 ---------------------------------------------------------------------
 Center     Atomic      Atomic             Coordinates (Angstroms)
 Number     Number       Type             X           Y           Z
 ---------------------------------------------------------------------
      1          7           0       -5.256042    1.364846    4.326643
      2          1           0       -6.168844    1.773304    4.108552
      3          1           0       -5.236198    0.382995    3.943494
      4          1           0       -5.111423    1.401217    5.347384
      5          6           0       -4.122110    2.035202    3.587553
      6          1           0       -4.435279    3.047463    3.324845
      7          6           0       -3.908470    1.130247    2.351277
      8          6           0       -2.857916    2.066218    4.480397
      9          1           0       -2.086421    2.611345    3.925843
     10          1           0       -2.493665    1.038955    4.602444
     11          8           0       -4.396268   -0.008712    2.384191
     12          6           0       -3.140325    2.701147    5.823405
     13          6           0       -3.252687    4.093552    5.945836
     14          1           0       -3.057233    4.728813    5.084464
     15          6           0       -3.379785    1.896379    6.948959
     16          1           0       -3.249036    0.817109    6.880268
     17          6           0       -3.592348    4.669123    7.169218
     18          1           0       -3.662583    5.749352    7.255776
     19          6           0       -3.726606    2.474578    8.174900
     20          1           0       -3.895197    1.842094    9.041373
     21          6           0       -3.835187    3.860538    8.284415
     22          1           0       -4.097171    4.312386    9.236263
     23          7           0       -3.169341    1.657696    1.384190
     24          1           0       -2.673633    2.542418    1.528063
     25          6           0       -2.581513    0.917645    0.266433
     26          1           0       -2.496305   -0.134799    0.552595
     27          6           0       -1.175876    1.545676    0.102694
     28          6           0       -3.404857    1.063685   -1.028695
     29          1           0       -3.459082    2.133873   -1.268953
     30          1           0       -2.842211    0.590432   -1.844158
     31          8           0       -0.901796    2.601674    0.687820
     32          6           0       -4.822225    0.463133   -0.982932
     33          1           0       -5.352100    0.904170   -0.125700
     34          6           0       -5.581775    0.849494   -2.260865
     35          1           0       -5.087781    0.433547   -3.147899
     36          1           0       -6.605795    0.460928   -2.239646
     37          1           0       -5.635042    1.937431   -2.386537
     38          6           0       -4.799705   -1.061096   -0.799859
     39          1           0       -4.229527   -1.540868   -1.605747
     40          1           0       -4.363080   -1.352574    0.160000
     41          1           0       -5.817307   -1.466007   -0.830124
     42          7           0       -0.342120    0.889425   -0.708978
     43          1           0       -0.598131    0.024016   -1.183588
     44          6           0        0.984319    1.361839   -1.069221
     45          1           0        0.945065    2.425015   -1.323452
     46          6           0        1.398914    0.513772   -2.297039
     47          6           0        1.984927    1.203579    0.106016
     48          1           0        1.595706    1.786660    0.945893
     49          1           0        2.044960    0.150565    0.402826
     50          8           0        0.773542   -0.517948   -2.563295
     51          6           0        3.330038    1.785330   -0.323927
     52          7           0        4.411822    0.962072   -0.265260
     53          1           0        5.145901    1.188227   -0.934170
     54          1           0        4.261340   -0.028099   -0.125815
     55          8           0        3.384401    2.931455   -0.765370
     56          7           0        2.463122    0.962891   -2.987293
     57          1           0        2.972767    1.778463   -2.655466
     58          6           0        3.186357    0.157437   -3.966805
     59          1           0        2.820977   -0.868460   -3.902517
     60          6           0        4.699617    0.169183   -3.642317
     61          6           0        2.926243    0.699117   -5.400898
     62          1           0        2.990626    1.795374   -5.361786
     63          1           0        1.882822    0.475069   -5.646579
     64          8           0        5.340412   -0.827396   -4.088263
     65          6           0        3.869864    0.123359   -6.483550
     66          1           0        4.325149   -0.793925   -6.105842
     67          1           0        3.294563   -0.145256   -7.376933
     68          6           0        4.983458    1.081552   -6.971450
     69          1           0        5.802138    0.515722   -7.422936
     70          1           0        4.582910    1.752131   -7.739431
     71          7           0        5.580948    1.973284   -5.964153
     72          1           0        5.019951    2.764284   -5.679021
     73          7           0        7.279220    0.568545   -5.225581
     74          1           0        8.186883    0.556006   -4.774565
     75          1           0        6.625356   -0.194701   -4.881989
     76          7           0        7.279371    2.828104   -4.625276
     77          1           0        7.582241    2.635716   -3.677136
     78          1           0        6.843090    3.735820   -4.729149
     79          6           0        6.693035    1.771999   -5.250934
     80          8           0        5.170994    1.191074   -3.076208
 ---------------------------------------------------------------------

 SCF Done:  E(RB3LYP) =  -1866.69953626     A.U. after    1 cycles

 Alpha  occ. eigenvalues --  -19.26068 -19.21128 -19.18241 -19.16894 -19.14539
 Alpha  occ. eigenvalues --  -19.14492 -14.59430 -14.48526 -14.46317 -14.45377
 Alpha  occ. eigenvalues --  -14.44406 -14.42520 -14.41518 -14.40437 -10.42858
 Alpha  occ. eigenvalues --  -10.41182 -10.40318 -10.38046 -10.35325 -10.34686
 Alpha  occ. eigenvalues --  -10.33825 -10.33563 -10.32386 -10.32126 -10.30940
 Alpha  occ. eigenvalues --  -10.30916 -10.30518 -10.30285 -10.30277 -10.30143
 Alpha  occ. eigenvalues --  -10.29878 -10.27624 -10.27195 -10.26963 -10.26480
 Alpha  occ. eigenvalues --  -10.25019 -10.24572 -10.24455 -10.24267  -1.18482
 Alpha  occ. eigenvalues --   -1.13573  -1.12901  -1.10153  -1.09983  -1.08718
 Alpha  occ. eigenvalues --   -1.07648  -1.05378  -1.01095  -0.99791  -0.99366
 Alpha  occ. eigenvalues --   -0.97912  -0.97605  -0.97109  -0.95609  -0.93135
 Alpha  occ. eigenvalues --   -0.89908  -0.86847  -0.86245  -0.85817  -0.85225
 Alpha  occ. eigenvalues --   -0.83177  -0.80265  -0.79263  -0.75907  -0.75400
 Alpha  occ. eigenvalues --   -0.74845  -0.73669  -0.73580  -0.73105  -0.71615
 Alpha  occ. eigenvalues --   -0.71320  -0.70098  -0.69952  -0.67237  -0.66486
 Alpha  occ. eigenvalues --   -0.66440  -0.65890  -0.64385  -0.63710  -0.63193
 Alpha  occ. eigenvalues --   -0.62797  -0.62702  -0.62537  -0.61158  -0.58943
 Alpha  occ. eigenvalues --   -0.58606  -0.58289  -0.57656  -0.57440  -0.57183
 Alpha  occ. eigenvalues --   -0.56691  -0.56501  -0.55999  -0.55295  -0.54754
 Alpha  occ. eigenvalues --   -0.54146  -0.53628  -0.53317  -0.52647  -0.52411
 Alpha  occ. eigenvalues --   -0.52349  -0.51955  -0.51429  -0.51131  -0.50923
 Alpha  occ. eigenvalues --   -0.50491  -0.50235  -0.49686  -0.48606  -0.48552
 Alpha  occ. eigenvalues --   -0.47938  -0.47543  -0.47309  -0.46960  -0.46614
 Alpha  occ. eigenvalues --   -0.46040  -0.45660  -0.45451  -0.45395  -0.45171
 Alpha  occ. eigenvalues --   -0.44832  -0.44426  -0.44129  -0.43328  -0.42329
 Alpha  occ. eigenvalues --   -0.41961  -0.41150  -0.40870  -0.40682  -0.40433
 Alpha  occ. eigenvalues --   -0.40275  -0.40257  -0.39443  -0.38200  -0.36994
 Alpha  occ. eigenvalues --   -0.36638  -0.36122  -0.35269  -0.35094  -0.34407
 Alpha  occ. eigenvalues --   -0.32955  -0.32486  -0.32251  -0.30468  -0.30149
 Alpha  occ. eigenvalues --   -0.28725  -0.27948
 Alpha virt. eigenvalues --   -0.12891  -0.12334  -0.10547  -0.09669  -0.07727
 Alpha virt. eigenvalues --   -0.06910  -0.04552  -0.04377  -0.03242  -0.02459
 Alpha virt. eigenvalues --   -0.02428  -0.01565  -0.01167  -0.00879  -0.00191

 Mulliken charges:
               1
     1  N   -0.749191
     2  H    0.415543
     3  H    0.425346
     4  H    0.404724
     5  C   -0.116683
     6  H    0.214030
     7  C    0.652670
     8  C   -0.390256
     9  H    0.217391
    10  H    0.193126
    11  O   -0.539460
    12  C    0.141944
    13  C   -0.181088
    14  H    0.149265
    15  C   -0.232972
    16  H    0.151248
    17  C   -0.122581
    18  H    0.168283
    19  C   -0.120193
    20  H    0.167410
    21  C   -0.124099
    22  H    0.169306
    23  N   -0.590340
    24  H    0.369258
    25  C   -0.092377
    26  H    0.192751
    27  C    0.636138
    28  C   -0.256708
    29  H    0.149721
    30  H    0.161471
    31  O   -0.555296
    32  C   -0.069313
    33  H    0.113720
    34  C   -0.446413
    35  H    0.154486
    36  H    0.153874
    37  H    0.144492
    38  C   -0.462167
    39  H    0.148901
    40  H    0.161921
    41  H    0.153682
    42  N   -0.626185
    43  H    0.365559
    44  C   -0.044271
    45  H    0.205595
    46  C    0.592559
    47  C   -0.344416
    48  H    0.198453
    49  H    0.145916
    50  O   -0.546532
    51  C    0.565860
    52  N   -0.723775
    53  H    0.371247
    54  H    0.333052
    55  O   -0.521290
    56  N   -0.610125
    57  H    0.367986
    58  C   -0.048341
    59  H    0.186705
    60  C    0.582104
    61  C   -0.272070
    62  H    0.113920
    63  H    0.165312
    64  O   -0.591717
    65  C   -0.294625
    66  H    0.203613
    67  H    0.151366
    68  C   -0.154282
    69  H    0.195036
    70  H    0.167268
    71  N   -0.566369
    72  H    0.350189
    73  N   -0.734585
    74  H    0.343554
    75  H    0.416873
    76  N   -0.732310
    77  H    0.371071
    78  H    0.351038
    79  C    0.728937
    80  O   -0.623883
 Sum of Mulliken charges =   1.00000

 Dipole moment (field-independent basis, Debye):
    X=            -10.4129    Y=             11.6051    Z=              9.5844  Tot=             18.3022
 Quadrupole moment (field-independent basis, Debye-Ang):
   XX=            -69.7270   YY=           -202.6429   ZZ=            -66.7675
   XY=            -14.3971   XZ=           -133.8400   YZ=             10.4971

 Normal termination of Gaussian 16 at Fri Jun 17 19:10:42 2022.
