 Gaussian 16, Revision C.01,
 Gaussian 16:  ES64L-G16RevC.01  3-Jul-2019

 ----------------------------------------------------------------------
 # B3LYP/6-31G* empiricaldispersion=gd3 guess=read geom=check nosymm in
 tegral(ultrafinegrid)
 ----------------------------------------------------------------------

 ------------------------------------------------------
 Candidate Structure: Conf:156 Charge calc in gas phase
 ------------------------------------------------------
 Structure from the checkpoint file:  "conf-156.chk"
 Charge =  1 Multiplicity = 1

                          Input orientation:
 ---------------------------------------------------------------------
 Center     Atomic      Atomic             Coordinates (Angstroms)
 Number     Number       Type             X           Y           Z
 ---------------------------------------------------------------------
      1          7           0       -5.582208   -1.232504    4.223602
      2          1           0       -6.426979   -0.662880    4.325864
      3          1           0       -5.567664   -1.646323    3.238959
      4          1           0       -5.586461   -1.962296    4.941534
      5          6           0       -4.304371   -0.414640    4.205598
      6          1           0       -4.492874    0.547680    4.685097
      7          6           0       -4.032214   -0.273013    2.685363
      8          6           0       -3.183104   -1.187119    4.936511
      9          1           0       -3.090032   -2.178491    4.475880
     10          1           0       -3.493526   -1.330561    5.980547
     11          8           0       -4.596798   -1.091567    1.935790
     12          6           0       -1.860395   -0.453960    4.872512
     13          6           0       -0.835725   -0.909780    4.034818
     14          1           0       -0.975163   -1.819614    3.455692
     15          6           0       -1.670320    0.721583    5.611185
     16          1           0       -2.453786    1.078544    6.277622
     17          6           0        0.364359   -0.204945    3.941572
     18          1           0        1.155634   -0.568971    3.293535
     19          6           0       -0.474293    1.432557    5.509413
     20          1           0       -0.336526    2.342832    6.084850
     21          6           0        0.544607    0.968346    4.675724
     22          1           0        1.478087    1.517843    4.600847
     23          7           0       -3.202873    0.684822    2.313722
     24          1           0       -2.735434    1.297320    2.986227
     25          6           0       -2.713791    0.864731    0.944582
     26          1           0       -2.483770   -0.121781    0.531669
     27          6           0       -1.433006    1.705479    1.111874
     28          6           0       -3.776255    1.572181    0.073125
     29          1           0       -4.698040    0.981646    0.153057
     30          1           0       -3.975406    2.552797    0.524066
     31          8           0       -1.289236    2.412535    2.115436
     32          6           0       -3.423814    1.745193   -1.417400
     33          1           0       -2.508909    2.347231   -1.491077
     34          6           0       -3.178692    0.402063   -2.122337
     35          1           0       -4.053793   -0.253283   -2.026535
     36          1           0       -2.989197    0.557188   -3.189325
     37          1           0       -2.313363   -0.141184   -1.724331
     38          6           0       -4.551818    2.519717   -2.115618
     39          1           0       -5.493418    1.956834   -2.080594
     40          1           0       -4.723097    3.493537   -1.642249
     41          1           0       -4.308468    2.695637   -3.168883
     42          7           0       -0.546014    1.624233    0.112920
     43          1           0       -0.654460    0.987441   -0.674367
     44          6           0        0.709883    2.352638    0.088304
     45          1           0        0.518388    3.403202    0.331184
     46          6           0        1.256789    2.210220   -1.346792
     47          6           0        1.713523    1.753057    1.117572
     48          1           0        1.347695    1.996410    2.119560
     49          1           0        1.724333    0.668220    0.991569
     50          8           0        0.913965    1.249811   -2.041543
     51          6           0        3.139605    2.244000    0.869338
     52          7           0        3.420966    3.511995    1.307642
     53          1           0        4.162803    3.986110    0.796949
     54          1           0        2.668751    4.105075    1.632528
     55          8           0        3.948125    1.554920    0.266991
     56          7           0        2.131139    3.160825   -1.710658
     57          1           0        2.419926    3.887400   -1.054758
     58          6           0        3.159763    2.962604   -2.728698
     59          1           0        3.434175    1.902797   -2.740719
     60          6           0        4.393987    3.787931   -2.240167
     61          6           0        2.607760    3.365863   -4.126196
     62          1           0        2.596302    4.461512   -4.206949
     63          1           0        1.561369    3.047750   -4.118368
     64          8           0        5.494673    3.547786   -2.836892
     65          6           0        3.281081    2.731242   -5.370760
     66          1           0        3.859601    1.844980   -5.080384
     67          1           0        2.505219    2.369909   -6.055167
     68          6           0        4.185228    3.665812   -6.188328
     69          1           0        4.522343    3.152279   -7.098396
     70          1           0        3.627036    4.560385   -6.494722
     71          7           0        5.335639    4.057531   -5.374496
     72          1           0        5.427719    3.555887   -4.457930
     73          7           0        5.808697    6.098113   -6.403434
     74          1           0        6.241681    7.008993   -6.369407
     75          1           0        5.644195    5.711024   -7.320864
     76          7           0        6.524251    5.641755   -4.220717
     77          1           0        7.146245    6.435030   -4.199769
     78          1           0        6.379141    5.045880   -3.383681
     79          6           0        5.897809    5.261635   -5.339359
     80          8           0        4.211493    4.623384   -1.333810
 ---------------------------------------------------------------------

 SCF Done:  E(RB3LYP) =  -1866.70142592     A.U. after    2 cycles

 Alpha  occ. eigenvalues --  -19.26161 -19.20731 -19.17783 -19.15971 -19.14688
 Alpha  occ. eigenvalues --  -19.14080 -14.59933 -14.48566 -14.46485 -14.44390
 Alpha  occ. eigenvalues --  -14.43941 -14.43058 -14.40360 -14.39878 -10.42776
 Alpha  occ. eigenvalues --  -10.41152 -10.40546 -10.37796 -10.34662 -10.33911
 Alpha  occ. eigenvalues --  -10.33776 -10.33413 -10.32288 -10.31156 -10.30546
 Alpha  occ. eigenvalues --  -10.30108 -10.29111 -10.28874 -10.28439 -10.28266
 Alpha  occ. eigenvalues --  -10.28124 -10.27477 -10.26931 -10.26736 -10.25878
 Alpha  occ. eigenvalues --  -10.25499 -10.24646 -10.24392 -10.24334  -1.18683
 Alpha  occ. eigenvalues --   -1.13631  -1.12682  -1.09923  -1.09543  -1.07834
 Alpha  occ. eigenvalues --   -1.07549  -1.05311  -1.01025  -0.99900  -0.98677
 Alpha  occ. eigenvalues --   -0.97853  -0.97136  -0.96414  -0.94888  -0.92541
 Alpha  occ. eigenvalues --   -0.89707  -0.86191  -0.85679  -0.84881  -0.84120
 Alpha  occ. eigenvalues --   -0.83063  -0.79742  -0.79239  -0.75977  -0.75363
 Alpha  occ. eigenvalues --   -0.74917  -0.73685  -0.73241  -0.72995  -0.71573
 Alpha  occ. eigenvalues --   -0.70478  -0.69687  -0.68148  -0.67576  -0.66866
 Alpha  occ. eigenvalues --   -0.66232  -0.65810  -0.64172  -0.63690  -0.63379
 Alpha  occ. eigenvalues --   -0.62826  -0.62602  -0.61080  -0.60793  -0.58955
 Alpha  occ. eigenvalues --   -0.58649  -0.58347  -0.58200  -0.57684  -0.56750
 Alpha  occ. eigenvalues --   -0.56364  -0.55494  -0.55430  -0.54826  -0.54381
 Alpha  occ. eigenvalues --   -0.53960  -0.53658  -0.52902  -0.52506  -0.52137
 Alpha  occ. eigenvalues --   -0.51668  -0.51432  -0.51094  -0.50702  -0.50577
 Alpha  occ. eigenvalues --   -0.50029  -0.49710  -0.49553  -0.49143  -0.49044
 Alpha  occ. eigenvalues --   -0.47437  -0.46812  -0.46111  -0.45879  -0.45647
 Alpha  occ. eigenvalues --   -0.45455  -0.45313  -0.45085  -0.44557  -0.44311
 Alpha  occ. eigenvalues --   -0.44161  -0.43902  -0.43731  -0.43233  -0.42047
 Alpha  occ. eigenvalues --   -0.41802  -0.41589  -0.40993  -0.40822  -0.40433
 Alpha  occ. eigenvalues --   -0.40260  -0.39890  -0.39066  -0.37769  -0.37002
 Alpha  occ. eigenvalues --   -0.35135  -0.34616  -0.34491  -0.33878  -0.33762
 Alpha  occ. eigenvalues --   -0.32208  -0.31749  -0.31304  -0.29843  -0.29358
 Alpha  occ. eigenvalues --   -0.28937  -0.28331
 Alpha virt. eigenvalues --   -0.11988  -0.10928  -0.10726  -0.09919  -0.06848
 Alpha virt. eigenvalues --   -0.05817  -0.05796  -0.04002  -0.02661  -0.02580
 Alpha virt. eigenvalues --   -0.02504  -0.01388  -0.00758  -0.00058   0.00223

 Mulliken charges:
               1
     1  N   -0.756550
     2  H    0.416297
     3  H    0.432185
     4  H    0.413390
     5  C   -0.111469
     6  H    0.214828
     7  C    0.656380
     8  C   -0.379801
     9  H    0.184157
    10  H    0.183702
    11  O   -0.554020
    12  C    0.148456
    13  C   -0.180974
    14  H    0.143429
    15  C   -0.197513
    16  H    0.130767
    17  C   -0.125336
    18  H    0.166195
    19  C   -0.112463
    20  H    0.159394
    21  C   -0.113850
    22  H    0.163478
    23  N   -0.601272
    24  H    0.384110
    25  C   -0.061251
    26  H    0.185070
    27  C    0.630277
    28  C   -0.258503
    29  H    0.158139
    30  H    0.150957
    31  O   -0.554827
    32  C   -0.092274
    33  H    0.145340
    34  C   -0.456385
    35  H    0.150298
    36  H    0.167387
    37  H    0.141986
    38  C   -0.445894
    39  H    0.145040
    40  H    0.147943
    41  H    0.158415
    42  N   -0.626845
    43  H    0.372543
    44  C   -0.043866
    45  H    0.169862
    46  C    0.612682
    47  C   -0.359521
    48  H    0.177645
    49  H    0.173703
    50  O   -0.554277
    51  C    0.556790
    52  N   -0.736883
    53  H    0.378701
    54  H    0.323249
    55  O   -0.488888
    56  N   -0.611238
    57  H    0.352879
    58  C   -0.054817
    59  H    0.186406
    60  C    0.617856
    61  C   -0.271721
    62  H    0.139534
    63  H    0.171384
    64  O   -0.630408
    65  C   -0.304999
    66  H    0.173299
    67  H    0.158953
    68  C   -0.147463
    69  H    0.162740
    70  H    0.160054
    71  N   -0.609055
    72  H    0.414071
    73  N   -0.756062
    74  H    0.361989
    75  H    0.370098
    76  N   -0.777276
    77  H    0.348999
    78  H    0.419599
    79  C    0.770149
    80  O   -0.575106
 Sum of Mulliken charges =   1.00000

 Dipole moment (field-independent basis, Debye):
    X=            -12.1735    Y=              8.4668    Z=              4.8464  Tot=             15.6002
 Quadrupole moment (field-independent basis, Debye-Ang):
   XX=            -84.3760   YY=           -145.9430   ZZ=            -54.7217
   XY=             81.8975   XZ=           -152.2859   YZ=            -89.4603

 Normal termination of Gaussian 16 at Fri Jun 17 19:11:04 2022.
