 Gaussian 16, Revision C.01,
 Gaussian 16:  ES64L-G16RevC.01  3-Jul-2019

 ----------------------------------------------------------------------
 # B3LYP/6-31G* empiricaldispersion=gd3 guess=read geom=check nosymm in
 tegral(ultrafinegrid)
 ----------------------------------------------------------------------

 -----------------------------------------------------
 Candidate Structure: Conf:14 Charge calc in gas phase
 -----------------------------------------------------
 Structure from the checkpoint file:  "conf-14.chk"
 Charge =  1 Multiplicity = 1

                          Input orientation:
 ---------------------------------------------------------------------
 Center     Atomic      Atomic             Coordinates (Angstroms)
 Number     Number       Type             X           Y           Z
 ---------------------------------------------------------------------
      1          7           0       -5.978788    0.315937    4.457759
      2          1           0       -6.736783    0.972270    4.663230
      3          1           0       -6.168891   -0.120919    3.517288
      4          1           0       -5.924108   -0.377149    5.219817
      5          6           0       -4.650584    1.002622    4.244201
      6          1           0       -4.675880    1.965570    4.757848
      7          6           0       -4.555808    1.141710    2.706506
      8          6           0       -3.505860    0.117129    4.793787
      9          1           0       -2.574998    0.680637    4.667760
     10          1           0       -3.423338   -0.775289    4.161601
     11          8           0       -5.312961    0.440249    2.020070
     12          6           0       -3.741757   -0.265105    6.237579
     13          6           0       -3.509514    0.657249    7.267962
     14          1           0       -3.080935    1.629841    7.035452
     15          6           0       -4.279482   -1.522446    6.556699
     16          1           0       -4.419173   -2.265988    5.772907
     17          6           0       -3.804346    0.327306    8.589909
     18          1           0       -3.606935    1.044296    9.381288
     19          6           0       -4.580819   -1.850470    7.883005
     20          1           0       -4.982787   -2.831431    8.118360
     21          6           0       -4.345558   -0.924849    8.899143
     22          1           0       -4.571613   -1.179285    9.930159
     23          7           0       -3.621334    1.976720    2.271974
     24          1           0       -2.935392    2.374343    2.921144
     25          6           0       -3.122860    2.053726    0.897833
     26          1           0       -3.329417    1.102423    0.398652
     27          6           0       -1.596007    2.249662    1.069405
     28          6           0       -3.747024    3.225269    0.114591
     29          1           0       -3.508861    4.150983    0.655187
     30          1           0       -3.239729    3.293806   -0.856713
     31          8           0       -1.133036    2.518908    2.185755
     32          6           0       -5.266232    3.129484   -0.118529
     33          1           0       -5.753963    3.004115    0.859496
     34          6           0       -5.771776    4.441504   -0.736805
     35          1           0       -5.309515    4.613196   -1.716991
     36          1           0       -6.857047    4.412147   -0.883246
     37          1           0       -5.539103    5.304175   -0.101305
     38          6           0       -5.642815    1.929319   -0.998994
     39          1           0       -5.130236    1.982413   -1.968143
     40          1           0       -5.393462    0.976686   -0.522284
     41          1           0       -6.720528    1.921624   -1.196229
     42          7           0       -0.869242    2.133500   -0.044951
     43          1           0       -1.278390    1.919195   -0.953867
     44          6           0        0.563059    2.374031   -0.109898
     45          1           0        0.812362    3.289512    0.434292
     46          6           0        0.885327    2.514355   -1.616832
     47          6           0        1.367368    1.217219    0.537291
     48          1           0        1.023562    1.119672    1.571525
     49          1           0        1.165061    0.279530    0.007549
     50          8           0        0.057433    2.138157   -2.453927
     51          6           0        2.847571    1.598628    0.547766
     52          7           0        3.720847    0.721348   -0.018768
     53          1           0        4.581894    1.144712   -0.357144
     54          1           0        3.357869   -0.016207   -0.607675
     55          8           0        3.191497    2.682888    1.010590
     56          7           0        2.099186    3.013929   -1.912060
     57          1           0        2.751479    3.244122   -1.165794
     58          6           0        2.705536    2.913102   -3.240728
     59          1           0        2.053579    2.292967   -3.858152
     60          6           0        4.087756    2.228953   -3.070681
     61          6           0        2.821880    4.331222   -3.855527
     62          1           0        3.551956    4.901200   -3.264905
     63          1           0        1.849916    4.809776   -3.693274
     64          8           0        4.446010    1.436861   -4.007292
     65          6           0        3.154033    4.426474   -5.364398
     66          1           0        2.784206    3.538090   -5.893488
     67          1           0        2.605930    5.275580   -5.789095
     68          6           0        4.629862    4.653003   -5.732262
     69          1           0        4.706050    4.902319   -6.798336
     70          1           0        5.022786    5.501567   -5.158656
     71          7           0        5.429924    3.459304   -5.447136
     72          1           0        4.890883    2.596970   -5.259100
     73          7           0        7.413817    4.544253   -4.868497
     74          1           0        8.340000    4.499295   -4.469824
     75          1           0        7.275923    5.240207   -5.586386
     76          7           0        7.019340    2.316145   -4.249864
     77          1           0        7.862820    2.319419   -3.694489
     78          1           0        6.237756    1.692857   -3.953048
     79          6           0        6.623409    3.444232   -4.850304
     80          8           0        4.764492    2.556449   -2.076078
 ---------------------------------------------------------------------

 SCF Done:  E(RB3LYP) =  -1866.70821258     A.U. after    1 cycles

 Alpha  occ. eigenvalues --  -19.25848 -19.20819 -19.17914 -19.16290 -19.14600
 Alpha  occ. eigenvalues --  -19.14003 -14.59223 -14.48247 -14.46587 -14.44079
 Alpha  occ. eigenvalues --  -14.43902 -14.43484 -14.41213 -14.39955 -10.42617
 Alpha  occ. eigenvalues --  -10.41275 -10.40085 -10.37734 -10.34992 -10.34118
 Alpha  occ. eigenvalues --  -10.33585 -10.33307 -10.32070 -10.31914 -10.30715
 Alpha  occ. eigenvalues --  -10.30597 -10.30485 -10.30303 -10.30083 -10.29940
 Alpha  occ. eigenvalues --  -10.29681 -10.27390 -10.27113 -10.26763 -10.26061
 Alpha  occ. eigenvalues --  -10.26040 -10.24752 -10.24275 -10.24098  -1.18250
 Alpha  occ. eigenvalues --   -1.13345  -1.12613  -1.10154  -1.09738  -1.08172
 Alpha  occ. eigenvalues --   -1.07543  -1.05125  -1.00759  -0.99824  -0.98732
 Alpha  occ. eigenvalues --   -0.97853  -0.97532  -0.97395  -0.95074  -0.92910
 Alpha  occ. eigenvalues --   -0.89679  -0.86638  -0.86281  -0.85628  -0.85251
 Alpha  occ. eigenvalues --   -0.82935  -0.80153  -0.79037  -0.75584  -0.75210
 Alpha  occ. eigenvalues --   -0.74629  -0.73484  -0.73382  -0.72899  -0.71704
 Alpha  occ. eigenvalues --   -0.71398  -0.69891  -0.69741  -0.67480  -0.66803
 Alpha  occ. eigenvalues --   -0.66180  -0.65736  -0.64073  -0.63512  -0.63476
 Alpha  occ. eigenvalues --   -0.62734  -0.62575  -0.62297  -0.60807  -0.58603
 Alpha  occ. eigenvalues --   -0.58503  -0.57945  -0.57818  -0.57223  -0.57122
 Alpha  occ. eigenvalues --   -0.56670  -0.56430  -0.55661  -0.55073  -0.54791
 Alpha  occ. eigenvalues --   -0.53888  -0.53358  -0.53195  -0.53109  -0.52401
 Alpha  occ. eigenvalues --   -0.52004  -0.51645  -0.51354  -0.50865  -0.50733
 Alpha  occ. eigenvalues --   -0.50240  -0.49928  -0.49741  -0.49109  -0.48164
 Alpha  occ. eigenvalues --   -0.47725  -0.47528  -0.47095  -0.46597  -0.46221
 Alpha  occ. eigenvalues --   -0.46103  -0.45766  -0.45454  -0.45283  -0.45192
 Alpha  occ. eigenvalues --   -0.44521  -0.44205  -0.43836  -0.43023  -0.42524
 Alpha  occ. eigenvalues --   -0.41667  -0.41435  -0.40901  -0.40527  -0.40418
 Alpha  occ. eigenvalues --   -0.40079  -0.40051  -0.39449  -0.37962  -0.37093
 Alpha  occ. eigenvalues --   -0.36435  -0.35916  -0.34958  -0.34093  -0.33915
 Alpha  occ. eigenvalues --   -0.32566  -0.32150  -0.32001  -0.29917  -0.29849
 Alpha  occ. eigenvalues --   -0.28365  -0.28044
 Alpha virt. eigenvalues --   -0.12674  -0.12137  -0.10323  -0.09465  -0.06556
 Alpha virt. eigenvalues --   -0.05989  -0.04260  -0.04107  -0.02685  -0.02546
 Alpha virt. eigenvalues --   -0.02210  -0.01340  -0.00964  -0.00818   0.00045

 Mulliken charges:
               1
     1  N   -0.749271
     2  H    0.415276
     3  H    0.425020
     4  H    0.404458
     5  C   -0.116885
     6  H    0.214127
     7  C    0.651902
     8  C   -0.390903
     9  H    0.218749
    10  H    0.192888
    11  O   -0.539903
    12  C    0.142458
    13  C   -0.181055
    14  H    0.149985
    15  C   -0.233131
    16  H    0.150883
    17  C   -0.122599
    18  H    0.168185
    19  C   -0.120268
    20  H    0.166851
    21  C   -0.124153
    22  H    0.168830
    23  N   -0.589640
    24  H    0.369821
    25  C   -0.093009
    26  H    0.192456
    27  C    0.636744
    28  C   -0.256706
    29  H    0.150233
    30  H    0.161107
    31  O   -0.555202
    32  C   -0.069264
    33  H    0.114124
    34  C   -0.446308
    35  H    0.153951
    36  H    0.153302
    37  H    0.144861
    38  C   -0.462154
    39  H    0.148198
    40  H    0.162071
    41  H    0.153147
    42  N   -0.626317
    43  H    0.364822
    44  C   -0.045451
    45  H    0.209058
    46  C    0.595559
    47  C   -0.345941
    48  H    0.197679
    49  H    0.145712
    50  O   -0.548892
    51  C    0.566975
    52  N   -0.723575
    53  H    0.372247
    54  H    0.334093
    55  O   -0.513021
    56  N   -0.611924
    57  H    0.375908
    58  C   -0.048622
    59  H    0.177587
    60  C    0.578120
    61  C   -0.268485
    62  H    0.151512
    63  H    0.159921
    64  O   -0.630459
    65  C   -0.306139
    66  H    0.170349
    67  H    0.160842
    68  C   -0.146690
    69  H    0.167661
    70  H    0.163421
    71  N   -0.602444
    72  H    0.397246
    73  N   -0.756217
    74  H    0.364837
    75  H    0.369870
    76  N   -0.751468
    77  H    0.346530
    78  H    0.406313
    79  C    0.767455
    80  O   -0.577248
 Sum of Mulliken charges =   1.00000

 Dipole moment (field-independent basis, Debye):
    X=            -10.2433    Y=              8.7850    Z=              9.7891  Tot=             16.6712
 Quadrupole moment (field-independent basis, Debye-Ang):
   XX=            -16.3343   YY=           -175.9400   ZZ=            -64.5056
   XY=             42.7133   XZ=           -177.3436   YZ=            -55.9890

 Normal termination of Gaussian 16 at Fri Jun 17 19:10:43 2022.
