 Gaussian 16, Revision C.01,
 Gaussian 16:  ES64L-G16RevC.01  3-Jul-2019

 ----------------------------------------------------------------------
 # B3LYP/6-31G* empiricaldispersion=gd3 guess=read geom=check nosymm in
 tegral(ultrafinegrid)
 ----------------------------------------------------------------------

 ------------------------------------------------------
 Candidate Structure: Conf:549 Charge calc in gas phase
 ------------------------------------------------------
 Structure from the checkpoint file:  "conf-549.chk"
 Charge =  1 Multiplicity = 1

                          Input orientation:
 ---------------------------------------------------------------------
 Center     Atomic      Atomic             Coordinates (Angstroms)
 Number     Number       Type             X           Y           Z
 ---------------------------------------------------------------------
      1          7           0       -5.734428   -1.680530    3.960934
      2          1           0       -5.698976   -2.255075    3.076026
      3          1           0       -4.953503   -1.982577    4.572728
      4          1           0       -6.621006   -1.788429    4.457087
      5          6           0       -5.465263   -0.277209    3.469023
      6          1           0       -6.434983    0.217936    3.357017
      7          6           0       -4.888097   -0.527634    2.044430
      8          6           0       -4.575321    0.491333    4.475089
      9          1           0       -5.182271    0.702996    5.363804
     10          1           0       -4.331839    1.465769    4.039103
     11          8           0       -4.999645   -1.668289    1.576036
     12          6           0       -3.322185   -0.270959    4.849948
     13          6           0       -3.352314   -1.181435    5.922858
     14          1           0       -4.231271   -1.237305    6.566707
     15          6           0       -2.140679   -0.128443    4.109873
     16          1           0       -2.081853    0.596912    3.303716
     17          6           0       -2.226793   -1.954113    6.227536
     18          1           0       -2.257151   -2.644200    7.065905
     19          6           0       -1.011627   -0.887312    4.423963
     20          1           0       -0.096054   -0.732488    3.856674
     21          6           0       -1.061461   -1.810141    5.473675
     22          1           0       -0.182243   -2.399271    5.717609
     23          7           0       -4.379309    0.524763    1.402728
     24          1           0       -4.139036    1.363794    1.922092
     25          6           0       -3.629127    0.405086    0.144907
     26          1           0       -3.690899   -0.638537   -0.165823
     27          6           0       -2.186032    0.806182    0.499091
     28          6           0       -4.213783    1.341832   -0.929695
     29          1           0       -5.274514    1.087445   -1.055963
     30          1           0       -4.171706    2.366537   -0.536862
     31          8           0       -1.996367    1.691551    1.337368
     32          6           0       -3.502911    1.286572   -2.297743
     33          1           0       -2.436103    1.501108   -2.154665
     34          6           0       -3.617275   -0.094888   -2.959568
     35          1           0       -4.667907   -0.358754   -3.136426
     36          1           0       -3.097330   -0.101213   -3.922537
     37          1           0       -3.174794   -0.897125   -2.356567
     38          6           0       -4.080599    2.370604   -3.218986
     39          1           0       -5.149142    2.201946   -3.404737
     40          1           0       -3.968949    3.369569   -2.781140
     41          1           0       -3.569826    2.367736   -4.188101
     42          7           0       -1.214543    0.124739   -0.138209
     43          1           0       -1.458996   -0.406223   -0.968051
     44          6           0        0.190529    0.485512   -0.052895
     45          1           0        0.252976    1.364935    0.593787
     46          6           0        0.678792    0.797550   -1.481949
     47          6           0        1.049065   -0.675270    0.551342
     48          1           0        0.371752   -1.372478    1.049071
     49          1           0        1.577992   -1.215739   -0.240782
     50          8           0       -0.013434    0.510812   -2.462211
     51          6           0        2.005948   -0.160885    1.629284
     52          7           0        3.271121    0.098612    1.235829
     53          1           0        3.899754    0.471961    1.935787
     54          1           0        3.638219   -0.004946    0.279640
     55          8           0        1.597250    0.041285    2.773930
     56          7           0        1.926925    1.302091   -1.562580
     57          1           0        2.468132    1.374009   -0.707303
     58          6           0        2.732055    1.135244   -2.769666
     59          1           0        2.426373    0.193835   -3.244800
     60          6           0        4.256032    1.013354   -2.348689
     61          6           0        2.664786    2.259307   -3.778324
     62          1           0        3.362100    1.900589   -4.534511
     63          1           0        3.113521    3.138782   -3.304028
     64          8           0        5.101192    1.507098   -3.149030
     65          6           0        1.448967    2.720689   -4.562514
     66          1           0        0.849313    1.881493   -4.931956
     67          1           0        0.782028    3.363036   -3.975810
     68          6           0        2.035510    3.477323   -5.773037
     69          1           0        2.575176    2.776918   -6.417852
     70          1           0        1.261614    3.957120   -6.380311
     71          7           0        2.989239    4.560416   -5.417486
     72          1           0        2.572186    5.472825   -5.287522
     73          7           0        5.095785    3.494626   -5.059530
     74          1           0        6.087013    3.602612   -5.238026
     75          1           0        4.894087    2.715935   -4.368315
     76          7           0        4.943149    5.755796   -5.524925
     77          1           0        5.889881    5.913507   -5.211244
     78          1           0        4.519362    6.466776   -6.103210
     79          6           0        4.335972    4.557944   -5.321917
     80          8           0        4.482261    0.447109   -1.257995
 ---------------------------------------------------------------------

 SCF Done:  E(RB3LYP) =  -1866.67773817     A.U. after    2 cycles

 Alpha  occ. eigenvalues --  -19.25560 -19.20703 -19.18782 -19.16317 -19.13576
 Alpha  occ. eigenvalues --  -19.13233 -14.57871 -14.48962 -14.48929 -14.48406
 Alpha  occ. eigenvalues --  -14.46350 -14.44629 -14.41747 -14.39626 -10.44789
 Alpha  occ. eigenvalues --  -10.42495 -10.39563 -10.37749 -10.35446 -10.34210
 Alpha  occ. eigenvalues --  -10.32989 -10.32732 -10.32595 -10.31733 -10.31056
 Alpha  occ. eigenvalues --  -10.29913 -10.28892 -10.28049 -10.27282 -10.27280
 Alpha  occ. eigenvalues --  -10.27201 -10.27169 -10.26399 -10.26341 -10.26284
 Alpha  occ. eigenvalues --  -10.26227 -10.24495 -10.24261 -10.24243  -1.17988
 Alpha  occ. eigenvalues --   -1.12810  -1.12646  -1.12107  -1.10338  -1.07978
 Alpha  occ. eigenvalues --   -1.06618  -1.04964  -1.02404  -1.01199  -1.00287
 Alpha  occ. eigenvalues --   -0.98745  -0.97674  -0.95303  -0.94639  -0.91573
 Alpha  occ. eigenvalues --   -0.89352  -0.87927  -0.85742  -0.84901  -0.83137
 Alpha  occ. eigenvalues --   -0.82739  -0.81393  -0.77998  -0.76573  -0.75609
 Alpha  occ. eigenvalues --   -0.75104  -0.73728  -0.72989  -0.72803  -0.71483
 Alpha  occ. eigenvalues --   -0.70175  -0.69769  -0.68767  -0.68135  -0.67443
 Alpha  occ. eigenvalues --   -0.67108  -0.66213  -0.64972  -0.64221  -0.63951
 Alpha  occ. eigenvalues --   -0.63618  -0.62157  -0.61741  -0.60816  -0.60574
 Alpha  occ. eigenvalues --   -0.59365  -0.58371  -0.58259  -0.57472  -0.56627
 Alpha  occ. eigenvalues --   -0.56561  -0.55751  -0.55214  -0.55022  -0.54971
 Alpha  occ. eigenvalues --   -0.54275  -0.53977  -0.53260  -0.52769  -0.52409
 Alpha  occ. eigenvalues --   -0.51608  -0.51074  -0.50747  -0.50607  -0.50261
 Alpha  occ. eigenvalues --   -0.50174  -0.49725  -0.49433  -0.49284  -0.48368
 Alpha  occ. eigenvalues --   -0.48029  -0.47407  -0.46921  -0.46380  -0.45371
 Alpha  occ. eigenvalues --   -0.45262  -0.45123  -0.45049  -0.44982  -0.44578
 Alpha  occ. eigenvalues --   -0.44145  -0.43871  -0.42833  -0.42456  -0.42295
 Alpha  occ. eigenvalues --   -0.41919  -0.41525  -0.41365  -0.41116  -0.40400
 Alpha  occ. eigenvalues --   -0.40171  -0.39838  -0.39482  -0.39223  -0.37797
 Alpha  occ. eigenvalues --   -0.37310  -0.34661  -0.34418  -0.33986  -0.33763
 Alpha  occ. eigenvalues --   -0.32646  -0.32131  -0.31437  -0.30254  -0.28979
 Alpha  occ. eigenvalues --   -0.28042  -0.27519
 Alpha virt. eigenvalues --   -0.11597  -0.10298  -0.10112  -0.10089  -0.07294
 Alpha virt. eigenvalues --   -0.06844  -0.05302  -0.04882  -0.03086  -0.02465
 Alpha virt. eigenvalues --   -0.02071  -0.01533  -0.00307  -0.00126   0.00047

 Mulliken charges:
               1
     1  N   -0.754922
     2  H    0.430774
     3  H    0.402340
     4  H    0.406454
     5  C   -0.115748
     6  H    0.223344
     7  C    0.657780
     8  C   -0.390912
     9  H    0.184844
    10  H    0.200185
    11  O   -0.534844
    12  C    0.141499
    13  C   -0.250390
    14  H    0.133375
    15  C   -0.216019
    16  H    0.190643
    17  C   -0.118919
    18  H    0.155459
    19  C   -0.152094
    20  H    0.226661
    21  C   -0.134182
    22  H    0.161952
    23  N   -0.590238
    24  H    0.362084
    25  C   -0.098319
    26  H    0.197382
    27  C    0.627787
    28  C   -0.252723
    29  H    0.150497
    30  H    0.149518
    31  O   -0.540146
    32  C   -0.104097
    33  H    0.161204
    34  C   -0.447988
    35  H    0.146914
    36  H    0.168350
    37  H    0.130815
    38  C   -0.446048
    39  H    0.146231
    40  H    0.144931
    41  H    0.152435
    42  N   -0.587125
    43  H    0.361370
    44  C   -0.081620
    45  H    0.215856
    46  C    0.606347
    47  C   -0.363960
    48  H    0.180857
    49  H    0.179194
    50  O   -0.544896
    51  C    0.561717
    52  N   -0.768000
    53  H    0.341676
    54  H    0.407914
    55  O   -0.512375
    56  N   -0.598425
    57  H    0.341685
    58  C   -0.067366
    59  H    0.165552
    60  C    0.600902
    61  C   -0.270725
    62  H    0.151574
    63  H    0.135063
    64  O   -0.595013
    65  C   -0.252411
    66  H    0.174775
    67  H    0.146332
    68  C   -0.174476
    69  H    0.192975
    70  H    0.171251
    71  N   -0.589556
    72  H    0.354067
    73  N   -0.768617
    74  H    0.358084
    75  H    0.451201
    76  N   -0.760858
    77  H    0.373669
    78  H    0.368232
    79  C    0.768019
    80  O   -0.578758
 Sum of Mulliken charges =   1.00000

 Dipole moment (field-independent basis, Debye):
    X=            -13.1011    Y=             10.7448    Z=             -2.0866  Tot=             17.0717
 Quadrupole moment (field-independent basis, Debye-Ang):
   XX=            -87.8883   YY=           -133.3385   ZZ=            -81.0091
   XY=             79.2860   XZ=           -130.3045   YZ=           -110.8387

 Normal termination of Gaussian 16 at Fri Jun 17 19:11:08 2022.
