 Gaussian 16, Revision C.01,
 Gaussian 16:  ES64L-G16RevC.01  3-Jul-2019

 ----------------------------------------------------------------------
 # B3LYP/6-31G* empiricaldispersion=gd3 guess=read geom=check nosymm in
 tegral(ultrafinegrid)
 ----------------------------------------------------------------------

 ------------------------------------------------------
 Candidate Structure: Conf:879 Charge calc in gas phase
 ------------------------------------------------------
 Structure from the checkpoint file:  "conf-879.chk"
 Charge =  1 Multiplicity = 1

                          Input orientation:
 ---------------------------------------------------------------------
 Center     Atomic      Atomic             Coordinates (Angstroms)
 Number     Number       Type             X           Y           Z
 ---------------------------------------------------------------------
      1          7           0       -1.600183   -1.843779    3.023836
      2          1           0       -1.414320   -2.318359    2.130841
      3          1           0       -0.822617   -1.142544    3.195186
      4          1           0       -1.648313   -2.502373    3.807157
      5          6           0       -2.887478   -1.066073    2.873190
      6          1           0       -3.678052   -1.806971    2.714926
      7          6           0       -2.663638   -0.304183    1.549292
      8          6           0       -3.169433   -0.249367    4.145042
      9          1           0       -4.167003    0.191994    4.034598
     10          1           0       -2.437369    0.560517    4.214786
     11          8           0       -2.086582   -0.904553    0.640716
     12          6           0       -3.111466   -1.113635    5.388909
     13          6           0       -4.211240   -1.891893    5.774236
     14          1           0       -5.140090   -1.831073    5.210699
     15          6           0       -1.923026   -1.192954    6.131459
     16          1           0       -1.069596   -0.585026    5.838294
     17          6           0       -4.128743   -2.730189    6.886561
     18          1           0       -4.990887   -3.320691    7.182406
     19          6           0       -1.841111   -2.034594    7.243464
     20          1           0       -0.920134   -2.081534    7.817475
     21          6           0       -2.943032   -2.803863    7.622071
     22          1           0       -2.881124   -3.453820    8.489801
     23          7           0       -3.082309    0.972824    1.472368
     24          1           0       -3.383221    1.442543    2.316729
     25          6           0       -2.607740    1.850594    0.384255
     26          1           0       -2.642518    1.256590   -0.530447
     27          6           0       -1.151901    2.207053    0.755338
     28          6           0       -3.494418    3.088819    0.271827
     29          1           0       -4.521242    2.756845    0.069317
     30          1           0       -3.493208    3.602697    1.241793
     31          8           0       -0.897916    3.112051    1.549680
     32          6           0       -3.045928    4.088989   -0.812298
     33          1           0       -2.052644    4.459135   -0.524880
     34          6           0       -2.941680    3.442901   -2.202237
     35          1           0       -3.892985    2.978899   -2.493338
     36          1           0       -2.696166    4.196265   -2.958506
     37          1           0       -2.161400    2.674014   -2.247637
     38          6           0       -4.008402    5.284570   -0.836310
     39          1           0       -5.017867    4.968937   -1.129548
     40          1           0       -4.077218    5.763516    0.147340
     41          1           0       -3.674448    6.040353   -1.555388
     42          7           0       -0.213588    1.393756    0.218848
     43          1           0       -0.465220    0.613212   -0.381554
     44          6           0        1.190620    1.483381    0.552956
     45          1           0        1.443498    2.536553    0.708731
     46          6           0        1.981849    0.875917   -0.626788
     47          6           0        1.552080    0.649254    1.816657
     48          1           0        1.339019   -0.401002    1.602177
     49          1           0        2.627517    0.747416    2.006136
     50          8           0        1.466738   -0.016839   -1.302291
     51          6           0        0.780806    1.039517    3.063583
     52          7           0        1.126478    2.192862    3.659471
     53          1           0        0.512124    2.549222    4.380745
     54          1           0        1.666899    2.882087    3.154744
     55          8           0       -0.109898    0.313881    3.550354
     56          7           0        3.226447    1.345619   -0.774880
     57          1           0        3.636831    2.052718   -0.162713
     58          6           0        4.231162    0.767605   -1.660347
     59          1           0        4.240027   -0.320760   -1.537178
     60          6           0        5.598290    1.350196   -1.208997
     61          6           0        3.943241    1.080063   -3.146362
     62          1           0        2.945786    0.691581   -3.370599
     63          1           0        4.646236    0.488418   -3.744927
     64          8           0        6.614402    0.870777   -1.811489
     65          6           0        4.033237    2.585344   -3.513951
     66          1           0        3.102464    2.913824   -3.991097
     67          1           0        4.150049    3.189336   -2.605586
     68          6           0        5.180894    2.931294   -4.480262
     69          1           0        5.081570    2.361438   -5.410416
     70          1           0        5.139475    3.991961   -4.742665
     71          7           0        6.498680    2.620110   -3.905536
     72          1           0        6.549655    1.696551   -3.449317
     73          7           0        7.332975    4.797179   -3.696116
     74          1           0        7.975362    5.436804   -3.251815
     75          1           0        7.090653    5.013483   -4.652097
     76          7           0        8.065853    3.074164   -2.290380
     77          1           0        8.726854    3.689297   -1.839662
     78          1           0        7.745528    2.194413   -1.817759
     79          6           0        7.300147    3.502760   -3.289737
     80          8           0        5.583944    2.278176   -0.375541
 ---------------------------------------------------------------------

 SCF Done:  E(RB3LYP) =  -1866.73656904     A.U. after    2 cycles

 Alpha  occ. eigenvalues --  -19.24925 -19.24227 -19.20645 -19.19192 -19.15402
 Alpha  occ. eigenvalues --  -19.15295 -14.55843 -14.48417 -14.47128 -14.47063
 Alpha  occ. eigenvalues --  -14.44972 -14.44613 -14.44402 -14.42560 -10.42040
 Alpha  occ. eigenvalues --  -10.41581 -10.41548 -10.38249 -10.37864 -10.36471
 Alpha  occ. eigenvalues --  -10.33454 -10.33127 -10.32972 -10.31845 -10.31085
 Alpha  occ. eigenvalues --  -10.30505 -10.30318 -10.28933 -10.28854 -10.28581
 Alpha  occ. eigenvalues --  -10.28518 -10.28311 -10.28260 -10.27077 -10.26405
 Alpha  occ. eigenvalues --  -10.26104 -10.25162 -10.24449 -10.23970  -1.16771
 Alpha  occ. eigenvalues --   -1.15729  -1.12751  -1.11054  -1.10736  -1.10664
 Alpha  occ. eigenvalues --   -1.08620  -1.04607  -1.02346  -1.01594  -1.00724
 Alpha  occ. eigenvalues --   -0.99910  -0.98691  -0.98505  -0.95813  -0.91387
 Alpha  occ. eigenvalues --   -0.89390  -0.88314  -0.86279  -0.85181  -0.84124
 Alpha  occ. eigenvalues --   -0.82744  -0.81457  -0.78500  -0.77664  -0.75357
 Alpha  occ. eigenvalues --   -0.74687  -0.73137  -0.72398  -0.72296  -0.70950
 Alpha  occ. eigenvalues --   -0.70442  -0.69816  -0.68824  -0.68602  -0.67975
 Alpha  occ. eigenvalues --   -0.67575  -0.67354  -0.65466  -0.64738  -0.64181
 Alpha  occ. eigenvalues --   -0.63668  -0.63282  -0.61698  -0.61094  -0.60731
 Alpha  occ. eigenvalues --   -0.59606  -0.59039  -0.58888  -0.58370  -0.57869
 Alpha  occ. eigenvalues --   -0.56654  -0.56316  -0.56053  -0.55546  -0.55352
 Alpha  occ. eigenvalues --   -0.54709  -0.53987  -0.53821  -0.53467  -0.52772
 Alpha  occ. eigenvalues --   -0.52248  -0.51942  -0.51593  -0.51364  -0.51075
 Alpha  occ. eigenvalues --   -0.50720  -0.50571  -0.50178  -0.49904  -0.49535
 Alpha  occ. eigenvalues --   -0.49286  -0.48462  -0.48373  -0.47828  -0.47449
 Alpha  occ. eigenvalues --   -0.47031  -0.46540  -0.45739  -0.45628  -0.45187
 Alpha  occ. eigenvalues --   -0.44822  -0.44429  -0.44184  -0.43825  -0.43702
 Alpha  occ. eigenvalues --   -0.43505  -0.42407  -0.41179  -0.40622  -0.40524
 Alpha  occ. eigenvalues --   -0.40050  -0.39842  -0.39482  -0.39012  -0.38572
 Alpha  occ. eigenvalues --   -0.37948  -0.37702  -0.35316  -0.34838  -0.34525
 Alpha  occ. eigenvalues --   -0.34437  -0.33660  -0.33031  -0.32830  -0.30871
 Alpha  occ. eigenvalues --   -0.30061  -0.29520
 Alpha virt. eigenvalues --   -0.11702  -0.10604  -0.10203  -0.10068  -0.07046
 Alpha virt. eigenvalues --   -0.06953  -0.05167  -0.04844  -0.03323  -0.03038
 Alpha virt. eigenvalues --   -0.01929  -0.01248  -0.00837  -0.00288   0.00212

 Mulliken charges:
               1
     1  N   -0.761787
     2  H    0.413303
     3  H    0.442415
     4  H    0.402613
     5  C   -0.104495
     6  H    0.221420
     7  C    0.656012
     8  C   -0.398769
     9  H    0.183497
    10  H    0.200719
    11  O   -0.533878
    12  C    0.119371
    13  C   -0.182173
    14  H    0.141343
    15  C   -0.220291
    16  H    0.158907
    17  C   -0.126307
    18  H    0.160756
    19  C   -0.126754
    20  H    0.157632
    21  C   -0.124435
    22  H    0.161270
    23  N   -0.608943
    24  H    0.357054
    25  C   -0.066411
    26  H    0.190988
    27  C    0.630146
    28  C   -0.273995
    29  H    0.149723
    30  H    0.150864
    31  O   -0.557607
    32  C   -0.087098
    33  H    0.150651
    34  C   -0.456024
    35  H    0.149005
    36  H    0.158457
    37  H    0.141485
    38  C   -0.446905
    39  H    0.147043
    40  H    0.148817
    41  H    0.154999
    42  N   -0.602017
    43  H    0.374252
    44  C   -0.061263
    45  H    0.175776
    46  C    0.625456
    47  C   -0.364604
    48  H    0.179091
    49  H    0.198803
    50  O   -0.540617
    51  C    0.626094
    52  N   -0.686495
    53  H    0.362032
    54  H    0.366974
    55  O   -0.576621
    56  N   -0.611905
    57  H    0.349496
    58  C   -0.046567
    59  H    0.173270
    60  C    0.595970
    61  C   -0.294234
    62  H    0.181299
    63  H    0.157034
    64  O   -0.634201
    65  C   -0.274438
    66  H    0.152819
    67  H    0.163264
    68  C   -0.170698
    69  H    0.179043
    70  H    0.151316
    71  N   -0.602472
    72  H    0.398361
    73  N   -0.751967
    74  H    0.362704
    75  H    0.368438
    76  N   -0.755246
    77  H    0.347423
    78  H    0.420923
    79  C    0.765432
    80  O   -0.574543
 Sum of Mulliken charges =   1.00000

 Dipole moment (field-independent basis, Debye):
    X=              2.1551    Y=              7.4510    Z=              6.5228  Tot=             10.1345
 Quadrupole moment (field-independent basis, Debye-Ang):
   XX=           -112.8442   YY=           -158.1252   ZZ=           -130.5664
   XY=             79.9078   XZ=            -75.2068   YZ=            -60.9993

 Normal termination of Gaussian 16 at Fri Jun 17 19:11:03 2022.
