 Gaussian 16, Revision C.01,
 Gaussian 16:  ES64L-G16RevC.01  3-Jul-2019

 ----------------------------------------------------------------------
 # B3LYP/6-31G* empiricaldispersion=gd3 guess=read geom=check nosymm in
 tegral(ultrafinegrid)
 ----------------------------------------------------------------------

 ------------------------------------------------------
 Candidate Structure: Conf:472 Charge calc in gas phase
 ------------------------------------------------------
 Structure from the checkpoint file:  "conf-472.chk"
 Charge =  1 Multiplicity = 1

                          Input orientation:
 ---------------------------------------------------------------------
 Center     Atomic      Atomic             Coordinates (Angstroms)
 Number     Number       Type             X           Y           Z
 ---------------------------------------------------------------------
      1          7           0       -6.220282    0.430788    3.616683
      2          1           0       -6.955614    0.788868    3.001980
      3          1           0       -5.941889   -0.533583    3.275154
      4          1           0       -6.567146    0.435210    4.586916
      5          6           0       -4.923198    1.193434    3.486100
      6          1           0       -5.145540    2.185215    3.087483
      7          6           0       -4.102298    0.320372    2.503966
      8          6           0       -4.232270    1.298581    4.865850
      9          1           0       -3.340261    1.918744    4.728868
     10          1           0       -3.883490    0.300728    5.157517
     11          8           0       -4.490076   -0.846169    2.322176
     12          6           0       -5.157774    1.873526    5.914766
     13          6           0       -5.438197    3.247255    5.945293
     14          1           0       -4.927032    3.917644    5.257468
     15          6           0       -5.815395    1.024446    6.819020
     16          1           0       -5.574481   -0.037629    6.836176
     17          6           0       -6.352561    3.761217    6.863452
     18          1           0       -6.551677    4.828584    6.886406
     19          6           0       -6.737236    1.539987    7.736473
     20          1           0       -7.228912    0.874042    8.439385
     21          6           0       -7.007529    2.907881    7.757415
     22          1           0       -7.717543    3.311635    8.472796
     23          7           0       -3.024669    0.884098    1.988290
     24          1           0       -2.752056    1.852611    2.176179
     25          6           0       -2.072460    0.219466    1.094355
     26          1           0       -1.862469   -0.778330    1.489025
     27          6           0       -0.826501    1.121761    1.152253
     28          6           0       -2.653461    0.126111   -0.338500
     29          1           0       -3.656014   -0.311811   -0.240930
     30          1           0       -2.771076    1.150304   -0.713150
     31          8           0       -0.937219    2.293684    1.530301
     32          6           0       -1.845989   -0.703490   -1.354957
     33          1           0       -0.857955   -0.249616   -1.467543
     34          6           0       -1.678698   -2.165983   -0.920658
     35          1           0       -2.654912   -2.649793   -0.782660
     36          1           0       -1.120392   -2.723831   -1.678348
     37          1           0       -1.113492   -2.270029    0.012313
     38          6           0       -2.537524   -0.618982   -2.723503
     39          1           0       -3.550880   -1.041325   -2.685208
     40          1           0       -2.611405    0.419797   -3.065157
     41          1           0       -1.971446   -1.179268   -3.475569
     42          7           0        0.331351    0.559297    0.770591
     43          1           0        0.342046   -0.368934    0.341951
     44          6           0        1.461862    1.390564    0.398010
     45          1           0        1.719896    2.042948    1.239154
     46          6           0        1.106730    2.268135   -0.830296
     47          6           0        2.674129    0.490212    0.053620
     48          1           0        3.524881    1.112825   -0.230977
     49          1           0        2.942908   -0.087207    0.944237
     50          8           0        0.161823    2.006372   -1.561473
     51          6           0        2.329619   -0.511600   -1.052039
     52          7           0        3.032108   -0.399924   -2.195017
     53          1           0        2.746947   -0.990818   -2.965383
     54          1           0        3.584911    0.437929   -2.396353
     55          8           0        1.454374   -1.368300   -0.865995
     56          7           0        1.967823    3.311896   -1.037648
     57          1           0        2.837346    3.255326   -0.517804
     58          6           0        2.177258    3.813411   -2.399096
     59          1           0        1.213131    3.778240   -2.909051
     60          6           0        3.169303    2.867419   -3.130643
     61          6           0        2.686381    5.274248   -2.310956
     62          1           0        3.731250    5.265363   -1.967549
     63          1           0        2.106746    5.741469   -1.507927
     64          8           0        3.072329    2.799184   -4.398222
     65          6           0        2.549342    6.156751   -3.577531
     66          1           0        1.753616    5.769914   -4.227008
     67          1           0        2.227374    7.159898   -3.275406
     68          6           0        3.824844    6.352660   -4.412409
     69          1           0        3.645009    7.112977   -5.183095
     70          1           0        4.638604    6.711241   -3.769649
     71          7           0        4.218648    5.090051   -5.041283
     72          1           0        3.504270    4.338296   -5.012619
     73          7           0        6.526189    5.437637   -5.058888
     74          1           0        7.458809    5.063774   -5.156840
     75          1           0        6.407626    6.404004   -5.326245
     76          7           0        5.618262    3.283373   -5.231070
     77          1           0        6.535868    2.872598   -5.313652
     78          1           0        4.803546    2.700542   -4.953400
     79          6           0        5.458298    4.604118   -5.112963
     80          8           0        4.017571    2.269849   -2.427492
 ---------------------------------------------------------------------

 SCF Done:  E(RB3LYP) =  -1866.72127330     A.U. after    3 cycles

 Alpha  occ. eigenvalues --  -19.24571 -19.19260 -19.17612 -19.16784 -19.16024
 Alpha  occ. eigenvalues --  -19.15543 -14.58123 -14.47530 -14.47151 -14.44905
 Alpha  occ. eigenvalues --  -14.44659 -14.42036 -14.41057 -14.39872 -10.42347
 Alpha  occ. eigenvalues --  -10.41372 -10.39201 -10.36004 -10.34385 -10.34328
 Alpha  occ. eigenvalues --  -10.33406 -10.32933 -10.31512 -10.31414 -10.31407
 Alpha  occ. eigenvalues --  -10.30230 -10.30224 -10.29885 -10.29647 -10.29546
 Alpha  occ. eigenvalues --  -10.29277 -10.27885 -10.26936 -10.25990 -10.25933
 Alpha  occ. eigenvalues --  -10.25041 -10.23298 -10.21653 -10.21637  -1.17098
 Alpha  occ. eigenvalues --   -1.12155  -1.11236  -1.11139  -1.09525  -1.08704
 Alpha  occ. eigenvalues --   -1.08257  -1.03820  -1.00930  -0.99819  -0.99290
 Alpha  occ. eigenvalues --   -0.98988  -0.97710  -0.96889  -0.95078  -0.92081
 Alpha  occ. eigenvalues --   -0.87828  -0.86950  -0.85551  -0.85141  -0.84484
 Alpha  occ. eigenvalues --   -0.81594  -0.80735  -0.78187  -0.75180  -0.73583
 Alpha  occ. eigenvalues --   -0.72966  -0.72594  -0.72421  -0.72239  -0.71916
 Alpha  occ. eigenvalues --   -0.70829  -0.69380  -0.68833  -0.68198  -0.66931
 Alpha  occ. eigenvalues --   -0.66212  -0.64918  -0.64487  -0.63410  -0.62846
 Alpha  occ. eigenvalues --   -0.61800  -0.61746  -0.60985  -0.60111  -0.59606
 Alpha  occ. eigenvalues --   -0.58913  -0.58644  -0.57410  -0.57004  -0.56319
 Alpha  occ. eigenvalues --   -0.56151  -0.55391  -0.55353  -0.55050  -0.54646
 Alpha  occ. eigenvalues --   -0.54097  -0.53227  -0.52657  -0.52588  -0.52256
 Alpha  occ. eigenvalues --   -0.51609  -0.50948  -0.50850  -0.50473  -0.49950
 Alpha  occ. eigenvalues --   -0.49672  -0.49446  -0.49175  -0.48433  -0.47639
 Alpha  occ. eigenvalues --   -0.47389  -0.47036  -0.46701  -0.46390  -0.45794
 Alpha  occ. eigenvalues --   -0.45101  -0.44980  -0.44757  -0.44716  -0.44306
 Alpha  occ. eigenvalues --   -0.43561  -0.43465  -0.43036  -0.42764  -0.42216
 Alpha  occ. eigenvalues --   -0.41679  -0.41582  -0.41296  -0.40294  -0.39658
 Alpha  occ. eigenvalues --   -0.38907  -0.38109  -0.37559  -0.36954  -0.35993
 Alpha  occ. eigenvalues --   -0.35709  -0.35442  -0.34908  -0.33806  -0.33622
 Alpha  occ. eigenvalues --   -0.33025  -0.32033  -0.31252  -0.30862  -0.30526
 Alpha  occ. eigenvalues --   -0.29568  -0.29016
 Alpha virt. eigenvalues --   -0.12009  -0.11601  -0.09324  -0.08660  -0.06914
 Alpha virt. eigenvalues --   -0.05074  -0.03947  -0.03501  -0.03365  -0.03152
 Alpha virt. eigenvalues --   -0.02089  -0.01495  -0.00711   0.00142   0.00438

 Mulliken charges:
               1
     1  N   -0.751864
     2  H    0.413074
     3  H    0.425831
     4  H    0.402632
     5  C   -0.112495
     6  H    0.210214
     7  C    0.662828
     8  C   -0.384054
     9  H    0.209852
    10  H    0.193558
    11  O   -0.549417
    12  C    0.141253
    13  C   -0.181601
    14  H    0.147040
    15  C   -0.230887
    16  H    0.151488
    17  C   -0.122975
    18  H    0.165459
    19  C   -0.120625
    20  H    0.165742
    21  C   -0.124710
    22  H    0.166908
    23  N   -0.611422
    24  H    0.367032
    25  C   -0.075878
    26  H    0.188152
    27  C    0.643740
    28  C   -0.256051
    29  H    0.145624
    30  H    0.157011
    31  O   -0.560701
    32  C   -0.101265
    33  H    0.180615
    34  C   -0.443395
    35  H    0.132106
    36  H    0.164289
    37  H    0.139089
    38  C   -0.447750
    39  H    0.130692
    40  H    0.151572
    41  H    0.151519
    42  N   -0.624854
    43  H    0.398678
    44  C   -0.084453
    45  H    0.177910
    46  C    0.638434
    47  C   -0.387608
    48  H    0.187182
    49  H    0.187315
    50  O   -0.515422
    51  C    0.595660
    52  N   -0.757630
    53  H    0.340523
    54  H    0.399703
    55  O   -0.541414
    56  N   -0.582959
    57  H    0.329484
    58  C   -0.060099
    59  H    0.188053
    60  C    0.604299
    61  C   -0.288456
    62  H    0.142508
    63  H    0.169869
    64  O   -0.621176
    65  C   -0.304356
    66  H    0.173262
    67  H    0.163200
    68  C   -0.149717
    69  H    0.169393
    70  H    0.163724
    71  N   -0.605859
    72  H    0.404124
    73  N   -0.755378
    74  H    0.364802
    75  H    0.371705
    76  N   -0.763625
    77  H    0.350507
    78  H    0.411895
    79  C    0.770557
    80  O   -0.592014
 Sum of Mulliken charges =   1.00000

 Dipole moment (field-independent basis, Debye):
    X=             -7.2101    Y=             16.4593    Z=              6.3492  Tot=             19.0580
 Quadrupole moment (field-independent basis, Debye-Ang):
   XX=              7.6380   YY=           -144.1131   ZZ=            -96.6237
   XY=             45.1414   XZ=           -171.4189   YZ=            -35.8884

 Normal termination of Gaussian 16 at Fri Jun 17 19:11:18 2022.
