 Gaussian 16, Revision C.01,
 Gaussian 16:  ES64L-G16RevC.01  3-Jul-2019

 ----------------------------------------------------------------------
 # B3LYP/6-31G* empiricaldispersion=gd3 guess=read geom=check nosymm in
 tegral(ultrafinegrid)
 ----------------------------------------------------------------------

 ------------------------------------------------------
 Candidate Structure: Conf:966 Charge calc in gas phase
 ------------------------------------------------------
 Structure from the checkpoint file:  "conf-966.chk"
 Charge =  1 Multiplicity = 1

                          Input orientation:
 ---------------------------------------------------------------------
 Center     Atomic      Atomic             Coordinates (Angstroms)
 Number     Number       Type             X           Y           Z
 ---------------------------------------------------------------------
      1          7           0       -1.213778   -1.142718   -0.035435
      2          1           0       -1.913947   -1.095938   -0.794233
      3          1           0       -0.298274   -0.659953   -0.403277
      4          1           0       -0.989181   -2.110196    0.202911
      5          6           0       -1.786337   -0.390826    1.132993
      6          1           0       -2.431664   -1.082255    1.686846
      7          6           0       -2.691445    0.687589    0.478982
      8          6           0       -0.658208    0.120036    2.050748
      9          1           0       -1.118124    0.692378    2.864121
     10          1           0       -0.032194    0.805073    1.473044
     11          8           0       -3.105627    0.481533   -0.661826
     12          6           0        0.180267   -0.993246    2.655306
     13          6           0       -0.077869   -1.442782    3.957013
     14          1           0       -0.866350   -0.975458    4.543199
     15          6           0        1.207983   -1.607140    1.917102
     16          1           0        1.416164   -1.274639    0.903519
     17          6           0        0.671536   -2.479592    4.516270
     18          1           0        0.460426   -2.811344    5.528566
     19          6           0        1.950657   -2.650908    2.477103
     20          1           0        2.724136   -3.137075    1.886700
     21          6           0        1.688335   -3.087707    3.777502
     22          1           0        2.267249   -3.898108    4.210183
     23          7           0       -2.986856    1.799034    1.185724
     24          1           0       -2.566023    1.946535    2.093380
     25          6           0       -3.594289    2.989686    0.543900
     26          1           0       -4.193794    2.615807   -0.287514
     27          6           0       -2.380963    3.786577    0.009225
     28          6           0       -4.446280    3.783265    1.528398
     29          1           0       -3.788450    4.217957    2.291490
     30          1           0       -4.865518    4.636015    0.978998
     31          8           0       -1.909568    4.742029    0.634124
     32          6           0       -5.583990    2.983657    2.191018
     33          1           0       -5.130728    2.169766    2.777508
     34          6           0       -6.353798    3.891565    3.160594
     35          1           0       -6.843340    4.711260    2.620129
     36          1           0       -7.131727    3.330193    3.689107
     37          1           0       -5.688772    4.336042    3.910462
     38          6           0       -6.531696    2.351309    1.161135
     39          1           0       -6.959437    3.118365    0.502905
     40          1           0       -6.028516    1.608205    0.531483
     41          1           0       -7.363611    1.844917    1.662207
     42          7           0       -1.786548    3.220828   -1.063618
     43          1           0       -2.213762    2.417513   -1.527241
     44          6           0       -0.361342    3.334206   -1.328259
     45          1           0       -0.130788    4.295576   -1.803400
     46          6           0       -0.029177    2.179175   -2.308935
     47          6           0        0.488967    3.164077   -0.021064
     48          1           0       -0.184513    3.128801    0.837344
     49          1           0        1.027156    2.218289   -0.056090
     50          8           0       -0.912436    1.438107   -2.722978
     51          6           0        1.475622    4.290052    0.225500
     52          7           0        0.923524    5.490065    0.442835
     53          1           0        1.518670    6.289710    0.615525
     54          1           0       -0.092917    5.573894    0.495018
     55          8           0        2.708817    4.096383    0.225500
     56          7           0        1.287343    2.034196   -2.624367
     57          1           0        1.939048    2.610280   -2.107274
     58          6           0        1.774107    0.694738   -2.970595
     59          1           0        1.049740    0.304717   -3.692254
     60          6           0        1.679102   -0.267269   -1.750336
     61          6           0        3.157449    0.739976   -3.668775
     62          1           0        3.232438    1.707939   -4.180162
     63          1           0        3.147741   -0.017245   -4.458297
     64          8           0        0.939488    0.121055   -0.768316
     65          6           0        4.431962    0.474422   -2.848233
     66          1           0        4.394292   -0.542687   -2.456164
     67          1           0        5.276431    0.493139   -3.549476
     68          6           0        4.814238    1.461369   -1.739609
     69          1           0        5.769064    1.149915   -1.300730
     70          1           0        4.958728    2.460285   -2.162806
     71          7           0        3.846832    1.656423   -0.638495
     72          1           0        3.506494    2.611824   -0.471367
     73          7           0        4.014228   -0.459895    0.339522
     74          1           0        3.890860   -0.991811    1.192569
     75          1           0        3.702271   -0.959301   -0.501872
     76          7           0        3.224441    1.362455    1.564576
     77          1           0        2.715900    0.765309    2.204247
     78          1           0        3.062461    2.363771    1.609687
     79          6           0        3.680139    0.844609    0.406673
     80          8           0        2.310192   -1.337357   -1.785937
 ---------------------------------------------------------------------

 SCF Done:  E(RB3LYP) =  -1866.75692984     A.U. after    3 cycles

 Alpha  occ. eigenvalues --  -19.25244 -19.23915 -19.23146 -19.21868 -19.20991
 Alpha  occ. eigenvalues --  -19.19912 -14.54081 -14.49514 -14.49286 -14.48475
 Alpha  occ. eigenvalues --  -14.47864 -14.46292 -14.45896 -14.45283 -10.45038
 Alpha  occ. eigenvalues --  -10.42567 -10.40828 -10.39595 -10.38932 -10.38766
 Alpha  occ. eigenvalues --  -10.38162 -10.34850 -10.34142 -10.33336 -10.33178
 Alpha  occ. eigenvalues --  -10.31757 -10.31715 -10.30409 -10.30277 -10.30165
 Alpha  occ. eigenvalues --  -10.29867 -10.29806 -10.29757 -10.27925 -10.27889
 Alpha  occ. eigenvalues --  -10.27691 -10.27475 -10.25068 -10.24744  -1.17647
 Alpha  occ. eigenvalues --   -1.15037  -1.14648  -1.14320  -1.13660  -1.13146
 Alpha  occ. eigenvalues --   -1.09519  -1.05593  -1.04803  -1.03012  -1.02862
 Alpha  occ. eigenvalues --   -1.01984  -1.01837  -1.01512  -0.97023  -0.92169
 Alpha  occ. eigenvalues --   -0.90164  -0.89518  -0.88355  -0.86092  -0.85499
 Alpha  occ. eigenvalues --   -0.83819  -0.83794  -0.79906  -0.78610  -0.77712
 Alpha  occ. eigenvalues --   -0.75977  -0.74874  -0.73930  -0.72200  -0.71781
 Alpha  occ. eigenvalues --   -0.70901  -0.70463  -0.70225  -0.69868  -0.69347
 Alpha  occ. eigenvalues --   -0.69150  -0.67645  -0.67461  -0.66543  -0.65862
 Alpha  occ. eigenvalues --   -0.65066  -0.64276  -0.62937  -0.62456  -0.62119
 Alpha  occ. eigenvalues --   -0.61504  -0.61167  -0.60243  -0.59913  -0.58736
 Alpha  occ. eigenvalues --   -0.58562  -0.58281  -0.57635  -0.57052  -0.56857
 Alpha  occ. eigenvalues --   -0.56573  -0.55832  -0.55393  -0.55034  -0.54456
 Alpha  occ. eigenvalues --   -0.54031  -0.53938  -0.53219  -0.53118  -0.52788
 Alpha  occ. eigenvalues --   -0.52003  -0.51823  -0.51667  -0.51351  -0.51009
 Alpha  occ. eigenvalues --   -0.50938  -0.50285  -0.50031  -0.49446  -0.49185
 Alpha  occ. eigenvalues --   -0.48808  -0.48471  -0.47339  -0.47142  -0.46788
 Alpha  occ. eigenvalues --   -0.46694  -0.46315  -0.45823  -0.45482  -0.45123
 Alpha  occ. eigenvalues --   -0.44622  -0.44271  -0.43627  -0.42935  -0.41130
 Alpha  occ. eigenvalues --   -0.40908  -0.40805  -0.40776  -0.39881  -0.39371
 Alpha  occ. eigenvalues --   -0.38772  -0.38100  -0.37974  -0.37720  -0.36871
 Alpha  occ. eigenvalues --   -0.36279  -0.36177  -0.35974  -0.35836  -0.35434
 Alpha  occ. eigenvalues --   -0.34724  -0.32425
 Alpha virt. eigenvalues --   -0.12729  -0.11942  -0.11791  -0.10855  -0.10358
 Alpha virt. eigenvalues --   -0.08195  -0.07702  -0.06569  -0.05582  -0.04382
 Alpha virt. eigenvalues --   -0.03840  -0.02289  -0.01479  -0.00734  -0.00182

 Mulliken charges:
               1
     1  N   -0.787364
     2  H    0.419537
     3  H    0.468695
     4  H    0.394983
     5  C   -0.095828
     6  H    0.217091
     7  C    0.660035
     8  C   -0.404233
     9  H    0.162065
    10  H    0.197600
    11  O   -0.522119
    12  C    0.125390
    13  C   -0.181455
    14  H    0.142341
    15  C   -0.261898
    16  H    0.189286
    17  C   -0.124517
    18  H    0.164815
    19  C   -0.156149
    20  H    0.155428
    21  C   -0.122314
    22  H    0.165279
    23  N   -0.609670
    24  H    0.348325
    25  C   -0.087920
    26  H    0.209402
    27  C    0.624434
    28  C   -0.277466
    29  H    0.154645
    30  H    0.166885
    31  O   -0.540257
    32  C   -0.072923
    33  H    0.112750
    34  C   -0.444627
    35  H    0.154740
    36  H    0.156903
    37  H    0.145142
    38  C   -0.459386
    39  H    0.153796
    40  H    0.147949
    41  H    0.160617
    42  N   -0.623498
    43  H    0.397808
    44  C   -0.039674
    45  H    0.200468
    46  C    0.624593
    47  C   -0.445804
    48  H    0.182192
    49  H    0.219838
    50  O   -0.523525
    51  C    0.584824
    52  N   -0.726628
    53  H    0.360853
    54  H    0.403658
    55  O   -0.567464
    56  N   -0.598349
    57  H    0.326106
    58  C   -0.067665
    59  H    0.209240
    60  C    0.626712
    61  C   -0.291112
    62  H    0.159254
    63  H    0.177690
    64  O   -0.652782
    65  C   -0.290693
    66  H    0.181945
    67  H    0.165369
    68  C   -0.156793
    69  H    0.189014
    70  H    0.174413
    71  N   -0.635680
    72  H    0.409246
    73  N   -0.752149
    74  H    0.354279
    75  H    0.410525
    76  N   -0.772660
    77  H    0.365001
    78  H    0.381984
    79  C    0.745989
    80  O   -0.556530
 Sum of Mulliken charges =   1.00000

 Dipole moment (field-independent basis, Debye):
    X=              2.4258    Y=              4.4619    Z=              6.8993  Tot=              8.5670
 Quadrupole moment (field-independent basis, Debye-Ang):
   XX=           -176.2439   YY=           -186.4346   ZZ=           -200.8178
   XY=              1.1728   XZ=            -16.4715   YZ=             -9.0099

 Normal termination of Gaussian 16 at Fri Jun 17 19:11:45 2022.
