 Gaussian 16, Revision C.01,
 Gaussian 16:  ES64L-G16RevC.01  3-Jul-2019

 ----------------------------------------------------------------------
 # B3LYP/6-31G* empiricaldispersion=gd3 guess=read geom=check nosymm in
 tegral(ultrafinegrid)
 ----------------------------------------------------------------------

 ------------------------------------------------------
 Candidate Structure: Conf:962 Charge calc in gas phase
 ------------------------------------------------------
 Structure from the checkpoint file:  "conf-962.chk"
 Charge =  1 Multiplicity = 1

                          Input orientation:
 ---------------------------------------------------------------------
 Center     Atomic      Atomic             Coordinates (Angstroms)
 Number     Number       Type             X           Y           Z
 ---------------------------------------------------------------------
      1          7           0       -5.868080    1.317667    3.118867
      2          1           0       -6.325284    2.211756    2.918230
      3          1           0       -5.929793    0.701698    2.249190
      4          1           0       -6.329049    0.883903    3.923550
      5          6           0       -4.363741    1.434572    3.278960
      6          1           0       -4.114225    2.465207    3.537908
      7          6           0       -3.855898    1.040901    1.867609
      8          6           0       -3.880715    0.456162    4.373301
      9          1           0       -4.230448   -0.551065    4.114846
     10          1           0       -4.356720    0.743278    5.320870
     11          8           0       -4.643348    0.401048    1.146202
     12          6           0       -2.373453    0.467161    4.512211
     13          6           0       -1.608426   -0.602387    4.032361
     14          1           0       -2.101969   -1.465948    3.592730
     15          6           0       -1.726037    1.575849    5.073745
     16          1           0       -2.310266    2.407404    5.464324
     17          6           0       -0.216605   -0.567957    4.118728
     18          1           0        0.368247   -1.405058    3.750158
     19          6           0       -0.333544    1.615168    5.150038
     20          1           0        0.159171    2.478546    5.586528
     21          6           0        0.421861    0.541985    4.674201
     22          1           0        1.505338    0.568760    4.739938
     23          7           0       -2.620710    1.390916    1.557103
     24          1           0       -2.007431    1.878382    2.214017
     25          6           0       -1.930471    0.967495    0.336329
     26          1           0       -2.164811   -0.086390    0.160148
     27          6           0       -0.436532    1.153136    0.664616
     28          6           0       -2.380586    1.821343   -0.870831
     29          1           0       -3.475127    1.754310   -0.917295
     30          1           0       -2.125490    2.866130   -0.651739
     31          8           0       -0.093639    1.957207    1.538210
     32          6           0       -1.799201    1.417648   -2.240135
     33          1           0       -0.705458    1.498619   -2.191427
     34          6           0       -2.161951   -0.023684   -2.629892
     35          1           0       -3.250524   -0.162620   -2.637031
     36          1           0       -1.786015   -0.257354   -3.631126
     37          1           0       -1.737262   -0.772960   -1.951259
     38          6           0       -2.295138    2.403565   -3.308729
     39          1           0       -3.387271    2.357687   -3.407194
     40          1           0       -2.022110    3.435897   -3.060563
     41          1           0       -1.863114    2.166605   -4.286874
     42          7           0        0.416110    0.420632   -0.062721
     43          1           0        0.109654   -0.284052   -0.730943
     44          6           0        1.858374    0.468444    0.095409
     45          1           0        2.183309    1.514511    0.097113
     46          6           0        2.445023   -0.288803   -1.114236
     47          6           0        2.289354   -0.213006    1.428931
     48          1           0        1.967934    0.432614    2.251688
     49          1           0        1.775130   -1.173595    1.503143
     50          8           0        1.763412   -1.133330   -1.697640
     51          6           0        3.788551   -0.507799    1.452400
     52          7           0        4.606832    0.563813    1.702520
     53          1           0        5.541274    0.490441    1.304568
     54          1           0        4.214583    1.495217    1.740774
     55          8           0        4.217244   -1.622559    1.198685
     56          7           0        3.721212    0.019491   -1.408983
     57          1           0        4.233643    0.672002   -0.817868
     58          6           0        4.641492   -0.921705   -2.045025
     59          1           0        4.322235   -1.940486   -1.811362
     60          6           0        6.060060   -0.687464   -1.458728
     61          6           0        4.710220   -0.748643   -3.577857
     62          1           0        3.729692   -0.989067   -4.000584
     63          1           0        5.420952   -1.498104   -3.941519
     64          8           0        6.929932   -1.504000   -1.806066
     65          6           0        5.147810    0.675747   -4.000040
     66          1           0        4.315744    1.211673   -4.471355
     67          1           0        5.397259    1.255722   -3.106206
     68          6           0        6.310284    0.744414   -5.007768
     69          1           0        6.017335    0.265057   -5.945601
     70          1           0        6.537245    1.790580   -5.251845
     71          7           0        7.557661    0.064069   -4.604245
     72          1           0        7.907609   -0.663394   -5.213733
     73          7           0        8.029100    1.281938   -2.647082
     74          1           0        7.719887    1.019380   -1.683639
     75          1           0        7.432833    2.010017   -3.020150
     76          7           0        9.179229   -0.683430   -3.133979
     77          1           0        9.613444   -0.496487   -2.236819
     78          1           0        8.858959   -1.646625   -3.177609
     79          6           0        8.215910    0.218674   -3.452293
     80          8           0        6.239392    0.397689   -0.799942
 ---------------------------------------------------------------------

 SCF Done:  E(RB3LYP) =  -1866.69155402     A.U. after    2 cycles

 Alpha  occ. eigenvalues --  -19.26416 -19.21106 -19.18348 -19.16513 -19.14935
 Alpha  occ. eigenvalues --  -19.13635 -14.60188 -14.48857 -14.47270 -14.44785
 Alpha  occ. eigenvalues --  -14.44285 -14.43928 -14.40975 -14.40471 -10.43044
 Alpha  occ. eigenvalues --  -10.41664 -10.40802 -10.38170 -10.35200 -10.34318
 Alpha  occ. eigenvalues --  -10.34151 -10.33723 -10.32067 -10.32035 -10.31673
 Alpha  occ. eigenvalues --  -10.30814 -10.29381 -10.29142 -10.28721 -10.28549
 Alpha  occ. eigenvalues --  -10.28412 -10.27779 -10.27052 -10.26831 -10.26364
 Alpha  occ. eigenvalues --  -10.26252 -10.24910 -10.24645 -10.24418  -1.18942
 Alpha  occ. eigenvalues --   -1.13902  -1.13046  -1.10505  -1.10083  -1.08373
 Alpha  occ. eigenvalues --   -1.07424  -1.05596  -1.01430  -1.00195  -0.99284
 Alpha  occ. eigenvalues --   -0.97948  -0.97260  -0.96681  -0.95450  -0.92811
 Alpha  occ. eigenvalues --   -0.90016  -0.86820  -0.86242  -0.85375  -0.84394
 Alpha  occ. eigenvalues --   -0.83409  -0.80750  -0.79507  -0.76387  -0.75746
 Alpha  occ. eigenvalues --   -0.75297  -0.74179  -0.73850  -0.73251  -0.71258
 Alpha  occ. eigenvalues --   -0.70716  -0.69973  -0.68481  -0.68110  -0.67103
 Alpha  occ. eigenvalues --   -0.66496  -0.65947  -0.64445  -0.63765  -0.63316
 Alpha  occ. eigenvalues --   -0.62879  -0.61997  -0.61430  -0.61068  -0.59777
 Alpha  occ. eigenvalues --   -0.59179  -0.58838  -0.58195  -0.57096  -0.57064
 Alpha  occ. eigenvalues --   -0.56679  -0.55821  -0.55760  -0.55486  -0.54833
 Alpha  occ. eigenvalues --   -0.54478  -0.54009  -0.53241  -0.52846  -0.52434
 Alpha  occ. eigenvalues --   -0.51944  -0.51756  -0.51548  -0.51168  -0.50869
 Alpha  occ. eigenvalues --   -0.50462  -0.50366  -0.49942  -0.49737  -0.48508
 Alpha  occ. eigenvalues --   -0.48194  -0.47103  -0.46937  -0.46092  -0.45883
 Alpha  occ. eigenvalues --   -0.45773  -0.45608  -0.45107  -0.44810  -0.44534
 Alpha  occ. eigenvalues --   -0.44425  -0.44105  -0.43952  -0.43585  -0.43007
 Alpha  occ. eigenvalues --   -0.42240  -0.42021  -0.41338  -0.41211  -0.40852
 Alpha  occ. eigenvalues --   -0.40732  -0.40179  -0.39801  -0.38056  -0.37259
 Alpha  occ. eigenvalues --   -0.35708  -0.35502  -0.34899  -0.34805  -0.34235
 Alpha  occ. eigenvalues --   -0.32644  -0.32232  -0.31857  -0.30089  -0.29843
 Alpha  occ. eigenvalues --   -0.29326  -0.27541
 Alpha virt. eigenvalues --   -0.12253  -0.11161  -0.10999  -0.10193  -0.08621
 Alpha virt. eigenvalues --   -0.07242  -0.06048  -0.04538  -0.03201  -0.02849
 Alpha virt. eigenvalues --   -0.02173  -0.01652  -0.01022  -0.00310  -0.00152

 Mulliken charges:
               1
     1  N   -0.756261
     2  H    0.416656
     3  H    0.432377
     4  H    0.413888
     5  C   -0.111646
     6  H    0.214839
     7  C    0.656458
     8  C   -0.379896
     9  H    0.184689
    10  H    0.184336
    11  O   -0.553186
    12  C    0.148619
    13  C   -0.181069
    14  H    0.144197
    15  C   -0.197749
    16  H    0.131296
    17  C   -0.125754
    18  H    0.166383
    19  C   -0.112561
    20  H    0.159428
    21  C   -0.114369
    22  H    0.162759
    23  N   -0.601396
    24  H    0.383627
    25  C   -0.060740
    26  H    0.185597
    27  C    0.629754
    28  C   -0.258679
    29  H    0.158966
    30  H    0.150612
    31  O   -0.554580
    32  C   -0.092020
    33  H    0.143241
    34  C   -0.456593
    35  H    0.151176
    36  H    0.168006
    37  H    0.142299
    38  C   -0.445935
    39  H    0.146155
    40  H    0.147168
    41  H    0.158197
    42  N   -0.626958
    43  H    0.373243
    44  C   -0.044718
    45  H    0.166900
    46  C    0.607283
    47  C   -0.358807
    48  H    0.178621
    49  H    0.175428
    50  O   -0.543478
    51  C    0.555343
    52  N   -0.738938
    53  H    0.376597
    54  H    0.322189
    55  O   -0.485923
    56  N   -0.606959
    57  H    0.348342
    58  C   -0.056182
    59  H    0.191049
    60  C    0.610377
    61  C   -0.267254
    62  H    0.164706
    63  H    0.152375
    64  O   -0.590281
    65  C   -0.286024
    66  H    0.158479
    67  H    0.151976
    68  C   -0.167999
    69  H    0.179041
    70  H    0.171840
    71  N   -0.561373
    72  H    0.360807
    73  N   -0.730745
    74  H    0.398926
    75  H    0.346138
    76  N   -0.699500
    77  H    0.366804
    78  H    0.376261
    79  C    0.703308
    80  O   -0.649181
 Sum of Mulliken charges =   1.00000

 Dipole moment (field-independent basis, Debye):
    X=             -9.5586    Y=             10.1976    Z=              4.3633  Tot=             14.6423
 Quadrupole moment (field-independent basis, Debye-Ang):
   XX=            -37.7126   YY=           -218.2331   ZZ=           -130.9638
   XY=            -11.3136   XZ=           -128.0748   YZ=             17.0849

 Normal termination of Gaussian 16 at Fri Jun 17 19:11:06 2022.
