 Gaussian 16, Revision C.01,
 Gaussian 16:  ES64L-G16RevC.01  3-Jul-2019

 ----------------------------------------------------------------------
 # B3LYP/6-31G* empiricaldispersion=gd3 guess=read geom=check nosymm in
 tegral(ultrafinegrid)
 ----------------------------------------------------------------------

 ------------------------------------------------------
 Candidate Structure: Conf:448 Charge calc in gas phase
 ------------------------------------------------------
 Structure from the checkpoint file:  "conf-448.chk"
 Charge =  1 Multiplicity = 1

                          Input orientation:
 ---------------------------------------------------------------------
 Center     Atomic      Atomic             Coordinates (Angstroms)
 Number     Number       Type             X           Y           Z
 ---------------------------------------------------------------------
      1          7           0       -5.984832    2.958554    2.187478
      2          1           0       -6.637085    2.868707    1.403025
      3          1           0       -5.769818    1.982021    2.561351
      4          1           0       -6.404547    3.558491    2.902715
      5          6           0       -4.597169    3.403500    1.764133
      6          1           0       -4.672165    3.968972    0.833619
      7          6           0       -3.868327    2.046555    1.583943
      8          6           0       -3.969390    4.255889    2.888822
      9          1           0       -4.016026    3.680293    3.821719
     10          1           0       -4.583090    5.157746    3.018942
     11          8           0       -4.338714    1.084007    2.219019
     12          6           0       -2.536728    4.625528    2.572823
     13          6           0       -1.478121    3.951718    3.192960
     14          1           0       -1.686611    3.189820    3.940559
     15          6           0       -2.257166    5.600836    1.607034
     16          1           0       -3.072208    6.140794    1.127915
     17          6           0       -0.158957    4.248828    2.852724
     18          1           0        0.654623    3.717686    3.337542
     19          6           0       -0.937463    5.892028    1.261673
     20          1           0       -0.730394    6.645835    0.508179
     21          6           0        0.112252    5.214615    1.883284
     22          1           0        1.138684    5.435658    1.607776
     23          7           0       -2.814104    2.036408    0.789359
     24          1           0       -2.424220    2.904978    0.411277
     25          6           0       -1.883870    0.915053    0.634347
     26          1           0       -1.849404    0.356128    1.573740
     27          6           0       -0.525887    1.572948    0.331502
     28          6           0       -2.256487   -0.011263   -0.544975
     29          1           0       -2.306944    0.610934   -1.446636
     30          1           0       -1.417245   -0.698306   -0.706004
     31          8           0       -0.470916    2.732186   -0.081820
     32          6           0       -3.551631   -0.823992   -0.374228
     33          1           0       -4.379286   -0.128901   -0.168310
     34          6           0       -3.861167   -1.556515   -1.688604
     35          1           0       -3.058113   -2.261589   -1.936209
     36          1           0       -4.793620   -2.127096   -1.610370
     37          1           0       -3.959232   -0.856717   -2.527049
     38          6           0       -3.457136   -1.816187    0.793621
     39          1           0       -2.594054   -2.481649    0.665484
     40          1           0       -3.362441   -1.304718    1.756276
     41          1           0       -4.356399   -2.440722    0.844275
     42          7           0        0.539463    0.767443    0.509809
     43          1           0        0.372868   -0.229271    0.678728
     44          6           0        1.770555    1.015173   -0.218565
     45          1           0        2.255907    1.920585    0.162698
     46          6           0        1.511157    1.143910   -1.737370
     47          6           0        2.723618   -0.200043   -0.037835
     48          1           0        3.649851   -0.023875   -0.592935
     49          1           0        2.974802   -0.293732    1.023862
     50          8           0        0.558889    0.593237   -2.269454
     51          6           0        2.033765   -1.506165   -0.450479
     52          7           0        2.555797   -2.182087   -1.491831
     53          1           0        2.027861   -2.985960   -1.807710
     54          1           0        3.217857   -1.779723   -2.156236
     55          8           0        1.045979   -1.907422    0.182338
     56          7           0        2.514472    1.785463   -2.418750
     57          1           0        3.307160    2.073993   -1.851344
     58          6           0        2.974129    1.230337   -3.701174
     59          1           0        2.144428    0.671613   -4.135257
     60          6           0        4.119128    0.245695   -3.355587
     61          6           0        3.434516    2.341745   -4.657758
     62          1           0        4.148236    2.985123   -4.124576
     63          1           0        2.569432    2.973804   -4.882490
     64          8           0        5.078121    0.757787   -2.668259
     65          6           0        4.067260    1.800114   -5.968485
     66          1           0        3.891956    0.720519   -6.054450
     67          1           0        3.588537    2.266690   -6.837073
     68          6           0        5.578606    2.063228   -6.097480
     69          1           0        5.934067    1.719533   -7.072566
     70          1           0        5.784406    3.137556   -6.043784
     71          7           0        6.360396    1.417398   -5.031911
     72          1           0        6.015341    1.606452   -4.082494
     73          7           0        7.372252   -0.272176   -6.296837
     74          1           0        7.837770   -1.166717   -6.334912
     75          1           0        7.565769    0.362689   -7.056663
     76          7           0        7.109212   -0.485914   -3.983585
     77          1           0        7.508570   -1.412657   -4.021903
     78          1           0        6.430828   -0.268748   -3.221615
     79          6           0        6.939512    0.209814   -5.109826
     80          8           0        4.046333   -0.936989   -3.738066
 ---------------------------------------------------------------------

 SCF Done:  E(RB3LYP) =  -1866.71271973     A.U. after    3 cycles

 Alpha  occ. eigenvalues --  -19.25025 -19.19417 -19.17822 -19.17247 -19.16507
 Alpha  occ. eigenvalues --  -19.15726 -14.59124 -14.47632 -14.47360 -14.45487
 Alpha  occ. eigenvalues --  -14.44842 -14.41905 -14.41322 -14.40470 -10.42661
 Alpha  occ. eigenvalues --  -10.41677 -10.39576 -10.36009 -10.34999 -10.34572
 Alpha  occ. eigenvalues --  -10.33554 -10.33025 -10.31718 -10.31607 -10.30626
 Alpha  occ. eigenvalues --  -10.29610 -10.28217 -10.27980 -10.27864 -10.27532
 Alpha  occ. eigenvalues --  -10.27409 -10.27257 -10.26601 -10.26527 -10.25662
 Alpha  occ. eigenvalues --  -10.25113 -10.24981 -10.22846 -10.22573  -1.17629
 Alpha  occ. eigenvalues --   -1.12674  -1.11437  -1.11363  -1.09758  -1.09024
 Alpha  occ. eigenvalues --   -1.08698  -1.04065  -1.01062  -1.00205  -0.99464
 Alpha  occ. eigenvalues --   -0.99128  -0.97954  -0.95519  -0.95508  -0.91561
 Alpha  occ. eigenvalues --   -0.88093  -0.86996  -0.85122  -0.84492  -0.83248
 Alpha  occ. eigenvalues --   -0.82012  -0.80931  -0.78341  -0.75346  -0.73798
 Alpha  occ. eigenvalues --   -0.73673  -0.73323  -0.72692  -0.72236  -0.72188
 Alpha  occ. eigenvalues --   -0.69573  -0.68819  -0.68053  -0.67579  -0.67268
 Alpha  occ. eigenvalues --   -0.66358  -0.65190  -0.64585  -0.63582  -0.63357
 Alpha  occ. eigenvalues --   -0.62174  -0.61571  -0.60700  -0.59939  -0.59825
 Alpha  occ. eigenvalues --   -0.58933  -0.58835  -0.57683  -0.57302  -0.56177
 Alpha  occ. eigenvalues --   -0.55878  -0.55769  -0.54879  -0.54733  -0.54590
 Alpha  occ. eigenvalues --   -0.53648  -0.53435  -0.53199  -0.51729  -0.51345
 Alpha  occ. eigenvalues --   -0.51238  -0.50815  -0.50470  -0.50365  -0.50263
 Alpha  occ. eigenvalues --   -0.49828  -0.49396  -0.49172  -0.49112  -0.47973
 Alpha  occ. eigenvalues --   -0.47647  -0.46982  -0.46593  -0.46126  -0.45554
 Alpha  occ. eigenvalues --   -0.45201  -0.44802  -0.44751  -0.44453  -0.44030
 Alpha  occ. eigenvalues --   -0.43706  -0.43382  -0.43128  -0.42983  -0.42264
 Alpha  occ. eigenvalues --   -0.42069  -0.41940  -0.41490  -0.40417  -0.39793
 Alpha  occ. eigenvalues --   -0.39230  -0.38671  -0.38373  -0.38185  -0.36646
 Alpha  occ. eigenvalues --   -0.35155  -0.34331  -0.33880  -0.33664  -0.33271
 Alpha  occ. eigenvalues --   -0.33029  -0.32444  -0.31894  -0.31382  -0.30946
 Alpha  occ. eigenvalues --   -0.30227  -0.28244
 Alpha virt. eigenvalues --   -0.11076  -0.09975  -0.09795  -0.08975  -0.07431
 Alpha virt. eigenvalues --   -0.05296  -0.04971  -0.04696  -0.03872  -0.03633
 Alpha virt. eigenvalues --   -0.02298  -0.01640  -0.00703   0.00164   0.00178

 Mulliken charges:
               1
     1  N   -0.754370
     2  H    0.415319
     3  H    0.430730
     4  H    0.411014
     5  C   -0.112509
     6  H    0.212381
     7  C    0.659017
     8  C   -0.379509
     9  H    0.182944
    10  H    0.179266
    11  O   -0.553170
    12  C    0.147599
    13  C   -0.179550
    14  H    0.141558
    15  C   -0.194507
    16  H    0.128017
    17  C   -0.118824
    18  H    0.153157
    19  C   -0.110764
    20  H    0.153984
    21  C   -0.097671
    22  H    0.152043
    23  N   -0.587655
    24  H    0.379799
    25  C   -0.096191
    26  H    0.187063
    27  C    0.648278
    28  C   -0.260810
    29  H    0.157178
    30  H    0.188936
    31  O   -0.550810
    32  C   -0.067577
    33  H    0.100697
    34  C   -0.444338
    35  H    0.157185
    36  H    0.144623
    37  H    0.141578
    38  C   -0.460949
    39  H    0.158782
    40  H    0.155325
    41  H    0.144738
    42  N   -0.624638
    43  H    0.386194
    44  C   -0.068268
    45  H    0.164600
    46  C    0.629205
    47  C   -0.403977
    48  H    0.193445
    49  H    0.191382
    50  O   -0.513638
    51  C    0.601505
    52  N   -0.759398
    53  H    0.343004
    54  H    0.396093
    55  O   -0.544201
    56  N   -0.595428
    57  H    0.332814
    58  C   -0.039696
    59  H    0.186719
    60  C    0.583520
    61  C   -0.289978
    62  H    0.139437
    63  H    0.167509
    64  O   -0.646465
    65  C   -0.280606
    66  H    0.180211
    67  H    0.160381
    68  C   -0.170400
    69  H    0.151395
    70  H    0.181436
    71  N   -0.599735
    72  H    0.390044
    73  N   -0.755990
    74  H    0.367808
    75  H    0.371467
    76  N   -0.749402
    77  H    0.349546
    78  H    0.410455
    79  C    0.775460
    80  O   -0.573816
 Sum of Mulliken charges =   1.00000

 Dipole moment (field-independent basis, Debye):
    X=             -2.8302    Y=             13.4851    Z=             -4.9955  Tot=             14.6565
 Quadrupole moment (field-independent basis, Debye-Ang):
   XX=              4.9028   YY=           -173.3326   ZZ=           -126.0396
   XY=            -66.3600   XZ=           -133.5474   YZ=             21.9517

 Normal termination of Gaussian 16 at Fri Jun 17 19:11:31 2022.
