 Gaussian 16, Revision C.01,
 Gaussian 16:  ES64L-G16RevC.01  3-Jul-2019

 ----------------------------------------------------------------------
 # B3LYP/6-31G* empiricaldispersion=gd3 guess=read geom=check nosymm in
 tegral(ultrafinegrid)
 ----------------------------------------------------------------------

 ------------------------------------------------------
 Candidate Structure: Conf:102 Charge calc in gas phase
 ------------------------------------------------------
 Structure from the checkpoint file:  "conf-102.chk"
 Charge =  1 Multiplicity = 1

                          Input orientation:
 ---------------------------------------------------------------------
 Center     Atomic      Atomic             Coordinates (Angstroms)
 Number     Number       Type             X           Y           Z
 ---------------------------------------------------------------------
      1          7           0       -1.619843   -0.692507    3.354040
      2          1           0       -1.730472   -1.035674    4.310661
      3          1           0       -1.937946   -1.393703    2.671948
      4          1           0       -0.580658   -0.490062    3.135162
      5          6           0       -2.386219    0.580184    3.096849
      6          1           0       -3.434707    0.383055    3.344621
      7          6           0       -2.294200    0.729016    1.559563
      8          6           0       -1.822358    1.706407    3.987058
      9          1           0       -0.757565    1.824124    3.764165
     10          1           0       -1.895658    1.368628    5.030223
     11          8           0       -2.200550   -0.311026    0.889972
     12          6           0       -2.553938    3.026666    3.826118
     13          6           0       -1.859428    4.165774    3.390680
     14          1           0       -0.786909    4.107673    3.219788
     15          6           0       -3.935026    3.122322    4.051062
     16          1           0       -4.490706    2.257550    4.407142
     17          6           0       -2.534785    5.368296    3.164311
     18          1           0       -1.982266    6.240263    2.827181
     19          6           0       -4.609693    4.322160    3.825385
     20          1           0       -5.679490    4.380254    4.002610
     21          6           0       -3.912182    5.446416    3.374160
     22          1           0       -4.439670    6.378239    3.194553
     23          7           0       -2.325008    1.959696    1.041814
     24          1           0       -2.355219    2.757805    1.667727
     25          6           0       -2.146016    2.248490   -0.390291
     26          1           0       -2.636782    1.444079   -0.946161
     27          6           0       -0.620527    2.206551   -0.663914
     28          6           0       -2.754028    3.611657   -0.722306
     29          1           0       -2.146080    4.383636   -0.234950
     30          1           0       -2.636809    3.773539   -1.801140
     31          8           0        0.044467    3.221997   -0.875583
     32          6           0       -4.235101    3.777618   -0.330532
     33          1           0       -4.326190    3.625294    0.754995
     34          6           0       -4.687211    5.213878   -0.627848
     35          1           0       -4.619617    5.434028   -1.700581
     36          1           0       -5.727809    5.367101   -0.321971
     37          1           0       -4.067673    5.944064   -0.093799
     38          6           0       -5.140489    2.755096   -1.031083
     39          1           0       -5.053578    2.838384   -2.121953
     40          1           0       -4.895991    1.723519   -0.751370
     41          1           0       -6.190603    2.923524   -0.769313
     42          7           0       -0.084532    0.966795   -0.558497
     43          1           0       -0.725384    0.195880   -0.400367
     44          6           0        1.327143    0.731039   -0.327614
     45          1           0        1.736217    1.632794    0.141226
     46          6           0        2.133258    0.465556   -1.610594
     47          6           0        1.527392   -0.508716    0.610157
     48          1           0        0.647746   -1.156135    0.552576
     49          1           0        2.395706   -1.080357    0.276657
     50          8           0        1.590318    0.043771   -2.649380
     51          6           0        1.745484   -0.097250    2.057856
     52          7           0        3.012257   -0.004760    2.439239
     53          1           0        3.206935    0.285820    3.389607
     54          1           0        3.796250   -0.228328    1.788642
     55          8           0        0.786319    0.181526    2.826548
     56          7           0        3.450091    0.681068   -1.469443
     57          1           0        3.752461    0.860973   -0.498433
     58          6           0        4.466227   -0.257335   -1.988393
     59          1           0        3.952024   -1.070215   -2.512243
     60          6           0        5.153546   -0.876613   -0.687240
     61          6           0        5.538363    0.344020   -2.903174
     62          1           0        6.351981   -0.388357   -2.887610
     63          1           0        5.934672    1.261499   -2.446040
     64          8           0        5.979857   -1.759769   -0.882379
     65          6           0        5.172247    0.606642   -4.376700
     66          1           0        6.102481    0.660532   -4.954521
     67          1           0        4.612048   -0.243278   -4.790647
     68          6           0        4.419849    1.908447   -4.676528
     69          1           0        4.914344    2.726305   -4.135160
     70          1           0        4.462530    2.132147   -5.750063
     71          7           0        3.014191    1.835199   -4.262495
     72          1           0        2.650666    0.931400   -3.937048
     73          7           0        2.681608    4.141274   -4.140456
     74          1           0        2.012343    4.896997   -4.153953
     75          1           0        3.582349    4.328056   -4.553385
     76          7           0        0.960838    2.687806   -3.587973
     77          1           0        0.601310    3.339909   -2.893759
     78          1           0        0.735969    1.722225   -3.347004
     79          6           0        2.237613    2.876054   -3.996484
     80          8           0        4.750697   -0.346822    0.410167
 ---------------------------------------------------------------------

 SCF Done:  E(RB3LYP) =  -1866.72374817     A.U. after    3 cycles

 Alpha  occ. eigenvalues --  -19.25838 -19.23630 -19.23343 -19.22210 -19.14812
 Alpha  occ. eigenvalues --  -19.12892 -14.56507 -14.49449 -14.49362 -14.47936
 Alpha  occ. eigenvalues --  -14.46817 -14.46601 -14.44946 -14.43112 -10.44479
 Alpha  occ. eigenvalues --  -10.43118 -10.40392 -10.40173 -10.39593 -10.38227
 Alpha  occ. eigenvalues --  -10.34883 -10.34662 -10.33089 -10.33038 -10.31947
 Alpha  occ. eigenvalues --  -10.31835 -10.30462 -10.30435 -10.30333 -10.30012
 Alpha  occ. eigenvalues --  -10.30005 -10.29759 -10.28584 -10.28405 -10.28240
 Alpha  occ. eigenvalues --  -10.27557 -10.26004 -10.25728 -10.25309  -1.18146
 Alpha  occ. eigenvalues --   -1.15028  -1.14333  -1.13679  -1.12757  -1.11320
 Alpha  occ. eigenvalues --   -1.07233  -1.06214  -1.03627  -1.02691  -1.01241
 Alpha  occ. eigenvalues --   -1.00935  -1.00465  -0.98221  -0.97318  -0.92687
 Alpha  occ. eigenvalues --   -0.90617  -0.89158  -0.87928  -0.86309  -0.85610
 Alpha  occ. eigenvalues --   -0.84521  -0.82339  -0.79323  -0.79110  -0.76947
 Alpha  occ. eigenvalues --   -0.76405  -0.74932  -0.73913  -0.72850  -0.72505
 Alpha  occ. eigenvalues --   -0.71518  -0.71442  -0.70527  -0.69856  -0.68645
 Alpha  occ. eigenvalues --   -0.68178  -0.67640  -0.66392  -0.65917  -0.65189
 Alpha  occ. eigenvalues --   -0.64148  -0.63702  -0.62645  -0.62287  -0.61761
 Alpha  occ. eigenvalues --   -0.61420  -0.60708  -0.60046  -0.59950  -0.58897
 Alpha  occ. eigenvalues --   -0.58585  -0.57946  -0.57200  -0.56859  -0.56465
 Alpha  occ. eigenvalues --   -0.56156  -0.55348  -0.55252  -0.54472  -0.54306
 Alpha  occ. eigenvalues --   -0.53602  -0.53137  -0.52965  -0.52317  -0.52286
 Alpha  occ. eigenvalues --   -0.52141  -0.51806  -0.51152  -0.50902  -0.50641
 Alpha  occ. eigenvalues --   -0.49800  -0.49658  -0.49106  -0.48718  -0.48329
 Alpha  occ. eigenvalues --   -0.47926  -0.47746  -0.46870  -0.46818  -0.46726
 Alpha  occ. eigenvalues --   -0.45495  -0.45455  -0.45397  -0.45047  -0.44333
 Alpha  occ. eigenvalues --   -0.43530  -0.42101  -0.41998  -0.41857  -0.41757
 Alpha  occ. eigenvalues --   -0.41709  -0.40692  -0.40458  -0.39931  -0.39781
 Alpha  occ. eigenvalues --   -0.38336  -0.38084  -0.37645  -0.37030  -0.36395
 Alpha  occ. eigenvalues --   -0.36139  -0.35942  -0.35628  -0.34572  -0.29684
 Alpha  occ. eigenvalues --   -0.29571  -0.26630
 Alpha virt. eigenvalues --   -0.13096  -0.11772  -0.11628  -0.10148  -0.09879
 Alpha virt. eigenvalues --   -0.08868  -0.07962  -0.07111  -0.04344  -0.03210
 Alpha virt. eigenvalues --   -0.02092  -0.01173  -0.00276  -0.00223  -0.00026

 Mulliken charges:
               1
     1  N   -0.761878
     2  H    0.396336
     3  H    0.411739
     4  H    0.450619
     5  C   -0.125292
     6  H    0.218770
     7  C    0.668319
     8  C   -0.376156
     9  H    0.213862
    10  H    0.179652
    11  O   -0.565137
    12  C    0.110138
    13  C   -0.217539
    14  H    0.157939
    15  C   -0.170076
    16  H    0.139430
    17  C   -0.116791
    18  H    0.163819
    19  C   -0.124217
    20  H    0.164504
    21  C   -0.124816
    22  H    0.165601
    23  N   -0.615041
    24  H    0.385216
    25  C   -0.084817
    26  H    0.198953
    27  C    0.618203
    28  C   -0.286886
    29  H    0.161871
    30  H    0.155048
    31  O   -0.547439
    32  C   -0.084851
    33  H    0.126598
    34  C   -0.444635
    35  H    0.151587
    36  H    0.155614
    37  H    0.142575
    38  C   -0.454525
    39  H    0.152515
    40  H    0.142448
    41  H    0.160725
    42  N   -0.599456
    43  H    0.380503
    44  C   -0.057325
    45  H    0.197412
    46  C    0.580888
    47  C   -0.397739
    48  H    0.172900
    49  H    0.224284
    50  O   -0.572067
    51  C    0.597850
    52  N   -0.724427
    53  H    0.349201
    54  H    0.441050
    55  O   -0.612692
    56  N   -0.562333
    57  H    0.350459
    58  C   -0.109724
    59  H    0.166489
    60  C    0.598168
    61  C   -0.263748
    62  H    0.201221
    63  H    0.138240
    64  O   -0.516187
    65  C   -0.314480
    66  H    0.171895
    67  H    0.164672
    68  C   -0.145737
    69  H    0.161998
    70  H    0.179144
    71  N   -0.597631
    72  H    0.400709
    73  N   -0.757001
    74  H    0.375849
    75  H    0.378897
    76  N   -0.783569
    77  H    0.378183
    78  H    0.386616
    79  C    0.769281
    80  O   -0.643776
 Sum of Mulliken charges =   1.00000

 Dipole moment (field-independent basis, Debye):
    X=             -8.9293    Y=             14.4051    Z=              2.7748  Tot=             17.1738
 Quadrupole moment (field-independent basis, Debye-Ang):
   XX=           -211.3703   YY=           -171.4098   ZZ=           -133.9791
   XY=             19.9020   XZ=            -60.5294   YZ=            -32.8814

 Normal termination of Gaussian 16 at Fri Jun 17 19:11:33 2022.
