 Gaussian 16, Revision C.01,
 Gaussian 16:  ES64L-G16RevC.01  3-Jul-2019

 ----------------------------------------------------------------------
 # B3LYP/6-31G* empiricaldispersion=gd3 guess=read geom=check nosymm in
 tegral(ultrafinegrid)
 ----------------------------------------------------------------------

 ------------------------------------------------------
 Candidate Structure: Conf:353 Charge calc in gas phase
 ------------------------------------------------------
 Structure from the checkpoint file:  "conf-353.chk"
 Charge =  1 Multiplicity = 1

                          Input orientation:
 ---------------------------------------------------------------------
 Center     Atomic      Atomic             Coordinates (Angstroms)
 Number     Number       Type             X           Y           Z
 ---------------------------------------------------------------------
      1          7           0       -3.558012    2.468762    5.572167
      2          1           0       -3.813034    3.449859    5.420183
      3          1           0       -4.343265    1.861754    5.205898
      4          1           0       -3.399620    2.316069    6.572270
      5          6           0       -2.400319    2.011943    4.701837
      6          1           0       -1.728000    2.854819    4.531527
      7          6           0       -3.123234    1.533026    3.421819
      8          6           0       -1.681609    0.834262    5.403748
      9          1           0       -2.449510    0.128893    5.746328
     10          1           0       -1.161872    1.223961    6.288530
     11          8           0       -4.266466    1.073932    3.579965
     12          6           0       -0.720635    0.131746    4.469659
     13          6           0       -1.146695   -0.991181    3.746257
     14          1           0       -2.146530   -1.388111    3.910322
     15          6           0        0.564767    0.639845    4.252250
     16          1           0        0.909761    1.504258    4.816805
     17          6           0       -0.305151   -1.587795    2.809269
     18          1           0       -0.632622   -2.446359    2.233438
     19          6           0        1.408605    0.039065    3.315797
     20          1           0        2.403003    0.443580    3.151574
     21          6           0        0.972309   -1.068292    2.588521
     22          1           0        1.604611   -1.529316    1.837746
     23          7           0       -2.440965    1.629006    2.292518
     24          1           0       -1.456641    1.909084    2.304912
     25          6           0       -2.792665    0.970061    1.032848
     26          1           0       -3.323890    0.041361    1.267336
     27          6           0       -1.426132    0.671467    0.381554
     28          6           0       -3.612108    1.873914    0.088300
     29          1           0       -2.993987    2.734616   -0.183167
     30          1           0       -3.764249    1.322403   -0.850798
     31          8           0       -0.403391    1.221886    0.782663
     32          6           0       -4.984023    2.345140    0.595479
     33          1           0       -4.838163    2.841753    1.566332
     34          6           0       -5.535629    3.383420   -0.395220
     35          1           0       -5.750972    2.912703   -1.362737
     36          1           0       -6.468820    3.822237   -0.023795
     37          1           0       -4.813063    4.184770   -0.581281
     38          6           0       -5.972946    1.188303    0.790294
     39          1           0       -6.125094    0.650475   -0.155086
     40          1           0       -5.630497    0.477014    1.547808
     41          1           0       -6.950648    1.564549    1.112607
     42          7           0       -1.435636   -0.176609   -0.676932
     43          1           0       -2.314562   -0.557468   -1.000869
     44          6           0       -0.216557   -0.457948   -1.424325
     45          1           0        0.599242   -0.486456   -0.696978
     46          6           0        0.164570    0.631253   -2.439945
     47          6           0       -0.287048   -1.826785   -2.102116
     48          1           0       -1.171067   -1.898795   -2.749972
     49          1           0        0.592379   -1.918120   -2.749606
     50          8           0        1.271462    0.508322   -3.029108
     51          6           0       -0.248354   -2.959578   -1.073925
     52          7           0       -0.898697   -4.099448   -1.437967
     53          1           0       -0.776609   -4.916407   -0.853761
     54          1           0       -1.241024   -4.243171   -2.377147
     55          8           0        0.326155   -2.842579    0.001785
     56          7           0       -0.681322    1.629462   -2.630386
     57          1           0       -1.502223    1.799005   -2.034952
     58          6           0       -0.362913    2.862836   -3.336283
     59          1           0        0.682864    3.098240   -3.142495
     60          6           0       -1.207633    4.017726   -2.681415
     61          6           0       -0.628619    2.768652   -4.856619
     62          1           0       -1.677237    3.021259   -5.043835
     63          1           0       -0.496381    1.729386   -5.192237
     64          8           0       -2.101986    3.619986   -1.881978
     65          6           0        0.287565    3.702658   -5.668871
     66          1           0       -0.196430    4.001059   -6.606296
     67          1           0        0.437116    4.617294   -5.083394
     68          6           0        1.616516    3.026546   -6.045735
     69          1           0        1.434413    2.206861   -6.747214
     70          1           0        2.305106    3.710442   -6.554835
     71          7           0        2.308393    2.413017   -4.899718
     72          1           0        1.882259    1.558620   -4.519405
     73          7           0        3.450266    4.337485   -4.221055
     74          1           0        3.860526    4.868546   -3.466788
     75          1           0        3.013919    4.885891   -4.947502
     76          7           0        3.359083    2.447193   -2.855309
     77          1           0        3.765038    2.966283   -2.090842
     78          1           0        2.823000    1.606195   -2.624755
     79          6           0        3.016671    3.081083   -3.991801
     80          8           0       -0.883402    5.156737   -3.054878
 ---------------------------------------------------------------------

 SCF Done:  E(RB3LYP) =  -1866.68964682     A.U. after    1 cycles

 Alpha  occ. eigenvalues --  -19.25257 -19.21525 -19.20476 -19.20173 -19.11352
 Alpha  occ. eigenvalues --  -19.10212 -14.59919 -14.48513 -14.47794 -14.47109
 Alpha  occ. eigenvalues --  -14.46678 -14.46030 -14.44492 -14.42700 -10.43925
 Alpha  occ. eigenvalues --  -10.41999 -10.39872 -10.38481 -10.37980 -10.37042
 Alpha  occ. eigenvalues --  -10.33111 -10.32972 -10.32372 -10.31804 -10.29430
 Alpha  occ. eigenvalues --  -10.29193 -10.29177 -10.28020 -10.27762 -10.27278
 Alpha  occ. eigenvalues --  -10.26764 -10.26693 -10.26627 -10.25552 -10.25246
 Alpha  occ. eigenvalues --  -10.25122 -10.24901 -10.23135 -10.22112  -1.17934
 Alpha  occ. eigenvalues --   -1.13879  -1.13188  -1.12732  -1.11989  -1.11165
 Alpha  occ. eigenvalues --   -1.04732  -1.04345  -1.02543  -1.01794  -1.00886
 Alpha  occ. eigenvalues --   -0.99160  -0.99035  -0.95662  -0.95424  -0.91664
 Alpha  occ. eigenvalues --   -0.88958  -0.87131  -0.86623  -0.84688  -0.82959
 Alpha  occ. eigenvalues --   -0.82690  -0.81332  -0.78503  -0.77397  -0.75176
 Alpha  occ. eigenvalues --   -0.74097  -0.73589  -0.73041  -0.72722  -0.72668
 Alpha  occ. eigenvalues --   -0.70543  -0.69637  -0.69258  -0.68430  -0.67981
 Alpha  occ. eigenvalues --   -0.67690  -0.66890  -0.65651  -0.65133  -0.64408
 Alpha  occ. eigenvalues --   -0.63242  -0.62425  -0.61963  -0.61745  -0.60564
 Alpha  occ. eigenvalues --   -0.60285  -0.59702  -0.59059  -0.58175  -0.57102
 Alpha  occ. eigenvalues --   -0.56741  -0.56321  -0.55967  -0.55751  -0.54764
 Alpha  occ. eigenvalues --   -0.54373  -0.53828  -0.53265  -0.52726  -0.52508
 Alpha  occ. eigenvalues --   -0.52045  -0.51750  -0.51035  -0.50676  -0.50547
 Alpha  occ. eigenvalues --   -0.50284  -0.50050  -0.49450  -0.49281  -0.49163
 Alpha  occ. eigenvalues --   -0.48753  -0.48048  -0.47178  -0.47024  -0.46205
 Alpha  occ. eigenvalues --   -0.45467  -0.45367  -0.44816  -0.44340  -0.44045
 Alpha  occ. eigenvalues --   -0.43579  -0.42943  -0.42552  -0.42481  -0.42171
 Alpha  occ. eigenvalues --   -0.41729  -0.40812  -0.40507  -0.39915  -0.39347
 Alpha  occ. eigenvalues --   -0.39286  -0.38813  -0.38491  -0.38205  -0.37450
 Alpha  occ. eigenvalues --   -0.37004  -0.35962  -0.35652  -0.35211  -0.34152
 Alpha  occ. eigenvalues --   -0.33861  -0.33478  -0.33295  -0.32805  -0.26446
 Alpha  occ. eigenvalues --   -0.26237  -0.24437
 Alpha virt. eigenvalues --   -0.11639  -0.10231  -0.09711  -0.08781  -0.08753
 Alpha virt. eigenvalues --   -0.07135  -0.06762  -0.05293  -0.05199  -0.04244
 Alpha virt. eigenvalues --   -0.02160  -0.01871  -0.01455  -0.01211  -0.00569

 Mulliken charges:
               1
     1  N   -0.748257
     2  H    0.418989
     3  H    0.427873
     4  H    0.413651
     5  C   -0.114913
     6  H    0.212651
     7  C    0.660156
     8  C   -0.380211
     9  H    0.180588
    10  H    0.179889
    11  O   -0.551675
    12  C    0.147284
    13  C   -0.185327
    14  H    0.138634
    15  C   -0.189952
    16  H    0.127459
    17  C   -0.136935
    18  H    0.165094
    19  C   -0.109678
    20  H    0.144767
    21  C   -0.112381
    22  H    0.169606
    23  N   -0.578926
    24  H    0.380306
    25  C   -0.080571
    26  H    0.177439
    27  C    0.649978
    28  C   -0.281131
    29  H    0.230446
    30  H    0.125621
    31  O   -0.534362
    32  C   -0.069918
    33  H    0.103366
    34  C   -0.446333
    35  H    0.145872
    36  H    0.138038
    37  H    0.182108
    38  C   -0.456242
    39  H    0.133651
    40  H    0.154392
    41  H    0.148557
    42  N   -0.636381
    43  H    0.342128
    44  C   -0.017349
    45  H    0.218786
    46  C    0.628412
    47  C   -0.413883
    48  H    0.154489
    49  H    0.220360
    50  O   -0.620955
    51  C    0.613565
    52  N   -0.745376
    53  H    0.354979
    54  H    0.348366
    55  O   -0.502134
    56  N   -0.592072
    57  H    0.374274
    58  C   -0.074896
    59  H    0.124426
    60  C    0.581127
    61  C   -0.272181
    62  H    0.174774
    63  H    0.124585
    64  O   -0.609396
    65  C   -0.278481
    66  H    0.159381
    67  H    0.187209
    68  C   -0.194057
    69  H    0.185262
    70  H    0.163413
    71  N   -0.577936
    72  H    0.400063
    73  N   -0.749793
    74  H    0.369807
    75  H    0.385758
    76  N   -0.764305
    77  H    0.356533
    78  H    0.407700
    79  C    0.767321
    80  O   -0.573129
 Sum of Mulliken charges =   1.00000

 Dipole moment (field-independent basis, Debye):
    X=             -2.1434    Y=              4.6197    Z=              8.8268  Tot=             10.1906
 Quadrupole moment (field-independent basis, Debye-Ang):
   XX=           -174.1117   YY=           -194.4052   ZZ=            -70.3941
   XY=             29.3247   XZ=            -80.8928   YZ=             46.1944

 Normal termination of Gaussian 16 at Fri Jun 17 19:10:53 2022.
