 Gaussian 16, Revision C.01,
 Gaussian 16:  ES64L-G16RevC.01  3-Jul-2019

 ----------------------------------------------------------------------
 # B3LYP/6-31G* empiricaldispersion=gd3 guess=read geom=check nosymm in
 tegral(ultrafinegrid)
 ----------------------------------------------------------------------

 ------------------------------------------------------
 Candidate Structure: Conf:883 Charge calc in gas phase
 ------------------------------------------------------
 Structure from the checkpoint file:  "conf-883.chk"
 Charge =  1 Multiplicity = 1

                          Input orientation:
 ---------------------------------------------------------------------
 Center     Atomic      Atomic             Coordinates (Angstroms)
 Number     Number       Type             X           Y           Z
 ---------------------------------------------------------------------
      1          7           0       -5.636483    1.307871    3.700070
      2          1           0       -6.451333    1.858823    3.420952
      3          1           0       -5.521139    0.457567    3.040918
      4          1           0       -5.757889    1.008322    4.670927
      5          6           0       -4.313558    2.012626    3.457157
      6          1           0       -4.525058    3.034146    3.134422
      7          6           0       -3.716503    1.167675    2.290730
      8          6           0       -3.456547    2.027778    4.743785
      9          1           0       -3.100775    1.011173    4.948718
     10          1           0       -4.108217    2.322886    5.577740
     11          8           0       -4.342041    0.131729    1.984514
     12          6           0       -2.300638    3.001997    4.650026
     13          6           0       -1.002993    2.561878    4.371872
     14          1           0       -0.805467    1.503577    4.228217
     15          6           0       -2.538994    4.375490    4.812929
     16          1           0       -3.542698    4.728028    5.045160
     17          6           0        0.041562    3.479489    4.244791
     18          1           0        1.032999    3.122918    3.988719
     19          6           0       -1.494586    5.290351    4.699820
     20          1           0       -1.687112    6.350290    4.838283
     21          6           0       -0.201694    4.841495    4.412551
     22          1           0        0.611567    5.554771    4.316908
     23          7           0       -2.606037    1.590909    1.715402
     24          1           0       -2.083850    2.391389    2.074008
     25          6           0       -1.885029    0.837034    0.679628
     26          1           0       -2.156681   -0.215850    0.780573
     27          6           0       -0.390487    1.057541    0.956097
     28          6           0       -2.200517    1.356510   -0.737403
     29          1           0       -1.966652    2.429055   -0.748592
     30          1           0       -1.483682    0.888762   -1.423414
     31          8           0       -0.009542    2.119144    1.458541
     32          6           0       -3.639773    1.118102   -1.225571
     33          1           0       -4.333113    1.556479   -0.490635
     34          6           0       -3.849428    1.844396   -2.562816
     35          1           0       -3.173707    1.443500   -3.328606
     36          1           0       -4.876166    1.716790   -2.924239
     37          1           0       -3.652162    2.919636   -2.472152
     38          6           0       -3.966882   -0.376083   -1.360614
     39          1           0       -3.255622   -0.868668   -2.035282
     40          1           0       -3.938248   -0.889640   -0.395043
     41          1           0       -4.971709   -0.516046   -1.775552
     42          7           0        0.395011    0.034835    0.591198
     43          1           0        0.002706   -0.776320    0.105037
     44          6           0        1.818343    0.190673    0.356300
     45          1           0        2.240749    0.807111    1.156020
     46          6           0        2.045233    0.907932   -1.010262
     47          6           0        2.473917   -1.211452    0.361105
     48          1           0        3.561483   -1.136938    0.299705
     49          1           0        2.223444   -1.707993    1.304126
     50          8           0        1.105864    1.310992   -1.693217
     51          6           0        1.907835   -2.066232   -0.777550
     52          7           0        2.792159   -2.465769   -1.706241
     53          1           0        2.423223   -2.973575   -2.500199
     54          1           0        3.726212   -2.031594   -1.786863
     55          8           0        0.697232   -2.338297   -0.806285
     56          7           0        3.348948    0.998227   -1.369436
     57          1           0        4.014724    0.401422   -0.874216
     58          6           0        3.762445    1.028028   -2.770389
     59          1           0        2.902371    0.733761   -3.386057
     60          6           0        4.890880   -0.068790   -2.949885
     61          6           0        4.211640    2.432734   -3.202535
     62          1           0        5.143505    2.687790   -2.676874
     63          1           0        3.444632    3.148556   -2.872516
     64          8           0        5.469904   -0.088771   -4.047543
     65          6           0        4.433427    2.536588   -4.715637
     66          1           0        5.119167    1.733619   -5.007701
     67          1           0        3.482235    2.334602   -5.234503
     68          6           0        5.012911    3.879550   -5.149530
     69          1           0        5.976241    4.055473   -4.663579
     70          1           0        5.185361    3.934717   -6.229809
     71          7           0        4.161412    5.040125   -4.780840
     72          1           0        4.277691    5.408083   -3.845115
     73          7           0        2.632182    4.741263   -6.504026
     74          1           0        1.996332    5.155274   -7.169922
     75          1           0        2.907682    3.779480   -6.645369
     76          7           0        2.456607    6.582502   -5.115117
     77          1           0        1.489745    6.732841   -5.364888
     78          1           0        2.868837    7.224381   -4.453469
     79          6           0        3.086614    5.437719   -5.452048
     80          8           0        5.065776   -0.823356   -1.940767
 ---------------------------------------------------------------------

 SCF Done:  E(RB3LYP) =  -1866.66140352     A.U. after    1 cycles

 Alpha  occ. eigenvalues --  -19.25743 -19.18522 -19.16141 -19.15267 -19.10698
 Alpha  occ. eigenvalues --  -19.09959 -14.58470 -14.51933 -14.51752 -14.51457
 Alpha  occ. eigenvalues --  -14.47976 -14.41379 -14.38374 -14.38021 -10.48013
 Alpha  occ. eigenvalues --  -10.42310 -10.39824 -10.35474 -10.33446 -10.33252
 Alpha  occ. eigenvalues --  -10.32844 -10.32769 -10.31551 -10.29914 -10.29057
 Alpha  occ. eigenvalues --  -10.28730 -10.28533 -10.28052 -10.27934 -10.27558
 Alpha  occ. eigenvalues --  -10.27408 -10.25818 -10.25644 -10.25404 -10.25200
 Alpha  occ. eigenvalues --  -10.24655 -10.24453 -10.23831 -10.23119  -1.18190
 Alpha  occ. eigenvalues --   -1.16453  -1.12336  -1.10431  -1.07612  -1.06621
 Alpha  occ. eigenvalues --   -1.05436  -1.04754  -1.04421  -1.03694  -0.98651
 Alpha  occ. eigenvalues --   -0.96329  -0.95689  -0.94519  -0.93256  -0.91665
 Alpha  occ. eigenvalues --   -0.88364  -0.88034  -0.85072  -0.84106  -0.83431
 Alpha  occ. eigenvalues --   -0.82066  -0.81109  -0.78595  -0.78418  -0.74415
 Alpha  occ. eigenvalues --   -0.74169  -0.73935  -0.73602  -0.72927  -0.72229
 Alpha  occ. eigenvalues --   -0.71617  -0.70319  -0.69625  -0.68914  -0.67354
 Alpha  occ. eigenvalues --   -0.66620  -0.65532  -0.65283  -0.64520  -0.64209
 Alpha  occ. eigenvalues --   -0.62602  -0.62177  -0.61827  -0.61023  -0.60129
 Alpha  occ. eigenvalues --   -0.59095  -0.58630  -0.58025  -0.57484  -0.56889
 Alpha  occ. eigenvalues --   -0.55979  -0.55703  -0.55275  -0.54704  -0.53965
 Alpha  occ. eigenvalues --   -0.53770  -0.53184  -0.52130  -0.51460  -0.51345
 Alpha  occ. eigenvalues --   -0.51082  -0.50916  -0.50515  -0.50449  -0.50038
 Alpha  occ. eigenvalues --   -0.49679  -0.49251  -0.48934  -0.47710  -0.47238
 Alpha  occ. eigenvalues --   -0.46615  -0.46527  -0.45443  -0.45026  -0.44598
 Alpha  occ. eigenvalues --   -0.44469  -0.44217  -0.43555  -0.43417  -0.43303
 Alpha  occ. eigenvalues --   -0.43121  -0.43017  -0.42672  -0.42339  -0.41823
 Alpha  occ. eigenvalues --   -0.41115  -0.40672  -0.40604  -0.40303  -0.39753
 Alpha  occ. eigenvalues --   -0.39598  -0.39263  -0.39204  -0.39011  -0.37299
 Alpha  occ. eigenvalues --   -0.37157  -0.34072  -0.33828  -0.32862  -0.31956
 Alpha  occ. eigenvalues --   -0.30700  -0.29944  -0.29486  -0.28886  -0.26181
 Alpha  occ. eigenvalues --   -0.25384  -0.23763
 Alpha virt. eigenvalues --   -0.12286  -0.11318  -0.10164  -0.09855  -0.09076
 Alpha virt. eigenvalues --   -0.08044  -0.05231  -0.04304  -0.04139  -0.03686
 Alpha virt. eigenvalues --   -0.02701  -0.02601  -0.02085  -0.01248  -0.00842

 Mulliken charges:
               1
     1  N   -0.767501
     2  H    0.411116
     3  H    0.438930
     4  H    0.409325
     5  C   -0.099305
     6  H    0.217626
     7  C    0.648613
     8  C   -0.385270
     9  H    0.191660
    10  H    0.175617
    11  O   -0.552102
    12  C    0.136381
    13  C   -0.184968
    14  H    0.148656
    15  C   -0.182480
    16  H    0.123605
    17  C   -0.089886
    18  H    0.165533
    19  C   -0.125761
    20  H    0.151339
    21  C   -0.128116
    22  H    0.153326
    23  N   -0.588716
    24  H    0.382790
    25  C   -0.101837
    26  H    0.193269
    27  C    0.638526
    28  C   -0.256229
    29  H    0.142665
    30  H    0.196614
    31  O   -0.561223
    32  C   -0.067485
    33  H    0.099600
    34  C   -0.443118
    35  H    0.153695
    36  H    0.146363
    37  H    0.132953
    38  C   -0.461251
    39  H    0.157802
    40  H    0.162550
    41  H    0.144407
    42  N   -0.603254
    43  H    0.381015
    44  C   -0.088850
    45  H    0.182725
    46  C    0.602254
    47  C   -0.389244
    48  H    0.191737
    49  H    0.179243
    50  O   -0.541386
    51  C    0.586273
    52  N   -0.761534
    53  H    0.334344
    54  H    0.413868
    55  O   -0.552913
    56  N   -0.601680
    57  H    0.351602
    58  C   -0.069131
    59  H    0.153919
    60  C    0.579895
    61  C   -0.254572
    62  H    0.139591
    63  H    0.116226
    64  O   -0.553500
    65  C   -0.295022
    66  H    0.245852
    67  H    0.116287
    68  C   -0.198655
    69  H    0.199642
    70  H    0.181614
    71  N   -0.571840
    72  H    0.367486
    73  N   -0.752916
    74  H    0.381305
    75  H    0.400449
    76  N   -0.762967
    77  H    0.380246
    78  H    0.380972
    79  C    0.817856
    80  O   -0.614653
 Sum of Mulliken charges =   1.00000

 Dipole moment (field-independent basis, Debye):
    X=            -14.9072    Y=             28.7412    Z=             -0.3554  Tot=             32.3791
 Quadrupole moment (field-independent basis, Debye-Ang):
   XX=           -143.1704   YY=            -88.6644   ZZ=            -70.1469
   XY=             33.6131   XZ=            -90.9342   YZ=            -85.2656

 Normal termination of Gaussian 16 at Fri Jun 17 19:10:47 2022.
