 Gaussian 16, Revision C.01,
 Gaussian 16:  ES64L-G16RevC.01  3-Jul-2019

 -------------------------------------------------------------------
 # B3LYP/6-31G* guess=read geom=check nosymm integral(ultrafinegrid)
 -------------------------------------------------------------------

 ------------------------------------------------------
 Candidate Structure: Conf:662 Charge calc in gas phase
 ------------------------------------------------------
 Structure from the checkpoint file:  "conf-662.chk"
 Charge =  1 Multiplicity = 1

                          Input orientation:
 ---------------------------------------------------------------------
 Center     Atomic      Atomic             Coordinates (Angstroms)
 Number     Number       Type             X           Y           Z
 ---------------------------------------------------------------------
      1          7           0       -3.974021   -2.028980    4.667948
      2          1           0       -4.959548   -2.267829    4.519875
      3          1           0       -3.382358   -2.636888    4.028278
      4          1           0       -3.743929   -2.183541    5.653664
      5          6           0       -3.623966   -0.637134    4.170004
      6          1           0       -4.522515   -0.021099    4.173306
      7          6           0       -3.113280   -0.932117    2.736419
      8          6           0       -2.532141   -0.054196    5.092695
      9          1           0       -2.967194    0.076143    6.092562
     10          1           0       -1.723824   -0.791435    5.176804
     11          8           0       -2.684636   -2.076075    2.514983
     12          6           0       -1.887188    1.269732    4.632630
     13          1           0       -1.342353    1.108345    3.691129
     14          1           0       -1.160679    1.582256    5.385887
     15          6           0       -2.882059    2.383018    4.394294
     16          8           0       -3.872131    2.281391    3.680400
     17          8           0       -2.561888    3.513561    5.026655
     18          7           0       -3.173276    0.068003    1.866830
     19          1           0       -3.556798    0.957337    2.187285
     20          6           0       -2.534612    0.001087    0.559073
     21          1           0       -2.872561   -0.914265    0.062627
     22          6           0       -1.000426   -0.044537    0.744846
     23          6           0       -2.947369    1.239796   -0.281478
     24          1           0       -2.469610    1.139578   -1.263712
     25          1           0       -2.509476    2.131811    0.184854
     26          8           0       -0.453777    0.373170    1.766642
     27          6           0       -4.430359    1.404502   -0.421422
     28          6           0       -5.195958    2.392954    0.151894
     29          1           0       -4.893247    3.224787    0.774106
     30          6           0       -5.336683    0.560293   -1.164449
     31          6           0       -6.640354    1.100004   -0.993873
     32          6           0       -5.177440   -0.584827   -1.966408
     33          1           0       -4.193374   -1.015330   -2.136756
     34          7           0       -6.521413    2.209753   -0.177852
     35          1           0       -7.269761    2.845281    0.053430
     36          6           0       -7.579927   -0.599565   -2.374481
     37          1           0       -8.435133   -1.063217   -2.857171
     38          6           0       -7.770439    0.532596   -1.591712
     39          1           0       -8.759037    0.962526   -1.455892
     40          6           0       -6.296232   -1.152590   -2.561533
     41          1           0       -6.183492   -2.032405   -3.188164
     42          7           0       -0.325067   -0.533507   -0.315497
     43          1           0       -0.794796   -0.859831   -1.157244
     44          6           0        1.120722   -0.519565   -0.427091
     45          1           0        1.508174    0.416578   -0.010924
     46          6           0        1.440120   -0.631652   -1.929603
     47          6           0        1.773938   -1.683445    0.373521
     48          1           0        1.536578   -1.496147    1.427899
     49          8           0        0.599639   -1.079150   -2.708848
     50          6           0        1.302506   -3.075251   -0.034646
     51          1           0        0.226437   -3.185822    0.131203
     52          1           0        1.810650   -3.835667    0.569388
     53          1           0        1.515407   -3.278868   -1.088847
     54          8           0        3.192852   -1.528381    0.174541
     55          1           0        3.882218   -1.989942   -1.601425
     56          7           0        2.694460   -0.261556   -2.284481
     57          1           0        3.296300    0.111423   -1.559850
     58          6           0        3.293985   -0.582985   -3.577996
     59          1           0        2.485932   -1.010865   -4.178168
     60          6           0        4.365876   -1.696739   -3.467614
     61          6           0        3.871514    0.658694   -4.282085
     62          1           0        4.390971    0.302733   -5.177397
     63          1           0        4.643000    1.102505   -3.637590
     64          8           0        5.054580   -1.984294   -4.414496
     65          6           0        2.831299    1.727141   -4.646393
     66          1           0        2.287854    2.046846   -3.746128
     67          1           0        3.358980    2.613856   -5.015578
     68          6           0        1.814106    1.279539   -5.714585
     69          1           0        2.339093    0.910216   -6.603871
     70          1           0        1.207854    0.445439   -5.343955
     71          7           0        0.890149    2.321029   -6.139352
     72          1           0        0.225163    2.605239   -5.429128
     73          7           0        0.324922    4.381718   -7.027380
     74          1           0        0.602878    5.078639   -7.710704
     75          1           0       -0.599007    4.016602   -7.239876
     76          7           0        2.416737    3.534223   -7.571645
     77          1           0        3.091173    2.804728   -7.342114
     78          6           0        1.308826    3.384516   -6.943709
     79          8           0        4.476957   -2.348288   -2.293905
     80          1           0       -3.224694    4.192685    4.790609
     81          1           0        3.659760   -2.114969    0.791120
 ---------------------------------------------------------------------

 SCF Done:  E(RB3LYP) =  -2053.91886604     A.U. after    1 cycles

 Alpha  occ. eigenvalues --  -19.32739 -19.27557 -19.27297 -19.26628 -19.24478
 Alpha  occ. eigenvalues --  -19.22752 -19.21833 -19.18634 -14.61259 -14.49750
 Alpha  occ. eigenvalues --  -14.46716 -14.46456 -14.45830 -14.39444 -14.37616
 Alpha  occ. eigenvalues --  -14.32233 -10.45738 -10.43872 -10.41526 -10.39851
 Alpha  occ. eigenvalues --  -10.38912 -10.37456 -10.36015 -10.35223 -10.34780
 Alpha  occ. eigenvalues --  -10.33826 -10.33098 -10.31728 -10.31166 -10.30842
 Alpha  occ. eigenvalues --  -10.30521 -10.30028 -10.27399 -10.27369 -10.26986
 Alpha  occ. eigenvalues --  -10.26703 -10.26649 -10.26591 -10.26054 -10.25729
 Alpha  occ. eigenvalues --  -10.25647 -10.24569  -1.23915  -1.19851  -1.15394
 Alpha  occ. eigenvalues --   -1.15054  -1.14747  -1.14496  -1.13652  -1.13096
 Alpha  occ. eigenvalues --   -1.07065  -1.06793  -1.06300  -1.03259  -1.02183
 Alpha  occ. eigenvalues --   -1.01411  -0.95860  -0.92837  -0.92002  -0.91124
 Alpha  occ. eigenvalues --   -0.88453  -0.88253  -0.87714  -0.86231  -0.85276
 Alpha  occ. eigenvalues --   -0.81739  -0.81452  -0.81132  -0.80227  -0.79111
 Alpha  occ. eigenvalues --   -0.76423  -0.75010  -0.74863  -0.73548  -0.73305
 Alpha  occ. eigenvalues --   -0.71798  -0.71360  -0.70275  -0.69503  -0.67763
 Alpha  occ. eigenvalues --   -0.67701  -0.67209  -0.66974  -0.66079  -0.64989
 Alpha  occ. eigenvalues --   -0.64466  -0.64219  -0.63010  -0.62057  -0.61939
 Alpha  occ. eigenvalues --   -0.61776  -0.60704  -0.60594  -0.60352  -0.59981
 Alpha  occ. eigenvalues --   -0.58784  -0.58470  -0.57618  -0.56920  -0.56720
 Alpha  occ. eigenvalues --   -0.56343  -0.55784  -0.55362  -0.54616  -0.54406
 Alpha  occ. eigenvalues --   -0.53896  -0.53579  -0.52956  -0.52718  -0.52269
 Alpha  occ. eigenvalues --   -0.52059  -0.51543  -0.51192  -0.51129  -0.50752
 Alpha  occ. eigenvalues --   -0.50554  -0.50338  -0.49643  -0.49495  -0.49176
 Alpha  occ. eigenvalues --   -0.49125  -0.48787  -0.48671  -0.48394  -0.48282
 Alpha  occ. eigenvalues --   -0.47560  -0.47141  -0.46440  -0.46278  -0.45657
 Alpha  occ. eigenvalues --   -0.44978  -0.44769  -0.44260  -0.44044  -0.43199
 Alpha  occ. eigenvalues --   -0.42941  -0.41846  -0.41487  -0.41276  -0.41219
 Alpha  occ. eigenvalues --   -0.40618  -0.40076  -0.39958  -0.39880  -0.39021
 Alpha  occ. eigenvalues --   -0.37143  -0.36593  -0.36455  -0.36152  -0.35463
 Alpha  occ. eigenvalues --   -0.35256  -0.31707  -0.30301  -0.29951  -0.29723
 Alpha  occ. eigenvalues --   -0.28744  -0.26711
 Alpha virt. eigenvalues --   -0.13472  -0.12797  -0.11436  -0.09460  -0.08734
 Alpha virt. eigenvalues --   -0.07657  -0.07200  -0.05311  -0.04667  -0.04605
 Alpha virt. eigenvalues --   -0.03628  -0.03297  -0.03192  -0.02089  -0.01348

 Mulliken charges:
               1
     1  N   -0.754023
     2  H    0.420426
     3  H    0.431331
     4  H    0.413040
     5  C   -0.117733
     6  H    0.233009
     7  C    0.652029
     8  C   -0.304508
     9  H    0.182645
    10  H    0.190500
    11  O   -0.550796
    12  C   -0.400949
    13  H    0.262272
    14  H    0.207816
    15  C    0.602331
    16  O   -0.494087
    17  O   -0.528231
    18  N   -0.599706
    19  H    0.393886
    20  C   -0.058007
    21  H    0.193686
    22  C    0.647147
    23  C   -0.403155
    24  H    0.181557
    25  H    0.165336
    26  O   -0.540535
    27  C    0.065927
    28  C   -0.004301
    29  H    0.159487
    30  C    0.087098
    31  C    0.308448
    32  C   -0.215794
    33  H    0.119786
    34  N   -0.686808
    35  H    0.339472
    36  C   -0.149971
    37  H    0.145082
    38  C   -0.160502
    39  H    0.139721
    40  C   -0.137919
    41  H    0.140460
    42  N   -0.620833
    43  H    0.365648
    44  C   -0.048601
    45  H    0.187572
    46  C    0.605975
    47  C    0.121999
    48  H    0.164072
    49  O   -0.528897
    50  C   -0.475149
    51  H    0.166741
    52  H    0.158973
    53  H    0.184590
    54  O   -0.645687
    55  H    0.444115
    56  N   -0.620952
    57  H    0.350673
    58  C   -0.093764
    59  H    0.222858
    60  C    0.596792
    61  C   -0.278597
    62  H    0.192405
    63  H    0.142708
    64  O   -0.436904
    65  C   -0.268307
    66  H    0.123654
    67  H    0.167701
    68  C   -0.166216
    69  H    0.165822
    70  H    0.159607
    71  N   -0.586758
    72  H    0.313333
    73  N   -0.754486
    74  H    0.338360
    75  H    0.317227
    76  N   -0.638578
    77  H    0.275332
    78  C    0.572400
    79  O   -0.605719
    80  H    0.431575
    81  H    0.423845
 Sum of Mulliken charges =   1.00000

 Dipole moment (field-independent basis, Debye):
    X=            -20.6178    Y=             -0.9475    Z=             22.6332  Tot=             30.6310
 Quadrupole moment (field-independent basis, Debye-Ang):
   XX=           -154.5478   YY=           -219.9463   ZZ=           -175.3329
   XY=             -1.5093   XZ=            -38.0338   YZ=            -16.8447

 Normal termination of Gaussian 16 at Thu May 26 18:14:12 2022.
