 Gaussian 16, Revision C.01,
 Gaussian 16:  ES64L-G16RevC.01  3-Jul-2019

 -------------------------------------------------------------------
 # B3LYP/6-31G* guess=read geom=check nosymm integral(ultrafinegrid)
 -------------------------------------------------------------------

 ------------------------------------------------------
 Candidate Structure: Conf:234 Charge calc in gas phase
 ------------------------------------------------------
 Structure from the checkpoint file:  "conf-234.chk"
 Charge =  1 Multiplicity = 1

                          Input orientation:
 ---------------------------------------------------------------------
 Center     Atomic      Atomic             Coordinates (Angstroms)
 Number     Number       Type             X           Y           Z
 ---------------------------------------------------------------------
      1          7           0       -5.940155    1.169466    2.634627
      2          1           0       -6.526536    1.978895    2.409618
      3          1           0       -5.851815    0.556074    1.769998
      4          1           0       -6.386332    0.652830    3.398740
      5          6           0       -4.492561    1.531822    2.921223
      6          1           0       -4.430190    2.621791    2.986184
      7          6           0       -3.757760    1.008990    1.651081
      8          6           0       -3.999215    0.874229    4.218134
      9          1           0       -4.125585   -0.213835    4.136831
     10          1           0       -2.921890    1.047758    4.296310
     11          8           0       -4.408631    0.316510    0.859038
     12          6           0       -4.684261    1.413911    5.486471
     13          1           0       -5.768282    1.259973    5.483721
     14          1           0       -4.502682    2.493146    5.575092
     15          6           0       -4.174539    0.746414    6.758657
     16          8           0       -4.880272    0.265747    7.607863
     17          8           0       -2.823324    0.774652    6.812300
     18          7           0       -2.472025    1.334798    1.514674
     19          1           0       -2.001417    1.893008    2.217612
     20          6           0       -1.668454    0.901842    0.362517
     21          1           0       -1.984873   -0.112214    0.099727
     22          6           0       -0.220628    0.858867    0.792966
     23          6           0       -1.909808    1.802618   -0.907751
     24          1           0       -1.423466    2.774262   -0.760819
     25          1           0       -2.992885    1.981318   -0.918661
     26          8           0        0.064600    1.434461    1.936664
     27          6           0       -1.461918    1.143078   -2.167637
     28          6           0       -0.516829    1.605112   -3.066970
     29          1           0        0.062720    2.519159   -3.041025
     30          6           0       -1.947481   -0.111349   -2.695208
     31          6           0       -1.230268   -0.346866   -3.899811
     32          6           0       -2.913281   -1.051577   -2.282747
     33          1           0       -3.520336   -0.883648   -1.395684
     34          7           0       -0.383757    0.726780   -4.101439
     35          1           0        0.206940    0.852669   -4.932060
     36          6           0       -2.364153   -2.411876   -4.231734
     37          1           0       -2.534554   -3.318604   -4.804885
     38          6           0       -1.416818   -1.497216   -4.675383
     39          1           0       -0.820654   -1.672495   -5.568310
     40          6           0       -3.110126   -2.189191   -3.055709
     41          1           0       -3.853933   -2.921170   -2.752684
     42          7           0        0.681809    0.305906    0.041058
     43          1           0        0.457097   -0.163742   -0.870950
     44          6           0        2.156967    0.362435    0.165415
     45          1           0        2.462965    1.402244    0.329911
     46          6           0        2.611516   -0.132599   -1.255413
     47          6           0        2.675446   -0.511308    1.329684
     48          1           0        2.315308   -1.535231    1.185605
     49          8           0        1.746202   -0.692990   -1.949953
     50          6           0        4.178034   -0.487213    1.554453
     51          1           0        4.767277   -0.871664    0.711229
     52          1           0        4.414186   -1.106248    2.428637
     53          1           0        4.525971    0.536399    1.744810
     54          8           0        2.009359   -0.010203    2.546880
     55          1           0        0.949966    1.038159    2.295174
     56          7           0        3.863979    0.124219   -1.586138
     57          1           0        4.605441    0.327117   -0.878139
     58          6           0        4.589391   -0.538765   -2.679524
     59          1           0        4.022293   -1.418688   -2.994030
     60          6           0        5.963051   -0.982900   -2.025475
     61          6           0        4.817118    0.417505   -3.866159
     62          1           0        5.581266    1.151186   -3.581516
     63          1           0        3.892490    0.989151   -4.037524
     64          8           0        6.693525   -1.693050   -2.722006
     65          6           0        5.261742   -0.306329   -5.151003
     66          1           0        5.729958    0.412094   -5.837475
     67          1           0        6.025760   -1.039758   -4.876394
     68          6           0        4.124016   -1.016897   -5.893315
     69          1           0        4.534216   -1.593355   -6.731486
     70          1           0        3.616649   -1.727625   -5.225295
     71          7           0        3.153023   -0.042113   -6.400538
     72          1           0        3.293890    0.901510   -6.064151
     73          7           0        0.997487    0.765265   -6.780840
     74          1           0        0.163728    0.494061   -7.297445
     75          1           0        1.442031    1.545682   -7.260573
     76          7           0        1.314893   -1.530045   -6.827320
     77          1           0        1.984854   -2.280224   -6.660861
     78          6           0        1.849718   -0.373469   -6.681106
     79          8           0        6.140949   -0.513057   -0.852883
     80          1           0       -2.558576    0.354328    7.654086
     81          1           0        2.684849    0.133932    3.229575
 ---------------------------------------------------------------------

 SCF Done:  E(RB3LYP) =  -2053.82942794     A.U. after    1 cycles

 Alpha  occ. eigenvalues --  -19.34419 -19.32474 -19.31061 -19.30652 -19.26692
 Alpha  occ. eigenvalues --  -19.20605 -19.10548 -19.09241 -14.63622 -14.54352
 Alpha  occ. eigenvalues --  -14.52576 -14.43996 -14.41815 -14.41345 -14.40491
 Alpha  occ. eigenvalues --  -14.34078 -10.47880 -10.47343 -10.45327 -10.45003
 Alpha  occ. eigenvalues --  -10.39562 -10.38177 -10.37559 -10.37232 -10.36412
 Alpha  occ. eigenvalues --  -10.36164 -10.33743 -10.32266 -10.30059 -10.28204
 Alpha  occ. eigenvalues --  -10.28153 -10.27056 -10.26735 -10.26567 -10.25699
 Alpha  occ. eigenvalues --  -10.25552 -10.25344 -10.24732 -10.24429 -10.24332
 Alpha  occ. eigenvalues --  -10.23032 -10.22291  -1.25091  -1.23454  -1.23270
 Alpha  occ. eigenvalues --   -1.17597  -1.16670  -1.14503  -1.12916  -1.10847
 Alpha  occ. eigenvalues --   -1.08709  -1.04690  -1.03567  -1.03357  -0.98923
 Alpha  occ. eigenvalues --   -0.98768  -0.94672  -0.94621  -0.94429  -0.91034
 Alpha  occ. eigenvalues --   -0.90453  -0.89829  -0.89637  -0.86819  -0.83625
 Alpha  occ. eigenvalues --   -0.83057  -0.82005  -0.80801  -0.79903  -0.78463
 Alpha  occ. eigenvalues --   -0.77714  -0.77540  -0.76665  -0.76315  -0.75363
 Alpha  occ. eigenvalues --   -0.74599  -0.74168  -0.72168  -0.71402  -0.69758
 Alpha  occ. eigenvalues --   -0.68805  -0.67634  -0.66354  -0.65718  -0.65065
 Alpha  occ. eigenvalues --   -0.64459  -0.64098  -0.63019  -0.62812  -0.62445
 Alpha  occ. eigenvalues --   -0.62238  -0.61873  -0.61510  -0.60907  -0.60469
 Alpha  occ. eigenvalues --   -0.60225  -0.59700  -0.59510  -0.58792  -0.58429
 Alpha  occ. eigenvalues --   -0.57046  -0.56779  -0.56176  -0.55626  -0.55395
 Alpha  occ. eigenvalues --   -0.55168  -0.54773  -0.53835  -0.53738  -0.53205
 Alpha  occ. eigenvalues --   -0.52507  -0.52336  -0.51686  -0.51600  -0.51373
 Alpha  occ. eigenvalues --   -0.51086  -0.50318  -0.49834  -0.49492  -0.49233
 Alpha  occ. eigenvalues --   -0.49053  -0.48480  -0.48348  -0.47983  -0.47674
 Alpha  occ. eigenvalues --   -0.47447  -0.46384  -0.45824  -0.45580  -0.45496
 Alpha  occ. eigenvalues --   -0.44547  -0.44500  -0.44145  -0.43374  -0.43009
 Alpha  occ. eigenvalues --   -0.42058  -0.41790  -0.41658  -0.40663  -0.40203
 Alpha  occ. eigenvalues --   -0.39960  -0.39841  -0.39186  -0.38633  -0.38176
 Alpha  occ. eigenvalues --   -0.36932  -0.35434  -0.34370  -0.33076  -0.32587
 Alpha  occ. eigenvalues --   -0.31843  -0.28989  -0.28182  -0.27515  -0.25608
 Alpha  occ. eigenvalues --   -0.25437  -0.23090
 Alpha virt. eigenvalues --   -0.16752  -0.16299  -0.14527  -0.12006  -0.09830
 Alpha virt. eigenvalues --   -0.08917  -0.08055  -0.06948  -0.06123  -0.04929
 Alpha virt. eigenvalues --   -0.04763  -0.04241  -0.04034  -0.03022  -0.02535

 Mulliken charges:
               1
     1  N   -0.758549
     2  H    0.425334
     3  H    0.443304
     4  H    0.422185
     5  C   -0.114882
     6  H    0.222323
     7  C    0.661610
     8  C   -0.313806
     9  H    0.196834
    10  H    0.216284
    11  O   -0.518214
    12  C   -0.367355
    13  H    0.174157
    14  H    0.202860
    15  C    0.585884
    16  O   -0.414205
    17  O   -0.563032
    18  N   -0.612534
    19  H    0.374995
    20  C   -0.071017
    21  H    0.240574
    22  C    0.641889
    23  C   -0.355011
    24  H    0.160985
    25  H    0.179237
    26  O   -0.618998
    27  C    0.009451
    28  C    0.018299
    29  H    0.152061
    30  C    0.076865
    31  C    0.290180
    32  C   -0.244111
    33  H    0.122038
    34  N   -0.690105
    35  H    0.402174
    36  C   -0.159995
    37  H    0.142725
    38  C   -0.160292
    39  H    0.201747
    40  C   -0.135653
    41  H    0.125332
    42  N   -0.584761
    43  H    0.435679
    44  C   -0.117216
    45  H    0.192128
    46  C    0.612408
    47  C    0.160050
    48  H    0.185967
    49  O   -0.548579
    50  C   -0.544622
    51  H    0.267519
    52  H    0.172280
    53  H    0.162841
    54  O   -0.692090
    55  H    0.479110
    56  N   -0.598017
    57  H    0.365919
    58  C   -0.096285
    59  H    0.168050
    60  C    0.594523
    61  C   -0.258680
    62  H    0.155781
    63  H    0.105591
    64  O   -0.542152
    65  C   -0.321402
    66  H    0.138331
    67  H    0.217206
    68  C   -0.129062
    69  H    0.165819
    70  H    0.156803
    71  N   -0.594175
    72  H    0.320829
    73  N   -0.795666
    74  H    0.349071
    75  H    0.328486
    76  N   -0.647401
    77  H    0.296422
    78  C    0.586630
    79  O   -0.615132
    80  H    0.437134
    81  H    0.439099
 Sum of Mulliken charges =   1.00000

 Dipole moment (field-independent basis, Debye):
    X=            -26.3159    Y=             13.4803    Z=             16.5299  Tot=             33.8745
 Quadrupole moment (field-independent basis, Debye-Ang):
   XX=           -206.4479   YY=           -224.9355   ZZ=           -164.6492
   XY=             -9.3802   XZ=            -40.8704   YZ=             -1.2921

 Normal termination of Gaussian 16 at Thu May 26 18:14:17 2022.
