 Gaussian 16, Revision C.01,
 Gaussian 16:  ES64L-G16RevC.01  3-Jul-2019

 -------------------------------------------------------------------
 # B3LYP/6-31G* guess=read geom=check nosymm integral(ultrafinegrid)
 -------------------------------------------------------------------

 ------------------------------------------------------
 Candidate Structure: Conf:617 Charge calc in gas phase
 ------------------------------------------------------
 Structure from the checkpoint file:  "conf-617.chk"
 Charge =  1 Multiplicity = 1

                          Input orientation:
 ---------------------------------------------------------------------
 Center     Atomic      Atomic             Coordinates (Angstroms)
 Number     Number       Type             X           Y           Z
 ---------------------------------------------------------------------
      1          7           0       -1.445263   -1.559539   -0.472341
      2          1           0       -1.882280   -1.356215   -1.382887
      3          1           0       -0.626725   -0.926553   -0.405487
      4          1           0       -1.189343   -2.560350   -0.351528
      5          6           0       -2.453411   -1.205680    0.587284
      6          1           0       -3.209086   -1.996334    0.541910
      7          6           0       -3.074888    0.121411    0.083173
      8          6           0       -1.812126   -1.152653    1.988272
      9          1           0       -1.351851   -0.171792    2.132007
     10          1           0       -2.624666   -1.243249    2.718682
     11          8           0       -2.990157    0.371936   -1.124937
     12          6           0       -0.724659   -2.210969    2.314015
     13          1           0       -0.511578   -2.168299    3.384140
     14          1           0        0.213324   -1.959618    1.800015
     15          6           0       -1.075827   -3.632519    1.926193
     16          8           0       -1.322642   -3.991219    0.779989
     17          8           0       -1.078886   -4.477057    2.955650
     18          7           0       -3.611722    0.964056    0.978268
     19          1           0       -3.754795    0.673990    1.937473
     20          6           0       -4.047584    2.326996    0.613711
     21          1           0       -4.368448    2.274456   -0.430222
     22          6           0       -2.810327    3.274184    0.731977
     23          6           0       -5.200617    2.803250    1.517480
     24          1           0       -5.592404    3.725128    1.070631
     25          1           0       -4.783577    3.104809    2.484419
     26          8           0       -2.779186    4.211618    1.515503
     27          6           0       -6.285380    1.785173    1.715127
     28          6           0       -6.650777    1.232916    2.920603
     29          1           0       -6.274271    1.440322    3.913997
     30          6           0       -7.147955    1.194879    0.717354
     31          6           0       -8.010786    0.290147    1.394647
     32          6           0       -7.288151    1.348050   -0.674542
     33          1           0       -6.660447    2.044377   -1.224887
     34          7           0       -7.674550    0.326334    2.734741
     35          1           0       -8.183359   -0.133469    3.474373
     36          6           0       -9.099617   -0.282091   -0.646235
     37          1           0       -9.852678   -0.840573   -1.194450
     38          6           0       -8.989145   -0.454998    0.727932
     39          1           0       -9.643448   -1.137535    1.263474
     40          6           0       -8.258311    0.611413   -1.340932
     41          1           0       -8.379030    0.728473   -2.413932
     42          7           0       -1.765333    2.884929   -0.057103
     43          1           0       -1.950019    2.110696   -0.687754
     44          6           0       -0.354308    3.203291    0.105873
     45          1           0       -0.054389    4.021504   -0.562441
     46          6           0        0.425080    1.931983   -0.274941
     47          6           0        0.070660    3.644784    1.547549
     48          1           0       -0.384326    4.621534    1.724315
     49          8           0       -0.092666    0.811187   -0.157631
     50          6           0       -0.290007    2.692886    2.684415
     51          1           0       -1.370931    2.613687    2.807536
     52          1           0        0.112539    3.091839    3.622404
     53          1           0        0.143944    1.701006    2.531327
     54          8           0        1.512752    3.786269    1.468891
     55          1           0        2.401979    1.872593    1.577000
     56          7           0        1.704411    2.079896   -0.667200
     57          1           0        2.107097    3.009491   -0.634291
     58          6           0        2.595557    0.916682   -0.690534
     59          1           0        2.249521    0.215565   -1.454300
     60          6           0        2.497715    0.158271    0.651203
     61          6           0        4.044032    1.340005   -0.989693
     62          1           0        4.670058    0.443858   -0.902908
     63          1           0        4.386317    2.033109   -0.207710
     64          8           0        2.454455   -1.048320    0.711690
     65          6           0        4.220593    1.977772   -2.374604
     66          1           0        3.912992    1.264056   -3.150924
     67          1           0        3.573918    2.856972   -2.477592
     68          6           0        5.668971    2.430170   -2.632757
     69          1           0        6.002292    3.069294   -1.808853
     70          1           0        6.343756    1.566732   -2.647764
     71          7           0        5.851734    3.149009   -3.892893
     72          1           0        5.854241    2.546982   -4.707974
     73          7           0        5.112958    5.186418   -3.000759
     74          1           0        4.757612    6.095409   -3.282000
     75          1           0        6.001313    5.288476   -2.516955
     76          7           0        4.697553    4.770275   -5.243295
     77          1           0        4.708798    4.036349   -5.954442
     78          6           0        5.197753    4.363914   -4.136452
     79          8           0        2.493549    0.913659    1.768838
     80          1           0       -1.275567   -5.372767    2.614686
     81          1           0        1.787371    4.418063    2.152092
 ---------------------------------------------------------------------

 SCF Done:  E(RB3LYP) =  -2053.92939246     A.U. after    1 cycles

 Alpha  occ. eigenvalues --  -19.32371 -19.28929 -19.28074 -19.27381 -19.25835
 Alpha  occ. eigenvalues --  -19.25151 -19.23437 -19.22178 -14.55723 -14.49356
 Alpha  occ. eigenvalues --  -14.49016 -14.46257 -14.45586 -14.41764 -14.40345
 Alpha  occ. eigenvalues --  -14.34678 -10.45448 -10.42648 -10.42187 -10.41946
 Alpha  occ. eigenvalues --  -10.39319 -10.39156 -10.36200 -10.35758 -10.35091
 Alpha  occ. eigenvalues --  -10.34205 -10.34127 -10.34081 -10.32936 -10.30276
 Alpha  occ. eigenvalues --  -10.30101 -10.29931 -10.29224 -10.28409 -10.28113
 Alpha  occ. eigenvalues --  -10.27889 -10.26442 -10.25878 -10.25831 -10.25736
 Alpha  occ. eigenvalues --  -10.25320 -10.24935  -1.23652  -1.19772  -1.17796
 Alpha  occ. eigenvalues --   -1.17191  -1.14646  -1.14582  -1.13936  -1.11463
 Alpha  occ. eigenvalues --   -1.10859  -1.05635  -1.05514  -1.05341  -1.03829
 Alpha  occ. eigenvalues --   -1.02952  -0.95288  -0.93867  -0.91245  -0.90990
 Alpha  occ. eigenvalues --   -0.90372  -0.89730  -0.88355  -0.86917  -0.84433
 Alpha  occ. eigenvalues --   -0.83879  -0.81761  -0.80602  -0.79527  -0.78788
 Alpha  occ. eigenvalues --   -0.75664  -0.75453  -0.73868  -0.72704  -0.72423
 Alpha  occ. eigenvalues --   -0.71639  -0.71348  -0.71008  -0.69806  -0.69440
 Alpha  occ. eigenvalues --   -0.69188  -0.66920  -0.66774  -0.66478  -0.66292
 Alpha  occ. eigenvalues --   -0.64993  -0.63469  -0.63051  -0.62826  -0.62243
 Alpha  occ. eigenvalues --   -0.61722  -0.61180  -0.60773  -0.60589  -0.60214
 Alpha  occ. eigenvalues --   -0.59637  -0.59158  -0.58953  -0.57709  -0.57017
 Alpha  occ. eigenvalues --   -0.56158  -0.55884  -0.55721  -0.55405  -0.55151
 Alpha  occ. eigenvalues --   -0.54442  -0.54255  -0.53951  -0.53371  -0.53241
 Alpha  occ. eigenvalues --   -0.52522  -0.52397  -0.51965  -0.51788  -0.51493
 Alpha  occ. eigenvalues --   -0.50928  -0.50809  -0.50368  -0.50164  -0.50071
 Alpha  occ. eigenvalues --   -0.50030  -0.49894  -0.49275  -0.48682  -0.48445
 Alpha  occ. eigenvalues --   -0.48410  -0.47890  -0.47751  -0.47186  -0.47016
 Alpha  occ. eigenvalues --   -0.46574  -0.46501  -0.45363  -0.45024  -0.44900
 Alpha  occ. eigenvalues --   -0.44531  -0.43303  -0.43081  -0.42328  -0.41281
 Alpha  occ. eigenvalues --   -0.41235  -0.40589  -0.40433  -0.40402  -0.40148
 Alpha  occ. eigenvalues --   -0.39755  -0.39334  -0.38897  -0.36580  -0.36005
 Alpha  occ. eigenvalues --   -0.35110  -0.34510  -0.32918  -0.32052  -0.29504
 Alpha  occ. eigenvalues --   -0.28989  -0.27903
 Alpha virt. eigenvalues --   -0.12485  -0.12041  -0.11897  -0.09134  -0.08424
 Alpha virt. eigenvalues --   -0.07947  -0.05758  -0.05250  -0.04851  -0.03780
 Alpha virt. eigenvalues --   -0.02917  -0.01752  -0.01520  -0.01367  -0.01274

 Mulliken charges:
               1
     1  N   -0.772883
     2  H    0.413182
     3  H    0.437135
     4  H    0.429871
     5  C   -0.112144
     6  H    0.229054
     7  C    0.673842
     8  C   -0.323661
     9  H    0.206345
    10  H    0.182284
    11  O   -0.550778
    12  C   -0.401800
    13  H    0.213766
    14  H    0.232922
    15  C    0.613348
    16  O   -0.493516
    17  O   -0.526525
    18  N   -0.593019
    19  H    0.345776
    20  C   -0.087413
    21  H    0.211374
    22  C    0.635314
    23  C   -0.386021
    24  H    0.189781
    25  H    0.171380
    26  O   -0.506435
    27  C    0.059113
    28  C   -0.021098
    29  H    0.155960
    30  C    0.085447
    31  C    0.306688
    32  C   -0.213268
    33  H    0.125259
    34  N   -0.685281
    35  H    0.338197
    36  C   -0.149912
    37  H    0.142176
    38  C   -0.161730
    39  H    0.137303
    40  C   -0.139033
    41  H    0.137204
    42  N   -0.646872
    43  H    0.379641
    44  C    0.004992
    45  H    0.189145
    46  C    0.595015
    47  C    0.088720
    48  H    0.201250
    49  O   -0.579495
    50  C   -0.483955
    51  H    0.169617
    52  H    0.165862
    53  H    0.171574
    54  O   -0.656706
    55  H    0.437869
    56  N   -0.599986
    57  H    0.367552
    58  C   -0.037726
    59  H    0.185076
    60  C    0.611935
    61  C   -0.318128
    62  H    0.185953
    63  H    0.151812
    64  O   -0.466784
    65  C   -0.271463
    66  H    0.145343
    67  H    0.167024
    68  C   -0.138026
    69  H    0.154530
    70  H    0.160078
    71  N   -0.578655
    72  H    0.316827
    73  N   -0.749504
    74  H    0.341782
    75  H    0.326393
    76  N   -0.620195
    77  H    0.268995
    78  C    0.540842
    79  O   -0.590974
    80  H    0.436150
    81  H    0.426289
 Sum of Mulliken charges =   1.00000

 Dipole moment (field-independent basis, Debye):
    X=             -4.4282    Y=             -0.8469    Z=              5.8236  Tot=              7.3648
 Quadrupole moment (field-independent basis, Debye-Ang):
   XX=           -158.4567   YY=           -208.7316   ZZ=           -217.9828
   XY=             36.4291   XZ=            -33.0874   YZ=              8.0678

 Normal termination of Gaussian 16 at Thu May 26 18:14:15 2022.
