 Gaussian 16, Revision C.01,
 Gaussian 16:  ES64L-G16RevC.01  3-Jul-2019

 -------------------------------------------------------------------
 # B3LYP/6-31G* guess=read geom=check nosymm integral(ultrafinegrid)
 -------------------------------------------------------------------

 ------------------------------------------------------
 Candidate Structure: Conf:549 Charge calc in gas phase
 ------------------------------------------------------
 Structure from the checkpoint file:  "conf-549.chk"
 Charge =  1 Multiplicity = 1

                          Input orientation:
 ---------------------------------------------------------------------
 Center     Atomic      Atomic             Coordinates (Angstroms)
 Number     Number       Type             X           Y           Z
 ---------------------------------------------------------------------
      1          7           0       -5.482007    1.799336    1.939983
      2          1           0       -5.646706    2.452268    1.143200
      3          1           0       -5.542825    0.826148    1.570252
      4          1           0       -6.186221    1.961454    2.664775
      5          6           0       -4.059106    1.916258    2.443400
      6          1           0       -3.768267    2.965235    2.348707
      7          6           0       -3.292041    1.001110    1.456516
      8          6           0       -3.939227    1.422309    3.890946
      9          1           0       -4.298750    0.386733    3.941888
     10          1           0       -2.873886    1.391579    4.140212
     11          8           0       -3.875853   -0.008449    1.055502
     12          6           0       -4.666465    2.309283    4.918073
     13          1           0       -5.743797    2.381152    4.733858
     14          1           0       -4.253315    3.325847    4.888585
     15          6           0       -4.530353    1.786629    6.341907
     16          8           0       -5.454203    1.573566    7.086743
     17          8           0       -3.231802    1.597105    6.667850
     18          7           0       -2.066015    1.398326    1.101843
     19          1           0       -1.615698    2.207167    1.524192
     20          6           0       -1.261631    0.754791    0.068518
     21          1           0       -1.515192   -0.308473    0.046515
     22          6           0        0.204401    1.004437    0.453470
     23          6           0       -1.522521    1.391421   -1.338667
     24          1           0       -0.860862    0.890515   -2.055286
     25          1           0       -1.195724    2.437743   -1.293252
     26          8           0        0.507102    2.004785    1.097488
     27          6           0       -2.947830    1.290445   -1.795826
     28          6           0       -3.473991    0.286201   -2.574104
     29          1           0       -2.971263   -0.533168   -3.079780
     30          6           0       -4.049744    2.151291   -1.440392
     31          6           0       -5.227603    1.580649   -2.010997
     32          6           0       -4.172346    3.347591   -0.710082
     33          1           0       -3.290740    3.847361   -0.316159
     34          7           0       -4.836799    0.456162   -2.698587
     35          1           0       -5.445721   -0.138371   -3.241171
     36          6           0       -6.592890    3.301935   -1.070511
     37          1           0       -7.562248    3.771098   -0.929735
     38          6           0       -6.498002    2.137092   -1.826979
     39          1           0       -7.381885    1.685060   -2.268256
     40          6           0       -5.437448    3.910922   -0.523911
     41          1           0       -5.532811    4.859938   -0.001896
     42          7           0        1.100107    0.095670   -0.014363
     43          1           0        0.748945   -0.650650   -0.603111
     44          6           0        2.537994    0.408069   -0.153668
     45          1           0        2.651483    1.485330   -0.023197
     46          6           0        2.915029    0.051811   -1.586753
     47          6           0        3.398333   -0.332094    0.897251
     48          1           0        4.449008   -0.137398    0.656020
     49          8           0        2.947601   -1.271939   -1.870462
     50          6           0        3.113792    0.091140    2.331106
     51          1           0        3.289946    1.162712    2.463622
     52          1           0        3.765390   -0.458800    3.016413
     53          1           0        2.069395   -0.107143    2.600640
     54          8           0        3.247502   -1.760198    0.733435
     55          1           0        2.468145   -2.041735    1.240500
     56          7           0        3.062952    0.960592   -2.463266
     57          1           0        3.833907    2.643147   -2.974795
     58          6           0        3.323501    0.561570   -3.848250
     59          1           0        3.918241   -0.358274   -3.894743
     60          6           0        4.128555    1.670013   -4.549161
     61          6           0        1.989806    0.326741   -4.611730
     62          1           0        1.567051    1.298229   -4.903140
     63          1           0        1.279710   -0.133951   -3.914756
     64          8           0        4.569416    1.541007   -5.667061
     65          6           0        2.158574   -0.584233   -5.831922
     66          1           0        2.989941   -0.222609   -6.446240
     67          1           0        2.440420   -1.583855   -5.477004
     68          6           0        0.906979   -0.665113   -6.728130
     69          1           0        0.807119    0.266815   -7.294865
     70          1           0        1.039249   -1.464018   -7.467358
     71          7           0       -0.375183   -0.872880   -6.060567
     72          1           0       -0.842119   -0.045478   -5.715551
     73          7           0       -2.053833   -1.968650   -4.887636
     74          1           0       -2.311350   -2.904638   -4.582734
     75          1           0       -2.728209   -1.651058   -5.582278
     76          7           0       -0.118577   -3.166563   -5.363289
     77          1           0        0.835800   -3.093489   -5.714621
     78          6           0       -0.751104   -2.056750   -5.456180
     79          8           0        4.267476    2.804596   -3.842549
     80          1           0       -3.210510    1.279136    7.591453
     81          1           0        3.067507   -1.773691   -1.025669
 ---------------------------------------------------------------------

 SCF Done:  E(RB3LYP) =  -2053.88989771     A.U. after    1 cycles

 Alpha  occ. eigenvalues --  -19.30448 -19.27284 -19.27127 -19.26667 -19.24716
 Alpha  occ. eigenvalues --  -19.24212 -19.23500 -19.17849 -14.59782 -14.50496
 Alpha  occ. eigenvalues --  -14.48952 -14.48623 -14.41856 -14.41428 -14.41255
 Alpha  occ. eigenvalues --  -14.34981 -10.44031 -10.43296 -10.41245 -10.41159
 Alpha  occ. eigenvalues --  -10.37932 -10.36372 -10.36367 -10.35120 -10.34972
 Alpha  occ. eigenvalues --  -10.34564 -10.34232 -10.33777 -10.33457 -10.32317
 Alpha  occ. eigenvalues --  -10.31455 -10.30834 -10.30621 -10.30391 -10.30342
 Alpha  occ. eigenvalues --  -10.30122 -10.29675 -10.29202 -10.28740 -10.27780
 Alpha  occ. eigenvalues --  -10.26403 -10.24691  -1.21285  -1.19287  -1.16962
 Alpha  occ. eigenvalues --   -1.16030  -1.14460  -1.13958  -1.13654  -1.12466
 Alpha  occ. eigenvalues --   -1.08963  -1.06990  -1.06249  -1.04682  -1.04095
 Alpha  occ. eigenvalues --   -1.00051  -0.95776  -0.95447  -0.95393  -0.92364
 Alpha  occ. eigenvalues --   -0.90566  -0.89715  -0.88616  -0.86708  -0.86173
 Alpha  occ. eigenvalues --   -0.85170  -0.83504  -0.82229  -0.79763  -0.79483
 Alpha  occ. eigenvalues --   -0.77623  -0.74383  -0.74104  -0.73792  -0.73554
 Alpha  occ. eigenvalues --   -0.72286  -0.72141  -0.71914  -0.70591  -0.70431
 Alpha  occ. eigenvalues --   -0.68797  -0.67912  -0.67540  -0.66551  -0.65251
 Alpha  occ. eigenvalues --   -0.64974  -0.64438  -0.63704  -0.63549  -0.61672
 Alpha  occ. eigenvalues --   -0.61304  -0.60890  -0.60108  -0.59720  -0.59472
 Alpha  occ. eigenvalues --   -0.59033  -0.58825  -0.58453  -0.58253  -0.58012
 Alpha  occ. eigenvalues --   -0.57277  -0.57216  -0.57070  -0.56490  -0.55128
 Alpha  occ. eigenvalues --   -0.54878  -0.54473  -0.54368  -0.53788  -0.53669
 Alpha  occ. eigenvalues --   -0.53080  -0.52982  -0.52554  -0.52059  -0.51872
 Alpha  occ. eigenvalues --   -0.51534  -0.51261  -0.50941  -0.49904  -0.49724
 Alpha  occ. eigenvalues --   -0.49682  -0.49342  -0.49107  -0.48891  -0.48631
 Alpha  occ. eigenvalues --   -0.48515  -0.48103  -0.47531  -0.47252  -0.46723
 Alpha  occ. eigenvalues --   -0.46223  -0.46153  -0.45294  -0.44877  -0.44178
 Alpha  occ. eigenvalues --   -0.43060  -0.42564  -0.42419  -0.41899  -0.41722
 Alpha  occ. eigenvalues --   -0.41392  -0.40629  -0.40303  -0.40104  -0.38977
 Alpha  occ. eigenvalues --   -0.38180  -0.38078  -0.37857  -0.36337  -0.35904
 Alpha  occ. eigenvalues --   -0.34905  -0.34157  -0.33523  -0.32613  -0.31438
 Alpha  occ. eigenvalues --   -0.31174  -0.29150
 Alpha virt. eigenvalues --   -0.13626  -0.12910  -0.10987  -0.10396  -0.09900
 Alpha virt. eigenvalues --   -0.09137  -0.07568  -0.06025  -0.05353  -0.04171
 Alpha virt. eigenvalues --   -0.03915  -0.03324  -0.02684  -0.02537  -0.02392

 Mulliken charges:
               1
     1  N   -0.761412
     2  H    0.419559
     3  H    0.423029
     4  H    0.406226
     5  C   -0.113312
     6  H    0.199681
     7  C    0.669258
     8  C   -0.298792
     9  H    0.193343
    10  H    0.216542
    11  O   -0.532502
    12  C   -0.368165
    13  H    0.168608
    14  H    0.198952
    15  C    0.581486
    16  O   -0.423024
    17  O   -0.559019
    18  N   -0.607080
    19  H    0.363829
    20  C   -0.068274
    21  H    0.191991
    22  C    0.634205
    23  C   -0.369260
    24  H    0.176778
    25  H    0.177562
    26  O   -0.523105
    27  C    0.063071
    28  C    0.006759
    29  H    0.220539
    30  C    0.082809
    31  C    0.323986
    32  C   -0.243343
    33  H    0.140751
    34  N   -0.689356
    35  H    0.346257
    36  C   -0.170237
    37  H    0.159003
    38  C   -0.162106
    39  H    0.158476
    40  C   -0.222358
    41  H    0.153161
    42  N   -0.625607
    43  H    0.347520
    44  C   -0.052906
    45  H    0.208115
    46  C    0.511324
    47  C    0.112400
    48  H    0.184848
    49  O   -0.625498
    50  C   -0.476545
    51  H    0.184055
    52  H    0.185144
    53  H    0.148312
    54  O   -0.637257
    55  H    0.411927
    56  N   -0.506652
    57  H    0.425588
    58  C   -0.079698
    59  H    0.189980
    60  C    0.599097
    61  C   -0.263565
    62  H    0.143011
    63  H    0.139323
    64  O   -0.455546
    65  C   -0.282156
    66  H    0.195485
    67  H    0.146971
    68  C   -0.163006
    69  H    0.162112
    70  H    0.171576
    71  N   -0.588685
    72  H    0.319026
    73  N   -0.771796
    74  H    0.336674
    75  H    0.319206
    76  N   -0.638436
    77  H    0.289284
    78  C    0.562280
    79  O   -0.572721
    80  H    0.432727
    81  H    0.449570
 Sum of Mulliken charges =   1.00000

 Dipole moment (field-independent basis, Debye):
    X=            -20.4640    Y=              5.4118    Z=              8.2780  Tot=             22.7286
 Quadrupole moment (field-independent basis, Debye-Ang):
   XX=           -144.7291   YY=           -238.2493   ZZ=           -209.6260
   XY=            -48.2102   XZ=             20.5761   YZ=             22.2124

 Normal termination of Gaussian 16 at Thu May 26 18:14:13 2022.
