 Gaussian 16, Revision C.01,
 Gaussian 16:  ES64L-G16RevC.01  3-Jul-2019

 -------------------------------------------------------------------
 # B3LYP/6-31G* guess=read geom=check nosymm integral(ultrafinegrid)
 -------------------------------------------------------------------

 ------------------------------------------------------
 Candidate Structure: Conf:472 Charge calc in gas phase
 ------------------------------------------------------
 Structure from the checkpoint file:  "conf-472.chk"
 Charge =  1 Multiplicity = 1

                          Input orientation:
 ---------------------------------------------------------------------
 Center     Atomic      Atomic             Coordinates (Angstroms)
 Number     Number       Type             X           Y           Z
 ---------------------------------------------------------------------
      1          7           0       -4.066736    1.956767    4.308216
      2          1           0       -5.070063    1.906380    4.108563
      3          1           0       -3.704554    0.971318    4.466443
      4          1           0       -3.922582    2.556057    5.125019
      5          6           0       -3.246224    2.367478    3.094807
      6          1           0       -3.866353    2.943585    2.412394
      7          6           0       -2.856605    0.984539    2.501699
      8          6           0       -2.056818    3.212328    3.604744
      9          1           0       -2.466137    4.170506    3.951357
     10          1           0       -1.624829    2.705826    4.477997
     11          8           0       -2.855100    0.013245    3.276828
     12          6           0       -0.909466    3.467246    2.615832
     13          1           0       -0.367150    2.529991    2.434717
     14          1           0       -0.193216    4.168527    3.052916
     15          6           0       -1.316508    3.965303    1.244221
     16          8           0       -2.441346    3.832775    0.776885
     17          8           0       -0.295064    4.483758    0.583094
     18          7           0       -2.600506    0.945232    1.199062
     19          1           0       -2.670684    1.822087    0.684743
     20          6           0       -2.047715   -0.222058    0.526824
     21          1           0       -2.534599   -1.108026    0.947605
     22          6           0       -0.518572   -0.269056    0.827021
     23          6           0       -2.270875   -0.179148   -1.014999
     24          1           0       -2.108614   -1.198541   -1.382619
     25          1           0       -1.470213    0.418683   -1.461580
     26          8           0        0.023670    0.566089    1.548060
     27          6           0       -3.597807    0.320948   -1.501832
     28          6           0       -4.762663   -0.387577   -1.678523
     29          1           0       -4.976764   -1.431415   -1.488166
     30          6           0       -3.864126    1.661846   -1.959569
     31          6           0       -5.208510    1.698575   -2.413807
     32          6           0       -3.082380    2.825360   -2.048062
     33          1           0       -2.068691    2.833921   -1.658704
     34          7           0       -5.736199    0.437210   -2.206330
     35          1           0       -6.650974    0.132845   -2.503150
     36          6           0       -4.968911    3.986099   -3.048036
     37          1           0       -5.379917    4.898546   -3.469894
     38          6           0       -5.774431    2.854332   -2.963009
     39          1           0       -6.801914    2.870385   -3.316249
     40          6           0       -3.635999    3.975322   -2.588556
     41          1           0       -3.047404    4.886733   -2.637410
     42          7           0        0.162554   -1.257442    0.204944
     43          1           0       -0.304625   -1.839848   -0.478372
     44          6           0        1.604199   -1.243938    0.014288
     45          1           0        2.081551   -0.829531    0.905673
     46          6           0        1.930814   -0.315703   -1.192903
     47          6           0        2.097312   -2.684927   -0.190117
     48          1           0        3.162163   -2.632273   -0.450222
     49          8           0        1.175814   -0.652462   -2.323162
     50          6           0        1.921598   -3.550460    1.054438
     51          1           0        2.523108   -3.162224    1.883123
     52          1           0        2.265508   -4.574233    0.859169
     53          1           0        0.874210   -3.584437    1.369495
     54          8           0        1.343059   -3.213814   -1.304955
     55          1           0        1.401016   -4.177095   -1.187474
     56          7           0        1.691539    1.085309   -0.943651
     57          1           0        1.967421    1.311697    0.009769
     58          6           0        2.563865    1.761284   -1.912835
     59          1           0        2.019445    1.828569   -2.859549
     60          6           0        3.712858    0.764161   -2.115083
     61          6           0        2.990368    3.166562   -1.466413
     62          1           0        3.636085    3.095325   -0.580606
     63          1           0        2.084586    3.699292   -1.156473
     64          8           0        4.768933    0.916822   -2.664991
     65          6           0        3.734690    3.961756   -2.552693
     66          1           0        4.117186    4.889907   -2.105486
     67          1           0        4.610206    3.389465   -2.879001
     68          6           0        2.907632    4.318766   -3.802318
     69          1           0        3.550614    4.826442   -4.529280
     70          1           0        2.549100    3.416754   -4.300541
     71          7           0        1.748755    5.195954   -3.548741
     72          1           0        2.026538    6.083077   -3.143100
     73          7           0        0.103065    3.533801   -3.534951
     74          1           0       -0.868074    3.348058   -3.313208
     75          1           0        0.294863    3.403592   -4.521451
     76          7           0       -0.154881    5.374528   -2.130076
     77          1           0        0.360730    6.224423   -1.884283
     78          6           0        0.545359    4.739716   -3.023211
     79          8           0        3.336376   -0.431958   -1.538350
     80          1           0       -0.486597    4.601232   -0.390400
     81          1           0        1.487582   -1.516910   -2.521288
 ---------------------------------------------------------------------

 SCF Done:  E(RB3LYP) =  -2053.91058768     A.U. after    1 cycles

 Alpha  occ. eigenvalues --  -19.27080 -19.26172 -19.25382 -19.25248 -19.23280
 Alpha  occ. eigenvalues --  -19.23179 -19.21469 -19.21130 -14.59162 -14.48010
 Alpha  occ. eigenvalues --  -14.45715 -14.45304 -14.43074 -14.42402 -14.41140
 Alpha  occ. eigenvalues --  -14.37670 -10.42066 -10.41588 -10.40488 -10.39161
 Alpha  occ. eigenvalues --  -10.38605 -10.38474 -10.37034 -10.34001 -10.33540
 Alpha  occ. eigenvalues --  -10.33316 -10.32558 -10.30109 -10.30070 -10.29908
 Alpha  occ. eigenvalues --  -10.29891 -10.29244 -10.28990 -10.26950 -10.26824
 Alpha  occ. eigenvalues --  -10.26347 -10.26015 -10.25915 -10.25811 -10.25663
 Alpha  occ. eigenvalues --  -10.25315 -10.24799  -1.19357  -1.18910  -1.17857
 Alpha  occ. eigenvalues --   -1.13665  -1.13034  -1.12623  -1.11949  -1.10232
 Alpha  occ. eigenvalues --   -1.08558  -1.05980  -1.05502  -1.04851  -1.02205
 Alpha  occ. eigenvalues --   -0.99180  -0.96689  -0.93196  -0.92874  -0.91124
 Alpha  occ. eigenvalues --   -0.89800  -0.87679  -0.86402  -0.85892  -0.83991
 Alpha  occ. eigenvalues --   -0.81865  -0.80726  -0.79651  -0.78845  -0.78153
 Alpha  occ. eigenvalues --   -0.75606  -0.74640  -0.72931  -0.72257  -0.71635
 Alpha  occ. eigenvalues --   -0.71293  -0.69664  -0.69430  -0.68979  -0.68482
 Alpha  occ. eigenvalues --   -0.68011  -0.67728  -0.66544  -0.65118  -0.65012
 Alpha  occ. eigenvalues --   -0.63213  -0.62905  -0.62340  -0.61753  -0.61200
 Alpha  occ. eigenvalues --   -0.60354  -0.59889  -0.59700  -0.58957  -0.58437
 Alpha  occ. eigenvalues --   -0.57875  -0.56419  -0.56380  -0.55817  -0.55701
 Alpha  occ. eigenvalues --   -0.55110  -0.54759  -0.54542  -0.54214  -0.54053
 Alpha  occ. eigenvalues --   -0.53416  -0.53007  -0.52449  -0.52407  -0.51839
 Alpha  occ. eigenvalues --   -0.51752  -0.51371  -0.51250  -0.50882  -0.50474
 Alpha  occ. eigenvalues --   -0.50345  -0.49876  -0.49727  -0.49370  -0.49032
 Alpha  occ. eigenvalues --   -0.48739  -0.48135  -0.47548  -0.47247  -0.46894
 Alpha  occ. eigenvalues --   -0.46615  -0.46384  -0.46199  -0.45902  -0.45662
 Alpha  occ. eigenvalues --   -0.45264  -0.45061  -0.44553  -0.43514  -0.42999
 Alpha  occ. eigenvalues --   -0.42276  -0.41749  -0.41114  -0.41027  -0.40458
 Alpha  occ. eigenvalues --   -0.40357  -0.39865  -0.39286  -0.38365  -0.37847
 Alpha  occ. eigenvalues --   -0.37114  -0.37057  -0.36407  -0.35856  -0.35569
 Alpha  occ. eigenvalues --   -0.34789  -0.34343  -0.33896  -0.31739  -0.30600
 Alpha  occ. eigenvalues --   -0.29543  -0.27810
 Alpha virt. eigenvalues --   -0.11307  -0.10039  -0.08868  -0.08223  -0.07466
 Alpha virt. eigenvalues --   -0.06482  -0.05267  -0.04620  -0.04328  -0.03086
 Alpha virt. eigenvalues --   -0.02204  -0.02099  -0.01561  -0.00186   0.00447

 Mulliken charges:
               1
     1  N   -0.756474
     2  H    0.414636
     3  H    0.427917
     4  H    0.410193
     5  C   -0.116765
     6  H    0.242662
     7  C    0.640064
     8  C   -0.292924
     9  H    0.179221
    10  H    0.172978
    11  O   -0.549277
    12  C   -0.401457
    13  H    0.258931
    14  H    0.197454
    15  C    0.606820
    16  O   -0.503782
    17  O   -0.585055
    18  N   -0.596363
    19  H    0.402813
    20  C   -0.062140
    21  H    0.193591
    22  C    0.664371
    23  C   -0.425701
    24  H    0.166551
    25  H    0.206848
    26  O   -0.539266
    27  C    0.072811
    28  C   -0.003092
    29  H    0.157620
    30  C    0.061141
    31  C    0.311093
    32  C   -0.219879
    33  H    0.127920
    34  N   -0.688655
    35  H    0.338668
    36  C   -0.152897
    37  H    0.140700
    38  C   -0.159959
    39  H    0.137491
    40  C   -0.153359
    41  H    0.158204
    42  N   -0.592346
    43  H    0.355227
    44  C   -0.046723
    45  H    0.179181
    46  C    0.582683
    47  C    0.108214
    48  H    0.179163
    49  O   -0.607053
    50  C   -0.487886
    51  H    0.173600
    52  H    0.161619
    53  H    0.169515
    54  O   -0.653382
    55  H    0.415634
    56  N   -0.578499
    57  H    0.323201
    58  C   -0.069615
    59  H    0.212316
    60  C    0.622042
    61  C   -0.304954
    62  H    0.148887
    63  H    0.167167
    64  O   -0.441334
    65  C   -0.281918
    66  H    0.140143
    67  H    0.192724
    68  C   -0.165704
    69  H    0.174241
    70  H    0.162138
    71  N   -0.574113
    72  H    0.320418
    73  N   -0.744807
    74  H    0.358264
    75  H    0.344064
    76  N   -0.708889
    77  H    0.284311
    78  C    0.601512
    79  O   -0.491495
    80  H    0.463434
    81  H    0.425366
 Sum of Mulliken charges =   1.00000

 Dipole moment (field-independent basis, Debye):
    X=            -12.9288    Y=              6.5452    Z=              8.2252  Tot=             16.6628
 Quadrupole moment (field-independent basis, Debye-Ang):
   XX=           -161.5739   YY=           -176.6296   ZZ=           -169.7398
   XY=            -12.2840   XZ=            -36.6798   YZ=             19.0051

 Normal termination of Gaussian 16 at Thu May 26 18:14:21 2022.
