 Gaussian 16, Revision C.01,
 Gaussian 16:  ES64L-G16RevC.01  3-Jul-2019

 -------------------------------------------------------------------
 # B3LYP/6-31G* guess=read geom=check nosymm integral(ultrafinegrid)
 -------------------------------------------------------------------

 ------------------------------------------------------
 Candidate Structure: Conf:205 Charge calc in gas phase
 ------------------------------------------------------
 Structure from the checkpoint file:  "conf-205.chk"
 Charge =  1 Multiplicity = 1

                          Input orientation:
 ---------------------------------------------------------------------
 Center     Atomic      Atomic             Coordinates (Angstroms)
 Number     Number       Type             X           Y           Z
 ---------------------------------------------------------------------
      1          7           0       -3.268232   -1.727870    3.611664
      2          1           0       -3.918902   -2.435937    3.254517
      3          1           0       -2.354422   -1.839038    3.100008
      4          1           0       -3.145679   -1.878003    4.618398
      5          6           0       -3.686520   -0.305950    3.270829
      6          1           0       -4.770305   -0.294815    3.128770
      7          6           0       -2.922838   -0.045995    1.946145
      8          6           0       -3.269015    0.623529    4.426770
      9          1           0       -3.794758    0.293403    5.331164
     10          1           0       -2.194872    0.510569    4.613917
     11          8           0       -1.917826   -0.731542    1.721500
     12          6           0       -3.598791    2.097327    4.152325
     13          1           0       -4.625461    2.223694    3.792204
     14          1           0       -2.941015    2.493383    3.369318
     15          6           0       -3.455824    3.025742    5.350158
     16          8           0       -3.971621    4.113691    5.410311
     17          8           0       -2.666108    2.503017    6.314976
     18          7           0       -3.384781    0.912047    1.138953
     19          1           0       -4.266884    1.380914    1.335756
     20          6           0       -2.755407    1.212417   -0.150103
     21          1           0       -2.851544    0.335981   -0.799711
     22          6           0       -1.276926    1.513608    0.026187
     23          6           0       -3.467438    2.428793   -0.824369
     24          1           0       -3.073578    2.499528   -1.843341
     25          1           0       -3.163628    3.342277   -0.300623
     26          8           0       -0.973461    2.329901    0.994283
     27          6           0       -4.962256    2.306496   -0.826114
     28          6           0       -5.751893    1.692404   -1.772097
     29          1           0       -5.475026    1.234144   -2.712287
     30          6           0       -5.853349    2.768762    0.214663
     31          6           0       -7.170095    2.386458   -0.164806
     32          6           0       -5.673790    3.486543    1.415910
     33          1           0       -4.692232    3.855247    1.705915
     34          7           0       -7.068614    1.732524   -1.376686
     35          1           0       -7.847334    1.408933   -1.932141
     36          6           0       -8.076831    3.371752    1.809557
     37          1           0       -8.926218    3.621371    2.437989
     38          6           0       -8.288987    2.681554    0.621588
     39          1           0       -9.289166    2.390915    0.313183
     40          6           0       -6.783555    3.775833    2.202491
     41          1           0       -6.653704    4.342185    3.120273
     42          7           0       -0.439390    1.009331   -0.823722
     43          1           0       -0.704779    0.231255   -1.509668
     44          6           0        0.999895    1.215514   -1.084941
     45          1           0        1.164226    2.246803   -1.419380
     46          6           0        1.202974    0.214011   -2.294476
     47          6           0        1.879784    0.935707    0.158750
     48          1           0        1.608798   -0.044571    0.561975
     49          8           0        0.234956   -0.546573   -2.537492
     50          6           0        3.382709    1.045735   -0.040005
     51          1           0        3.798418    0.330858   -0.758410
     52          1           0        3.873281    0.884653    0.925601
     53          1           0        3.656082    2.044043   -0.408720
     54          8           0        1.492860    1.891651    1.209636
     55          1           0        0.048921    2.319727    1.139315
     56          7           0        2.336694    0.284145   -2.942392
     57          1           0        3.216623    0.763787   -2.595657
     58          6           0        2.871295   -0.733056   -3.864154
     59          1           0        2.444455   -1.707192   -3.603866
     60          6           0        4.425198   -0.721373   -3.536703
     61          6           0        2.560768   -0.409536   -5.336109
     62          1           0        3.143361    0.473076   -5.635959
     63          1           0        1.499617   -0.136023   -5.424022
     64          8           0        4.756692    0.201033   -2.711796
     65          6           0        2.867519   -1.589580   -6.267823
     66          1           0        3.879292   -1.948575   -6.051189
     67          1           0        2.176022   -2.415163   -6.050127
     68          6           0        2.741426   -1.218204   -7.750471
     69          1           0        1.743011   -0.824119   -7.960419
     70          1           0        3.458091   -0.425817   -8.001191
     71          7           0        2.987348   -2.343694   -8.661942
     72          1           0        3.907435   -2.750409   -8.529871
     73          7           0        0.721693   -2.818384   -9.029036
     74          1           0        0.108124   -3.560324   -9.349423
     75          1           0        0.672386   -2.012117   -9.644811
     76          7           0        2.209086   -4.592707   -9.010343
     77          1           0        3.164606   -4.847889   -8.751546
     78          6           0        2.022029   -3.327696   -8.891287
     79          8           0        5.123248   -1.566538   -4.097543
     80          1           0       -2.607718    3.166169    7.030764
     81          1           0        2.151462    2.607248    1.221994
 ---------------------------------------------------------------------

 SCF Done:  E(RB3LYP) =  -2053.81719825     A.U. after    1 cycles

 Alpha  occ. eigenvalues --  -19.33940 -19.32167 -19.31036 -19.30958 -19.26015
 Alpha  occ. eigenvalues --  -19.21413 -19.10708 -19.09138 -14.64250 -14.54190
 Alpha  occ. eigenvalues --  -14.52136 -14.49816 -14.41784 -14.36523 -14.35801
 Alpha  occ. eigenvalues --  -14.29977 -10.47856 -10.47183 -10.44941 -10.44849
 Alpha  occ. eigenvalues --  -10.40336 -10.37886 -10.37651 -10.37591 -10.36652
 Alpha  occ. eigenvalues --  -10.35072 -10.34106 -10.34086 -10.33532 -10.30793
 Alpha  occ. eigenvalues --  -10.30567 -10.30322 -10.30094 -10.29421 -10.29420
 Alpha  occ. eigenvalues --  -10.29344 -10.28095 -10.27233 -10.25115 -10.24035
 Alpha  occ. eigenvalues --  -10.21683 -10.19855  -1.24794  -1.23384  -1.22843
 Alpha  occ. eigenvalues --   -1.18090  -1.17000  -1.13958  -1.13514  -1.10921
 Alpha  occ. eigenvalues --   -1.09722  -1.08470  -1.03665  -0.99002  -0.98873
 Alpha  occ. eigenvalues --   -0.98608  -0.95591  -0.94854  -0.94582  -0.91474
 Alpha  occ. eigenvalues --   -0.90510  -0.90188  -0.88887  -0.85662  -0.85130
 Alpha  occ. eigenvalues --   -0.84755  -0.83480  -0.82375  -0.81872  -0.80026
 Alpha  occ. eigenvalues --   -0.78185  -0.77647  -0.76209  -0.75947  -0.75826
 Alpha  occ. eigenvalues --   -0.74993  -0.73978  -0.73650  -0.71320  -0.70731
 Alpha  occ. eigenvalues --   -0.70233  -0.68958  -0.67898  -0.67208  -0.66066
 Alpha  occ. eigenvalues --   -0.65389  -0.64637  -0.63712  -0.62846  -0.62814
 Alpha  occ. eigenvalues --   -0.61841  -0.61661  -0.61335  -0.61081  -0.60487
 Alpha  occ. eigenvalues --   -0.60085  -0.59920  -0.59488  -0.59003  -0.58317
 Alpha  occ. eigenvalues --   -0.58024  -0.56587  -0.56006  -0.55997  -0.55811
 Alpha  occ. eigenvalues --   -0.55654  -0.55349  -0.54586  -0.54154  -0.53928
 Alpha  occ. eigenvalues --   -0.53131  -0.53055  -0.52881  -0.52199  -0.51573
 Alpha  occ. eigenvalues --   -0.51551  -0.51202  -0.50524  -0.50186  -0.49740
 Alpha  occ. eigenvalues --   -0.49413  -0.49165  -0.48280  -0.48013  -0.47055
 Alpha  occ. eigenvalues --   -0.46730  -0.46668  -0.45881  -0.45683  -0.45382
 Alpha  occ. eigenvalues --   -0.45037  -0.44732  -0.44604  -0.43949  -0.43778
 Alpha  occ. eigenvalues --   -0.43466  -0.42855  -0.42059  -0.41265  -0.39979
 Alpha  occ. eigenvalues --   -0.39768  -0.39756  -0.39341  -0.38010  -0.37658
 Alpha  occ. eigenvalues --   -0.36768  -0.36288  -0.35749  -0.33884  -0.32856
 Alpha  occ. eigenvalues --   -0.32186  -0.28069  -0.27262  -0.25828  -0.25502
 Alpha  occ. eigenvalues --   -0.24122  -0.22924
 Alpha virt. eigenvalues --   -0.17074  -0.16192  -0.14493  -0.12844  -0.11344
 Alpha virt. eigenvalues --   -0.09721  -0.09526  -0.07941  -0.07009  -0.06649
 Alpha virt. eigenvalues --   -0.05675  -0.05012  -0.04496  -0.03671  -0.02944

 Mulliken charges:
               1
     1  N   -0.749822
     2  H    0.426631
     3  H    0.438229
     4  H    0.424029
     5  C   -0.127207
     6  H    0.224420
     7  C    0.660599
     8  C   -0.287652
     9  H    0.192569
    10  H    0.201335
    11  O   -0.531045
    12  C   -0.402171
    13  H    0.200652
    14  H    0.214674
    15  C    0.593071
    16  O   -0.427873
    17  O   -0.566822
    18  N   -0.616594
    19  H    0.377189
    20  C   -0.015703
    21  H    0.208805
    22  C    0.638603
    23  C   -0.405249
    24  H    0.199186
    25  H    0.196706
    26  O   -0.594106
    27  C    0.040669
    28  C    0.016258
    29  H    0.183253
    30  C    0.046572
    31  C    0.317350
    32  C   -0.251281
    33  H    0.142496
    34  N   -0.680837
    35  H    0.352911
    36  C   -0.153342
    37  H    0.158306
    38  C   -0.154615
    39  H    0.156389
    40  C   -0.146659
    41  H    0.163134
    42  N   -0.599065
    43  H    0.416243
    44  C   -0.084596
    45  H    0.197147
    46  C    0.619060
    47  C    0.129108
    48  H    0.183520
    49  O   -0.576441
    50  C   -0.526659
    51  H    0.257175
    52  H    0.179620
    53  H    0.164258
    54  O   -0.675101
    55  H    0.475204
    56  N   -0.603937
    57  H    0.380443
    58  C   -0.087381
    59  H    0.160955
    60  C    0.592576
    61  C   -0.254880
    62  H    0.139664
    63  H    0.127640
    64  O   -0.623154
    65  C   -0.278480
    66  H    0.189815
    67  H    0.142434
    68  C   -0.143462
    69  H    0.144911
    70  H    0.145793
    71  N   -0.584707
    72  H    0.313953
    73  N   -0.737752
    74  H    0.330760
    75  H    0.316676
    76  N   -0.640579
    77  H    0.264369
    78  C    0.548638
    79  O   -0.536941
    80  H    0.435122
    81  H    0.434994
 Sum of Mulliken charges =   1.00000

 Dipole moment (field-independent basis, Debye):
    X=            -30.6917    Y=              6.6570    Z=             22.3677  Tot=             38.5566
 Quadrupole moment (field-independent basis, Debye-Ang):
   XX=           -165.0901   YY=           -242.5865   ZZ=           -201.2877
   XY=             26.0678   XZ=              1.8680   YZ=            -52.5383

 Normal termination of Gaussian 16 at Thu May 26 18:14:12 2022.
