 Gaussian 16, Revision C.01,
 Gaussian 16:  ES64L-G16RevC.01  3-Jul-2019

 -------------------------------------------------------------------
 # B3LYP/6-31G* guess=read geom=check nosymm integral(ultrafinegrid)
 -------------------------------------------------------------------

 ------------------------------------------------------
 Candidate Structure: Conf:879 Charge calc in gas phase
 ------------------------------------------------------
 Structure from the checkpoint file:  "conf-879.chk"
 Charge =  1 Multiplicity = 1

                          Input orientation:
 ---------------------------------------------------------------------
 Center     Atomic      Atomic             Coordinates (Angstroms)
 Number     Number       Type             X           Y           Z
 ---------------------------------------------------------------------
      1          7           0       -3.629475    3.245382    3.396290
      2          1           0       -4.623880    3.464505    3.289924
      3          1           0       -3.516172    2.190861    3.434462
      4          1           0       -3.285701    3.687220    4.253173
      5          6           0       -2.802863    3.607301    2.175511
      6          1           0       -3.367622    4.335373    1.587374
      7          6           0       -2.677624    2.239814    1.452851
      8          6           0       -1.449414    4.188213    2.628601
      9          1           0       -1.651162    4.922439    3.421072
     10          1           0       -0.823839    3.393918    3.048109
     11          8           0       -2.925602    1.224224    2.112951
     12          6           0       -0.666003    4.889543    1.509538
     13          1           0       -1.247619    5.697473    1.057227
     14          1           0       -0.379627    4.153051    0.752628
     15          6           0        0.641403    5.436109    2.087386
     16          8           0        1.495111    4.667461    2.510355
     17          8           0        0.696867    6.750685    2.094640
     18          7           0       -2.337251    2.245868    0.157835
     19          1           0       -2.031031    3.125567   -0.239213
     20          6           0       -1.845039    1.031347   -0.498221
     21          1           0       -2.363241    0.203207   -0.009072
     22          6           0       -0.333875    0.891648   -0.148165
     23          6           0       -2.210916    1.030012   -2.010672
     24          1           0       -1.442430    1.565423   -2.580556
     25          1           0       -3.133910    1.612703   -2.110554
     26          8           0        0.183856    1.661643    0.663250
     27          6           0       -2.435513   -0.344344   -2.586388
     28          6           0       -3.539769   -1.135740   -2.363240
     29          1           0       -4.431018   -0.932818   -1.785476
     30          6           0       -1.556852   -1.106784   -3.446698
     31          6           0       -2.194574   -2.355664   -3.689736
     32          6           0       -0.309971   -0.855738   -4.053867
     33          1           0        0.219816    0.078026   -3.891339
     34          7           0       -3.395587   -2.339268   -3.013448
     35          1           0       -4.088019   -3.072160   -3.035401
     36          6           0       -0.381637   -3.079483   -5.056501
     37          1           0        0.093404   -3.828792   -5.682105
     38          6           0       -1.618255   -3.353009   -4.484114
     39          1           0       -2.121991   -4.299946   -4.655732
     40          6           0        0.262392   -1.843089   -4.846067
     41          1           0        1.222633   -1.657416   -5.318013
     42          7           0        0.315241   -0.148156   -0.718215
     43          1           0       -0.135424   -0.665207   -1.465298
     44          6           0        1.693905   -0.495696   -0.390283
     45          1           0        1.886145   -0.112538    0.616158
     46          6           0        2.693202    0.191437   -1.351626
     47          6           0        1.897278   -2.032574   -0.336384
     48          1           0        2.940187   -2.192933   -0.053505
     49          8           0        2.587081   -0.251013   -2.662355
     50          6           0        0.985350   -2.727098    0.669215
     51          1           0        1.127800   -2.320097    1.675768
     52          1           0        1.213797   -3.795978    0.692809
     53          1           0       -0.071853   -2.603138    0.405797
     54          8           0        1.796458   -2.636469   -1.638525
     55          1           0        0.864605   -2.766478   -1.883007
     56          7           0        2.600030    1.634804   -1.379807
     57          1           0        2.366472    1.974564   -0.447514
     58          6           0        3.976292    2.036427   -1.741832
     59          1           0        4.070941    1.925848   -2.830201
     60          6           0        4.848770    0.941232   -1.116837
     61          6           0        4.390488    3.458173   -1.365946
     62          1           0        3.795226    4.152437   -1.971518
     63          1           0        5.434123    3.576833   -1.684140
     64          8           0        6.027528    0.942488   -0.886449
     65          6           0        4.268247    3.839427    0.114071
     66          1           0        3.228377    3.753710    0.449678
     67          1           0        4.866527    3.158753    0.732380
     68          6           0        4.727453    5.284884    0.342989
     69          1           0        5.810128    5.366312    0.173907
     70          1           0        4.228757    5.924851   -0.397408
     71          7           0        4.371478    5.731325    1.693359
     72          1           0        3.900305    5.025788    2.249015
     73          7           0        4.103188    7.962825    1.055760
     74          1           0        3.909935    8.891052    1.391214
     75          1           0        4.849272    7.889535    0.390571
     76          7           0        3.119073    7.266727    3.003838
     77          1           0        3.126599    6.471927    3.643102
     78          6           0        3.867868    6.981303    1.961104
     79          8           0        4.029651   -0.119707   -0.842395
     80          1           0        1.610336    7.073000    2.495292
     81          1           0        2.548426   -1.232678   -2.627558
 ---------------------------------------------------------------------

 SCF Done:  E(RB3LYP) =  -2053.90020324     A.U. after    1 cycles

 Alpha  occ. eigenvalues --  -19.28031 -19.25237 -19.24828 -19.24821 -19.22615
 Alpha  occ. eigenvalues --  -19.22372 -19.21165 -19.20136 -14.61080 -14.50878
 Alpha  occ. eigenvalues --  -14.47051 -14.46561 -14.42556 -14.42466 -14.40689
 Alpha  occ. eigenvalues --  -14.35520 -10.44803 -10.41795 -10.39992 -10.39979
 Alpha  occ. eigenvalues --  -10.39851 -10.37584 -10.36518 -10.35499 -10.34193
 Alpha  occ. eigenvalues --  -10.33312 -10.32317 -10.31238 -10.30824 -10.30742
 Alpha  occ. eigenvalues --  -10.30568 -10.30037 -10.30007 -10.27953 -10.27420
 Alpha  occ. eigenvalues --  -10.27090 -10.26779 -10.26730 -10.26671 -10.26628
 Alpha  occ. eigenvalues --  -10.26447 -10.25996  -1.20588  -1.18286  -1.16640
 Alpha  occ. eigenvalues --   -1.15109  -1.14279  -1.12346  -1.11017  -1.08019
 Alpha  occ. eigenvalues --   -1.07434  -1.07333  -1.07007  -1.05959  -1.02865
 Alpha  occ. eigenvalues --   -0.98487  -0.96846  -0.94988  -0.92347  -0.91927
 Alpha  occ. eigenvalues --   -0.91076  -0.87880  -0.87231  -0.86476  -0.85086
 Alpha  occ. eigenvalues --   -0.82034  -0.81836  -0.80767  -0.79153  -0.78707
 Alpha  occ. eigenvalues --   -0.76875  -0.75159  -0.74165  -0.73367  -0.72561
 Alpha  occ. eigenvalues --   -0.71368  -0.71161  -0.70737  -0.69009  -0.68872
 Alpha  occ. eigenvalues --   -0.68022  -0.67743  -0.67593  -0.66199  -0.65396
 Alpha  occ. eigenvalues --   -0.64947  -0.64162  -0.63245  -0.62439  -0.62110
 Alpha  occ. eigenvalues --   -0.61438  -0.60349  -0.59587  -0.58974  -0.58237
 Alpha  occ. eigenvalues --   -0.57633  -0.57100  -0.56739  -0.56002  -0.55731
 Alpha  occ. eigenvalues --   -0.55558  -0.55381  -0.54947  -0.54428  -0.54154
 Alpha  occ. eigenvalues --   -0.54008  -0.53680  -0.53349  -0.53082  -0.52739
 Alpha  occ. eigenvalues --   -0.52585  -0.52513  -0.51532  -0.51143  -0.51112
 Alpha  occ. eigenvalues --   -0.50866  -0.50546  -0.50196  -0.49890  -0.49494
 Alpha  occ. eigenvalues --   -0.48852  -0.48517  -0.48355  -0.47551  -0.47154
 Alpha  occ. eigenvalues --   -0.46999  -0.46517  -0.46366  -0.46130  -0.45860
 Alpha  occ. eigenvalues --   -0.45239  -0.44116  -0.43491  -0.43115  -0.42614
 Alpha  occ. eigenvalues --   -0.42456  -0.42206  -0.41968  -0.41820  -0.41578
 Alpha  occ. eigenvalues --   -0.41403  -0.40466  -0.38752  -0.38299  -0.37997
 Alpha  occ. eigenvalues --   -0.36987  -0.36790  -0.36055  -0.35516  -0.35338
 Alpha  occ. eigenvalues --   -0.34873  -0.34229  -0.33560  -0.31130  -0.30856
 Alpha  occ. eigenvalues --   -0.29204  -0.29055
 Alpha virt. eigenvalues --   -0.13522  -0.11952  -0.09872  -0.08739  -0.07858
 Alpha virt. eigenvalues --   -0.06922  -0.06046  -0.05818  -0.05648  -0.03723
 Alpha virt. eigenvalues --   -0.03135  -0.02991  -0.02518  -0.01342  -0.00559

 Mulliken charges:
               1
     1  N   -0.753812
     2  H    0.418006
     3  H    0.435072
     4  H    0.417066
     5  C   -0.122617
     6  H    0.211818
     7  C    0.662499
     8  C   -0.300322
     9  H    0.173394
    10  H    0.224647
    11  O   -0.529824
    12  C   -0.359046
    13  H    0.171632
    14  H    0.195608
    15  C    0.570857
    16  O   -0.498364
    17  O   -0.584474
    18  N   -0.577885
    19  H    0.355030
    20  C   -0.086648
    21  H    0.216605
    22  C    0.641656
    23  C   -0.386637
    24  H    0.184989
    25  H    0.175059
    26  O   -0.536993
    27  C    0.040753
    28  C    0.012240
    29  H    0.158396
    30  C    0.035626
    31  C    0.313539
    32  C   -0.233070
    33  H    0.165152
    34  N   -0.679631
    35  H    0.343915
    36  C   -0.152562
    37  H    0.151798
    38  C   -0.164085
    39  H    0.145823
    40  C   -0.149777
    41  H    0.152603
    42  N   -0.611368
    43  H    0.354639
    44  C   -0.044843
    45  H    0.182846
    46  C    0.612603
    47  C    0.094119
    48  H    0.199382
    49  O   -0.631654
    50  C   -0.471323
    51  H    0.166567
    52  H    0.185195
    53  H    0.139964
    54  O   -0.636759
    55  H    0.408875
    56  N   -0.589926
    57  H    0.334037
    58  C   -0.092042
    59  H    0.205292
    60  C    0.629287
    61  C   -0.283497
    62  H    0.152541
    63  H    0.177466
    64  O   -0.451669
    65  C   -0.332888
    66  H    0.161364
    67  H    0.175997
    68  C   -0.129532
    69  H    0.168378
    70  H    0.153096
    71  N   -0.591653
    72  H    0.352737
    73  N   -0.731745
    74  H    0.360765
    75  H    0.348314
    76  N   -0.760723
    77  H    0.298467
    78  C    0.636820
    79  O   -0.489546
    80  H    0.455550
    81  H    0.436831
 Sum of Mulliken charges =   1.00000

 Dipole moment (field-independent basis, Debye):
    X=            -15.1939    Y=             11.3801    Z=              4.7679  Tot=             19.5728
 Quadrupole moment (field-independent basis, Debye-Ang):
   XX=           -180.1695   YY=           -155.1092   ZZ=           -202.8104
   XY=             -6.0899   XZ=            -32.7077   YZ=             32.2199

 Normal termination of Gaussian 16 at Thu May 26 18:14:16 2022.
