 Gaussian 16, Revision C.01,
 Gaussian 16:  ES64L-G16RevC.01  3-Jul-2019

 -------------------------------------------------------------------
 # B3LYP/6-31G* guess=read geom=check nosymm integral(ultrafinegrid)
 -------------------------------------------------------------------

 -----------------------------------------------------
 Candidate Structure: Conf:12 Charge calc in gas phase
 -----------------------------------------------------
 Structure from the checkpoint file:  "conf-12.chk"
 Charge =  1 Multiplicity = 1

                          Input orientation:
 ---------------------------------------------------------------------
 Center     Atomic      Atomic             Coordinates (Angstroms)
 Number     Number       Type             X           Y           Z
 ---------------------------------------------------------------------
      1          7           0       -5.616812   -0.717931    3.374656
      2          1           0       -6.091820    0.195385    3.195827
      3          1           0       -5.745375   -1.296714    2.519169
      4          1           0       -6.033361   -1.172160    4.193175
      5          6           0       -4.125355   -0.499300    3.478501
      6          1           0       -3.973494    0.408028    4.067922
      7          6           0       -3.719320   -0.338356    1.995004
      8          6           0       -3.403235   -1.715512    4.093234
      9          1           0       -3.861600   -1.992339    5.049126
     10          1           0       -3.531850   -2.564982    3.412756
     11          8           0       -4.291890   -1.050466    1.169488
     12          6           0       -1.894657   -1.408340    4.310315
     13          1           0       -1.747007   -0.963385    5.301710
     14          1           0       -1.509133   -0.699628    3.576834
     15          6           0       -0.996948   -2.625573    4.214388
     16          8           0       -0.025205   -2.716395    3.481092
     17          8           0       -1.376110   -3.604723    5.035957
     18          7           0       -2.750611    0.546659    1.761291
     19          1           0       -2.318315    1.054236    2.527080
     20          6           0       -2.111763    0.803983    0.472452
     21          1           0       -2.394067   -0.001654   -0.209063
     22          6           0       -0.610973    0.739747    0.820701
     23          6           0       -2.602709    2.164524   -0.101915
     24          1           0       -2.071360    2.358283   -1.040923
     25          1           0       -2.312965    2.961920    0.593691
     26          8           0       -0.228066    1.142930    1.914216
     27          6           0       -4.090006    2.136927   -0.338016
     28          6           0       -4.696526    1.862847   -1.541127
     29          1           0       -4.252776    1.732440   -2.519190
     30          6           0       -5.155860    2.222824    0.636642
     31          6           0       -6.375708    1.951778   -0.052708
     32          6           0       -5.221758    2.495977    2.015880
     33          1           0       -4.331412    2.796463    2.562455
     34          7           0       -6.058751    1.752799   -1.375306
     35          1           0       -6.721225    1.588646   -2.119410
     36          6           0       -7.638937    2.113407    1.968676
     37          1           0       -8.587694    2.094513    2.496961
     38          6           0       -7.613918    1.888590    0.597185
     39          1           0       -8.527525    1.677560    0.048870
     40          6           0       -6.451596    2.425903    2.675288
     41          1           0       -6.515591    2.705175    3.725002
     42          7           0        0.197846    0.066936   -0.061976
     43          1           0        0.008685    0.095619   -1.082215
     44          6           0        1.654616    0.065300    0.122838
     45          1           0        1.924080    0.755559    0.923964
     46          6           0        2.250995    0.457894   -1.265369
     47          6           0        2.157917   -1.373716    0.454673
     48          1           0        2.314388   -1.945848   -0.460751
     49          8           0        1.504711    0.315095   -2.248561
     50          6           0        3.305134   -1.504536    1.411662
     51          1           0        4.214914   -1.120868    0.901948
     52          1           0        3.489701   -2.555668    1.654534
     53          1           0        3.141250   -0.928827    2.329668
     54          8           0        0.915757   -2.151227    1.019043
     55          1           0        0.807070   -2.166543    2.012839
     56          7           0        3.520450    0.820835   -1.215401
     57          1           0        4.059547    0.688741   -0.328254
     58          6           0        4.543418    0.618514   -2.256513
     59          1           0        4.123455    0.004263   -3.058348
     60          6           0        5.668741   -0.210288   -1.491066
     61          6           0        5.046581    1.954753   -2.824986
     62          1           0        5.443051    2.555224   -1.994709
     63          1           0        4.179969    2.501123   -3.228723
     64          8           0        6.514733   -0.762911   -2.191182
     65          6           0        6.114555    1.798471   -3.916475
     66          1           0        7.014881    1.344573   -3.494073
     67          1           0        5.751744    1.099922   -4.683630
     68          6           0        6.464802    3.122125   -4.615006
     69          1           0        7.193376    2.926044   -5.406000
     70          1           0        5.574219    3.536242   -5.106615
     71          7           0        6.995689    4.184425   -3.750717
     72          1           0        6.308077    4.557564   -3.107471
     73          7           0        9.233385    3.534237   -3.979731
     74          1           0       10.148402    3.627856   -3.553313
     75          1           0        9.227412    3.865416   -4.938636
     76          7           0        8.595188    4.541650   -1.995579
     77          1           0        7.769144    4.801565   -1.451824
     78          6           0        8.262618    4.114961   -3.161457
     79          8           0        5.538257   -0.190416   -0.215324
     80          1           0       -0.752161   -4.352854    4.943336
     81          1           0        0.154250   -1.626397    0.633685
 ---------------------------------------------------------------------

 SCF Done:  E(RB3LYP) =  -2053.79834090     A.U. after    1 cycles

 Alpha  occ. eigenvalues --  -19.38909 -19.35518 -19.30934 -19.29095 -19.27434
 Alpha  occ. eigenvalues --  -19.19907 -19.10568 -19.09053 -14.62935 -14.53002
 Alpha  occ. eigenvalues --  -14.50460 -14.50260 -14.41092 -14.36327 -14.35000
 Alpha  occ. eigenvalues --  -14.29386 -10.49054 -10.46454 -10.44219 -10.44039
 Alpha  occ. eigenvalues --  -10.39536 -10.38572 -10.38459 -10.37002 -10.36753
 Alpha  occ. eigenvalues --  -10.35325 -10.34669 -10.34265 -10.33204 -10.32191
 Alpha  occ. eigenvalues --  -10.31674 -10.31625 -10.31488 -10.31468 -10.30913
 Alpha  occ. eigenvalues --  -10.28929 -10.27964 -10.27732 -10.24874 -10.23933
 Alpha  occ. eigenvalues --  -10.21427 -10.19620  -1.26904  -1.25227  -1.21854
 Alpha  occ. eigenvalues --   -1.19270  -1.17815  -1.16819  -1.11589  -1.10380
 Alpha  occ. eigenvalues --   -1.09806  -1.05916  -1.03364  -0.98762  -0.98528
 Alpha  occ. eigenvalues --   -0.98402  -0.96788  -0.94437  -0.94280  -0.91870
 Alpha  occ. eigenvalues --   -0.91383  -0.89722  -0.89223  -0.86438  -0.85165
 Alpha  occ. eigenvalues --   -0.85109  -0.83369  -0.82724  -0.81222  -0.79756
 Alpha  occ. eigenvalues --   -0.77656  -0.77093  -0.76961  -0.75985  -0.75104
 Alpha  occ. eigenvalues --   -0.74649  -0.74313  -0.72783  -0.72040  -0.71908
 Alpha  occ. eigenvalues --   -0.70500  -0.68911  -0.68325  -0.67381  -0.66762
 Alpha  occ. eigenvalues --   -0.66485  -0.65060  -0.64108  -0.63236  -0.63121
 Alpha  occ. eigenvalues --   -0.62661  -0.62146  -0.62001  -0.61957  -0.61489
 Alpha  occ. eigenvalues --   -0.60987  -0.59974  -0.59929  -0.59490  -0.58760
 Alpha  occ. eigenvalues --   -0.57590  -0.57036  -0.56644  -0.56285  -0.55760
 Alpha  occ. eigenvalues --   -0.55539  -0.55301  -0.54891  -0.54754  -0.54202
 Alpha  occ. eigenvalues --   -0.53679  -0.53526  -0.53341  -0.52593  -0.52392
 Alpha  occ. eigenvalues --   -0.51729  -0.51384  -0.50910  -0.50300  -0.50138
 Alpha  occ. eigenvalues --   -0.49888  -0.48629  -0.48343  -0.48231  -0.48000
 Alpha  occ. eigenvalues --   -0.47481  -0.47112  -0.46608  -0.46563  -0.46204
 Alpha  occ. eigenvalues --   -0.45888  -0.44592  -0.44406  -0.44039  -0.43653
 Alpha  occ. eigenvalues --   -0.42876  -0.42444  -0.41461  -0.41044  -0.40780
 Alpha  occ. eigenvalues --   -0.40190  -0.40033  -0.39468  -0.37719  -0.36859
 Alpha  occ. eigenvalues --   -0.36123  -0.35684  -0.35395  -0.34494  -0.32887
 Alpha  occ. eigenvalues --   -0.32207  -0.27423  -0.26570  -0.25594  -0.25363
 Alpha  occ. eigenvalues --   -0.23624  -0.22642
 Alpha virt. eigenvalues --   -0.15865  -0.15805  -0.14350  -0.13833  -0.12531
 Alpha virt. eigenvalues --   -0.10867  -0.09741  -0.08492  -0.07184  -0.06516
 Alpha virt. eigenvalues --   -0.06047  -0.05394  -0.04913  -0.03950  -0.03614

 Mulliken charges:
               1
     1  N   -0.750910
     2  H    0.415457
     3  H    0.425993
     4  H    0.412175
     5  C   -0.117141
     6  H    0.208180
     7  C    0.657375
     8  C   -0.294973
     9  H    0.196166
    10  H    0.201493
    11  O   -0.527187
    12  C   -0.375412
    13  H    0.223081
    14  H    0.189884
    15  C    0.606112
    16  O   -0.491521
    17  O   -0.526288
    18  N   -0.588396
    19  H    0.364654
    20  C   -0.078498
    21  H    0.201782
    22  C    0.609901
    23  C   -0.365319
    24  H    0.191688
    25  H    0.181580
    26  O   -0.497053
    27  C    0.065228
    28  C    0.027554
    29  H    0.186592
    30  C    0.092000
    31  C    0.327371
    32  C   -0.238508
    33  H    0.132927
    34  N   -0.678903
    35  H    0.354283
    36  C   -0.164113
    37  H    0.159993
    38  C   -0.152622
    39  H    0.162989
    40  C   -0.229884
    41  H    0.152710
    42  N   -0.700586
    43  H    0.383000
    44  C   -0.091698
    45  H    0.216890
    46  C    0.597897
    47  C    0.075420
    48  H    0.236403
    49  O   -0.553564
    50  C   -0.537097
    51  H    0.303653
    52  H    0.185218
    53  H    0.162607
    54  O   -0.656630
    55  H    0.493228
    56  N   -0.572274
    57  H    0.354587
    58  C   -0.095449
    59  H    0.158997
    60  C    0.588651
    61  C   -0.257590
    62  H    0.135719
    63  H    0.121544
    64  O   -0.530616
    65  C   -0.257772
    66  H    0.203393
    67  H    0.131032
    68  C   -0.146516
    69  H    0.152610
    70  H    0.131405
    71  N   -0.588497
    72  H    0.304065
    73  N   -0.731959
    74  H    0.337116
    75  H    0.318801
    76  N   -0.639162
    77  H    0.253353
    78  C    0.563227
    79  O   -0.619315
    80  H    0.446398
    81  H    0.453070
 Sum of Mulliken charges =   1.00000

 Dipole moment (field-independent basis, Debye):
    X=            -38.0903    Y=             -4.5994    Z=             18.2404  Tot=             42.4822
 Quadrupole moment (field-independent basis, Debye-Ang):
   XX=           -205.7330   YY=           -226.0417   ZZ=           -154.9650
   XY=             -5.6662   XZ=            -49.4939   YZ=            -40.5308

 Normal termination of Gaussian 16 at Thu May 26 18:14:16 2022.
