 Gaussian 16, Revision C.01,
 Gaussian 16:  ES64L-G16RevC.01  3-Jul-2019

 -------------------------------------------------------------------
 # B3LYP/6-31G* guess=read geom=check nosymm integral(ultrafinegrid)
 -------------------------------------------------------------------

 ------------------------------------------------------
 Candidate Structure: Conf:746 Charge calc in gas phase
 ------------------------------------------------------
 Structure from the checkpoint file:  "conf-746.chk"
 Charge =  1 Multiplicity = 1

                          Input orientation:
 ---------------------------------------------------------------------
 Center     Atomic      Atomic             Coordinates (Angstroms)
 Number     Number       Type             X           Y           Z
 ---------------------------------------------------------------------
      1          7           0       -5.871474    1.338682    3.922251
      2          1           0       -6.468135    1.753995    3.175284
      3          1           0       -5.850537    0.307758    3.774831
      4          1           0       -6.263454    1.566489    4.840589
      5          6           0       -4.427045    1.768745    3.770769
      6          1           0       -4.431529    2.806420    3.427968
      7          6           0       -3.913346    0.788763    2.686155
      8          6           0       -3.707202    1.612064    5.114586
      9          1           0       -4.232669    2.193292    5.881813
     10          1           0       -3.750827    0.561360    5.423953
     11          8           0       -4.338214   -0.368346    2.731469
     12          6           0       -2.247568    2.074591    5.070500
     13          1           0       -2.162628    3.107205    4.705408
     14          1           0       -1.638909    1.461116    4.397358
     15          6           0       -1.634843    2.026246    6.461183
     16          8           0       -2.252414    1.797703    7.476139
     17          8           0       -0.314340    2.281909    6.419277
     18          7           0       -3.084089    1.294052    1.768474
     19          1           0       -2.682393    2.226767    1.854159
     20          6           0       -2.596343    0.572194    0.598452
     21          1           0       -2.511032   -0.488344    0.851203
     22          6           0       -1.223043    1.195973    0.278893
     23          6           0       -3.556550    0.746269   -0.623485
     24          1           0       -3.129653    0.185018   -1.462675
     25          1           0       -3.539369    1.803559   -0.916288
     26          8           0       -0.942695    2.317061    0.709322
     27          6           0       -4.963499    0.293421   -0.360076
     28          6           0       -5.470248   -0.961475   -0.595752
     29          1           0       -5.000730   -1.816083   -1.064163
     30          6           0       -6.021858    1.039505    0.276579
     31          6           0       -7.133590    0.155738    0.419816
     32          6           0       -6.150643    2.359799    0.745792
     33          1           0       -5.344889    3.076380    0.607914
     34          7           0       -6.763595   -1.049592   -0.127863
     35          1           0       -7.358233   -1.860124   -0.219106
     36          6           0       -8.414681    1.845650    1.520498
     37          1           0       -9.334987    2.182474    1.988663
     38          6           0       -8.326800    0.542165    1.040572
     39          1           0       -9.161500   -0.146338    1.137971
     40          6           0       -7.337710    2.752332    1.368458
     41          1           0       -7.459454    3.782222    1.694618
     42          7           0       -0.418253    0.463473   -0.511970
     43          1           0       -0.696652   -0.443198   -0.883408
     44          6           0        0.819905    0.959732   -1.085076
     45          1           0        0.706960    2.021524   -1.326954
     46          6           0        1.063349    0.123297   -2.355757
     47          6           0        2.012513    0.833625   -0.092433
     48          1           0        1.793846    1.519537    0.735577
     49          8           0        0.521798   -0.972634   -2.488112
     50          6           0        2.254076   -0.576654    0.437181
     51          1           0        1.377927   -0.947320    0.978245
     52          1           0        3.097132   -0.572586    1.137400
     53          1           0        2.487716   -1.274648   -0.372126
     54          8           0        3.158789    1.321622   -0.819213
     55          1           0        3.771485   -0.007376   -2.157718
     56          7           0        1.925900    0.661650   -3.250361
     57          1           0        2.354063    1.549488   -3.014464
     58          6           0        2.540251   -0.125938   -4.319043
     59          1           0        1.768210   -0.767530   -4.749948
     60          6           0        3.635405   -1.078304   -3.784058
     61          6           0        3.102211    0.834976   -5.389106
     62          1           0        3.918166    1.422064   -4.949133
     63          1           0        2.300662    1.545743   -5.630959
     64          8           0        4.014370   -2.022906   -4.431969
     65          6           0        3.584189    0.150799   -6.675180
     66          1           0        4.289937   -0.649815   -6.429635
     67          1           0        2.732811   -0.335958   -7.170851
     68          6           0        4.243327    1.115084   -7.679717
     69          1           0        4.427893    0.570585   -8.613289
     70          1           0        3.566113    1.937076   -7.937602
     71          7           0        5.505963    1.693396   -7.246597
     72          1           0        6.242826    1.024012   -7.059895
     73          7           0        6.933004    3.109805   -6.108253
     74          1           0        7.017629    4.046330   -5.728342
     75          1           0        7.632420    2.941174   -6.824668
     76          7           0        4.705255    3.737029   -6.231371
     77          1           0        3.779204    3.410486   -6.505323
     78          6           0        5.617936    2.882079   -6.533892
     79          8           0        4.181796   -0.789566   -2.584434
     80          1           0        0.014924    2.253852    7.338558
     81          1           0        3.883940    1.470000   -0.191282
 ---------------------------------------------------------------------

 SCF Done:  E(RB3LYP) =  -2053.92320384     A.U. after    2 cycles

 Alpha  occ. eigenvalues --  -19.29553 -19.26308 -19.25905 -19.24466 -19.24175
 Alpha  occ. eigenvalues --  -19.23069 -19.21434 -19.18676 -14.59317 -14.49665
 Alpha  occ. eigenvalues --  -14.48817 -14.46922 -14.45263 -14.39673 -14.37965
 Alpha  occ. eigenvalues --  -14.32507 -10.43258 -10.42622 -10.40396 -10.40186
 Alpha  occ. eigenvalues --  -10.38409 -10.37334 -10.35568 -10.34504 -10.33771
 Alpha  occ. eigenvalues --  -10.33560 -10.33240 -10.32655 -10.32572 -10.32302
 Alpha  occ. eigenvalues --  -10.31095 -10.31015 -10.30521 -10.30357 -10.30095
 Alpha  occ. eigenvalues --  -10.30035 -10.29863 -10.29103 -10.27604 -10.26481
 Alpha  occ. eigenvalues --  -10.26200 -10.24394  -1.20623  -1.18525  -1.15326
 Alpha  occ. eigenvalues --   -1.15053  -1.13484  -1.13339  -1.12731  -1.11807
 Alpha  occ. eigenvalues --   -1.08863  -1.06992  -1.06183  -1.03451  -1.01826
 Alpha  occ. eigenvalues --   -1.01722  -0.95440  -0.94660  -0.93103  -0.91849
 Alpha  occ. eigenvalues --   -0.89091  -0.88057  -0.87675  -0.86284  -0.85731
 Alpha  occ. eigenvalues --   -0.84880  -0.83168  -0.81409  -0.79571  -0.79300
 Alpha  occ. eigenvalues --   -0.77113  -0.73607  -0.73415  -0.73218  -0.73101
 Alpha  occ. eigenvalues --   -0.72273  -0.71231  -0.70387  -0.69635  -0.69143
 Alpha  occ. eigenvalues --   -0.67836  -0.67583  -0.66819  -0.66587  -0.65421
 Alpha  occ. eigenvalues --   -0.64844  -0.64251  -0.63312  -0.62339  -0.61447
 Alpha  occ. eigenvalues --   -0.60487  -0.60188  -0.59824  -0.59176  -0.58916
 Alpha  occ. eigenvalues --   -0.58628  -0.58516  -0.58122  -0.57914  -0.56878
 Alpha  occ. eigenvalues --   -0.56467  -0.56227  -0.55438  -0.55152  -0.54820
 Alpha  occ. eigenvalues --   -0.54436  -0.54244  -0.53439  -0.53088  -0.52612
 Alpha  occ. eigenvalues --   -0.52202  -0.52100  -0.51869  -0.51337  -0.50761
 Alpha  occ. eigenvalues --   -0.50471  -0.50363  -0.50004  -0.49562  -0.49287
 Alpha  occ. eigenvalues --   -0.48932  -0.48503  -0.48493  -0.48138  -0.48108
 Alpha  occ. eigenvalues --   -0.47751  -0.47613  -0.47474  -0.46502  -0.46345
 Alpha  occ. eigenvalues --   -0.45738  -0.45137  -0.45019  -0.44600  -0.43904
 Alpha  occ. eigenvalues --   -0.43188  -0.42529  -0.41840  -0.41235  -0.40520
 Alpha  occ. eigenvalues --   -0.40471  -0.40324  -0.39625  -0.38761  -0.38512
 Alpha  occ. eigenvalues --   -0.37891  -0.37306  -0.36700  -0.36463  -0.36038
 Alpha  occ. eigenvalues --   -0.34875  -0.33919  -0.31579  -0.31245  -0.30444
 Alpha  occ. eigenvalues --   -0.29943  -0.26733
 Alpha virt. eigenvalues --   -0.12867  -0.12530  -0.09855  -0.09307  -0.09200
 Alpha virt. eigenvalues --   -0.08547  -0.07475  -0.05242  -0.04713  -0.03981
 Alpha virt. eigenvalues --   -0.03706  -0.02989  -0.01968  -0.01711  -0.01494

 Mulliken charges:
               1
     1  N   -0.760317
     2  H    0.420262
     3  H    0.422202
     4  H    0.405969
     5  C   -0.114314
     6  H    0.198360
     7  C    0.665497
     8  C   -0.282646
     9  H    0.187995
    10  H    0.197271
    11  O   -0.533737
    12  C   -0.380234
    13  H    0.195744
    14  H    0.202677
    15  C    0.595943
    16  O   -0.445170
    17  O   -0.557888
    18  N   -0.607253
    19  H    0.364618
    20  C   -0.064068
    21  H    0.194938
    22  C    0.631562
    23  C   -0.365997
    24  H    0.178093
    25  H    0.173502
    26  O   -0.540477
    27  C    0.084881
    28  C    0.027963
    29  H    0.179864
    30  C    0.076180
    31  C    0.324088
    32  C   -0.241403
    33  H    0.142563
    34  N   -0.681717
    35  H    0.350161
    36  C   -0.170645
    37  H    0.158813
    38  C   -0.162805
    39  H    0.158756
    40  C   -0.217919
    41  H    0.153484
    42  N   -0.622592
    43  H    0.365990
    44  C   -0.054132
    45  H    0.192859
    46  C    0.610856
    47  C    0.117757
    48  H    0.166536
    49  O   -0.527611
    50  C   -0.475709
    51  H    0.155179
    52  H    0.161174
    53  H    0.194290
    54  O   -0.645102
    55  H    0.441015
    56  N   -0.633329
    57  H    0.356867
    58  C   -0.054532
    59  H    0.204462
    60  C    0.606094
    61  C   -0.307744
    62  H    0.170872
    63  H    0.153126
    64  O   -0.440863
    65  C   -0.268667
    66  H    0.179041
    67  H    0.143951
    68  C   -0.156315
    69  H    0.163027
    70  H    0.154901
    71  N   -0.591169
    72  H    0.325784
    73  N   -0.750001
    74  H    0.336730
    75  H    0.321753
    76  N   -0.656337
    77  H    0.267154
    78  C    0.578761
    79  O   -0.603419
    80  H    0.429741
    81  H    0.424812
 Sum of Mulliken charges =   1.00000

 Dipole moment (field-independent basis, Debye):
    X=            -19.5915    Y=              7.0442    Z=             10.6159  Tot=             23.3697
 Quadrupole moment (field-independent basis, Debye-Ang):
   XX=            -72.6741   YY=           -242.3491   ZZ=           -163.5753
   XY=             -4.0856   XZ=            -67.9494   YZ=             24.1661

 Normal termination of Gaussian 16 at Thu May 26 18:14:25 2022.
