 Gaussian 16, Revision C.01,
 Gaussian 16:  ES64L-G16RevC.01  3-Jul-2019

 -------------------------------------------------------------------
 # B3LYP/6-31G* guess=read geom=check nosymm integral(ultrafinegrid)
 -------------------------------------------------------------------

 ------------------------------------------------------
 Candidate Structure: Conf:112 Charge calc in gas phase
 ------------------------------------------------------
 Structure from the checkpoint file:  "conf-112.chk"
 Charge =  1 Multiplicity = 1

                          Input orientation:
 ---------------------------------------------------------------------
 Center     Atomic      Atomic             Coordinates (Angstroms)
 Number     Number       Type             X           Y           Z
 ---------------------------------------------------------------------
      1          7           0       -3.848281   -1.533800   -0.441847
      2          1           0       -4.544221   -1.059388   -1.016259
      3          1           0       -2.317351   -2.140456   -2.168463
      4          1           0       -4.343260   -2.265719    0.066401
      5          6           0       -3.271414   -0.591570    0.528246
      6          1           0       -4.003063   -0.223992    1.268189
      7          6           0       -2.708935    0.607906   -0.245120
      8          6           0       -2.118205   -1.311468    1.274628
      9          1           0       -2.497365   -2.268012    1.650915
     10          1           0       -1.342651   -1.547987    0.537079
     11          8           0       -2.287385    0.496751   -1.396855
     12          6           0       -1.524828   -0.510305    2.454137
     13          1           0       -2.247711   -0.465060    3.277433
     14          1           0       -1.279929    0.511854    2.160404
     15          6           0       -0.242177   -1.123294    2.967683
     16          8           0        0.864657   -0.612522    2.875643
     17          8           0       -0.430968   -2.319891    3.532273
     18          7           0       -2.638205    1.793207    0.418986
     19          1           0       -3.056501    1.912064    1.336907
     20          6           0       -2.033624    2.975763   -0.195785
     21          1           0       -2.288458    2.963001   -1.259622
     22          6           0       -0.510273    2.805706   -0.089493
     23          6           0       -2.573145    4.282673    0.446104
     24          1           0       -3.526254    4.494945   -0.052078
     25          1           0       -1.896508    5.097453    0.169244
     26          8           0        0.090994    3.403980    0.890512
     27          6           0       -2.788729    4.256188    1.935212
     28          6           0       -1.947976    4.744418    2.908450
     29          1           0       -0.983727    5.221465    2.805098
     30          6           0       -3.953935    3.742551    2.624883
     31          6           0       -3.736996    3.944298    4.016930
     32          6           0       -5.164622    3.149428    2.210067
     33          1           0       -5.382951    3.011644    1.153402
     34          7           0       -2.505460    4.553207    4.151279
     35          1           0       -2.105328    4.874791    5.020218
     36          6           0       -5.849967    2.974170    4.543676
     37          1           0       -6.599560    2.673605    5.269399
     38          6           0       -4.672104    3.564733    4.985088
     39          1           0       -4.489905    3.732046    6.042940
     40          6           0       -6.095545    2.771618    3.169940
     41          1           0       -7.036583    2.327051    2.859256
     42          7           0        0.086785    2.007832   -0.937605
     43          1           0       -0.501439    1.522533   -1.637262
     44          6           0        1.505996    1.597066   -1.077435
     45          1           0        2.118877    2.492961   -1.234125
     46          6           0        1.483276    0.694496   -2.355912
     47          6           0        2.055993    0.808618    0.154753
     48          1           0        1.554933   -0.166739    0.184119
     49          8           0        0.352649    0.402973   -2.828965
     50          6           0        3.570583    0.635281    0.184481
     51          1           0        3.952119   -0.089253   -0.542654
     52          1           0        3.839935    0.271391    1.180961
     53          1           0        4.073891    1.598086    0.037787
     54          8           0        1.664669    1.537754    1.343388
     55          1           0        0.902269    2.834225    1.159230
     56          7           0        2.611868    0.190130   -2.804159
     57          1           0        3.554473    0.312365   -2.372855
     58          6           0        2.671708   -1.099703   -3.507187
     59          1           0        1.850176   -1.711725   -3.121689
     60          6           0        4.025616   -1.765008   -3.013451
     61          6           0        2.592471   -1.050522   -5.045577
     62          1           0        3.596900   -0.892283   -5.449823
     63          1           0        1.987736   -0.194064   -5.378961
     64          8           0        4.193632   -2.932500   -3.383400
     65          6           0        2.019008   -2.368939   -5.604782
     66          1           0        2.436985   -2.566705   -6.598630
     67          1           0        2.353695   -3.182894   -4.954087
     68          6           0        0.487395   -2.371259   -5.789334
     69          1           0        0.211097   -1.753076   -6.651513
     70          1           0        0.147385   -3.387176   -6.008053
     71          7           0       -0.259406   -1.843872   -4.631458
     72          1           0        0.039142   -0.932843   -4.271119
     73          7           0       -1.672319   -3.668634   -4.181596
     74          1           0       -2.043966   -4.256126   -3.449219
     75          1           0       -1.382886   -4.141610   -5.023808
     76          7           0       -1.440786   -1.939913   -2.654717
     77          1           0       -1.087025   -1.007931   -2.453339
     78          6           0       -1.112293   -2.487568   -3.836788
     79          8           0        4.742861   -0.993910   -2.309349
     80          1           0        0.438501   -2.658097    3.825142
     81          1           0        1.405552    0.888208    2.037789
 ---------------------------------------------------------------------

 SCF Done:  E(RB3LYP) =  -2053.91591471     A.U. after    1 cycles

 Alpha  occ. eigenvalues --  -19.32856 -19.32130 -19.28168 -19.27356 -19.25454
 Alpha  occ. eigenvalues --  -19.23856 -19.12373 -19.11168 -14.52291 -14.50042
 Alpha  occ. eigenvalues --  -14.49209 -14.48144 -14.47844 -14.46707 -14.45318
 Alpha  occ. eigenvalues --  -14.44495 -10.46371 -10.45310 -10.44736 -10.42368
 Alpha  occ. eigenvalues --  -10.40345 -10.37906 -10.37327 -10.36820 -10.36072
 Alpha  occ. eigenvalues --  -10.32923 -10.32780 -10.32564 -10.31952 -10.31665
 Alpha  occ. eigenvalues --  -10.31534 -10.30151 -10.28612 -10.28493 -10.28321
 Alpha  occ. eigenvalues --  -10.28183 -10.28043 -10.27558 -10.27459 -10.26025
 Alpha  occ. eigenvalues --  -10.25739 -10.25684  -1.24012  -1.23419  -1.17594
 Alpha  occ. eigenvalues --   -1.15334  -1.14913  -1.14024  -1.13069  -1.08937
 Alpha  occ. eigenvalues --   -1.07794  -1.06187  -1.05591  -1.02679  -1.02147
 Alpha  occ. eigenvalues --   -1.01233  -1.00795  -0.96774  -0.93487  -0.92984
 Alpha  occ. eigenvalues --   -0.91953  -0.90621  -0.87795  -0.87369  -0.84147
 Alpha  occ. eigenvalues --   -0.83587  -0.82959  -0.82152  -0.81238  -0.78495
 Alpha  occ. eigenvalues --   -0.77544  -0.76362  -0.74785  -0.74165  -0.73472
 Alpha  occ. eigenvalues --   -0.72875  -0.71765  -0.71661  -0.70645  -0.70402
 Alpha  occ. eigenvalues --   -0.69308  -0.68655  -0.66824  -0.66458  -0.65583
 Alpha  occ. eigenvalues --   -0.65474  -0.65121  -0.64675  -0.63805  -0.62884
 Alpha  occ. eigenvalues --   -0.62220  -0.62069  -0.61313  -0.60904  -0.60495
 Alpha  occ. eigenvalues --   -0.60015  -0.59225  -0.58717  -0.58424  -0.58125
 Alpha  occ. eigenvalues --   -0.57604  -0.56901  -0.56471  -0.56314  -0.55814
 Alpha  occ. eigenvalues --   -0.55315  -0.54473  -0.53975  -0.53700  -0.53514
 Alpha  occ. eigenvalues --   -0.53352  -0.53083  -0.52961  -0.52553  -0.52404
 Alpha  occ. eigenvalues --   -0.51702  -0.51562  -0.51116  -0.50795  -0.50656
 Alpha  occ. eigenvalues --   -0.50396  -0.49678  -0.49381  -0.48994  -0.48608
 Alpha  occ. eigenvalues --   -0.48435  -0.47899  -0.47292  -0.47187  -0.46123
 Alpha  occ. eigenvalues --   -0.45695  -0.44806  -0.44692  -0.44499  -0.43344
 Alpha  occ. eigenvalues --   -0.43056  -0.42874  -0.42774  -0.42679  -0.41540
 Alpha  occ. eigenvalues --   -0.41230  -0.40878  -0.40243  -0.39954  -0.39748
 Alpha  occ. eigenvalues --   -0.39440  -0.39047  -0.38455  -0.37991  -0.37205
 Alpha  occ. eigenvalues --   -0.36836  -0.35315  -0.31882  -0.30107  -0.27349
 Alpha  occ. eigenvalues --   -0.27325  -0.25240
 Alpha virt. eigenvalues --   -0.16131  -0.12294  -0.11627  -0.10733  -0.09538
 Alpha virt. eigenvalues --   -0.09038  -0.07169  -0.05472  -0.04805  -0.04305
 Alpha virt. eigenvalues --   -0.03907  -0.02836  -0.01870  -0.01342  -0.01293

 Mulliken charges:
               1
     1  N   -0.735764
     2  H    0.328505
     3  H    0.377688
     4  H    0.325469
     5  C   -0.058324
     6  H    0.155373
     7  C    0.610742
     8  C   -0.280993
     9  H    0.185054
    10  H    0.175463
    11  O   -0.531300
    12  C   -0.363248
    13  H    0.200429
    14  H    0.166709
    15  C    0.596592
    16  O   -0.487098
    17  O   -0.531244
    18  N   -0.617584
    19  H    0.369667
    20  C   -0.037469
    21  H    0.205657
    22  C    0.620117
    23  C   -0.382245
    24  H    0.187020
    25  H    0.186965
    26  O   -0.570267
    27  C    0.033397
    28  C    0.024791
    29  H    0.173531
    30  C    0.048383
    31  C    0.316349
    32  C   -0.232849
    33  H    0.126291
    34  N   -0.683514
    35  H    0.346352
    36  C   -0.152028
    37  H    0.150585
    38  C   -0.157191
    39  H    0.148603
    40  C   -0.136758
    41  H    0.141137
    42  N   -0.599930
    43  H    0.445210
    44  C   -0.096055
    45  H    0.210460
    46  C    0.608424
    47  C    0.136337
    48  H    0.153858
    49  O   -0.602148
    50  C   -0.498168
    51  H    0.240477
    52  H    0.173712
    53  H    0.159276
    54  O   -0.717936
    55  H    0.485099
    56  N   -0.581236
    57  H    0.382285
    58  C   -0.092860
    59  H    0.135564
    60  C    0.593389
    61  C   -0.283018
    62  H    0.185730
    63  H    0.130593
    64  O   -0.551260
    65  C   -0.275474
    66  H    0.162406
    67  H    0.204033
    68  C   -0.170283
    69  H    0.184919
    70  H    0.151039
    71  N   -0.614997
    72  H    0.409318
    73  N   -0.753540
    74  H    0.370519
    75  H    0.376151
    76  N   -0.816565
    77  H    0.423524
    78  C    0.777975
    79  O   -0.594674
    80  H    0.437764
    81  H    0.467085
 Sum of Mulliken charges =   1.00000

 Dipole moment (field-independent basis, Debye):
    X=            -17.6223    Y=              3.3946    Z=              2.6840  Tot=             18.1459
 Quadrupole moment (field-independent basis, Debye-Ang):
   XX=           -248.0980   YY=           -186.8064   ZZ=           -161.8946
   XY=             32.0275   XZ=             14.9917   YZ=             30.0603

 Normal termination of Gaussian 16 at Thu May 26 18:14:20 2022.
