 Gaussian 16, Revision C.01,
 Gaussian 16:  ES64L-G16RevC.01  3-Jul-2019

 -------------------------------------------------------------------
 # B3LYP/6-31G* guess=read geom=check nosymm integral(ultrafinegrid)
 -------------------------------------------------------------------

 ------------------------------------------------------
 Candidate Structure: Conf:315 Charge calc in gas phase
 ------------------------------------------------------
 Structure from the checkpoint file:  "conf-315.chk"
 Charge =  1 Multiplicity = 1

                          Input orientation:
 ---------------------------------------------------------------------
 Center     Atomic      Atomic             Coordinates (Angstroms)
 Number     Number       Type             X           Y           Z
 ---------------------------------------------------------------------
      1          7           0       -5.630700   -0.193917    3.105355
      2          1           0       -5.939560   -0.316725    2.122914
      3          1           0       -5.236185   -1.094149    3.398080
      4          1           0       -6.386283    0.091330    3.765566
      5          6           0       -4.602106    0.908901    3.094148
      6          1           0       -5.197521    1.827253    3.072489
      7          6           0       -3.900411    0.764953    1.718430
      8          6           0       -3.712347    0.892391    4.347546
      9          1           0       -2.955763    0.104211    4.257869
     10          1           0       -3.168574    1.843308    4.363838
     11          8           0       -4.457032    0.079170    0.860629
     12          6           0       -4.428305    0.713779    5.714887
     13          1           0       -3.745861    1.018783    6.510860
     14          1           0       -4.651706   -0.346677    5.890372
     15          6           0       -5.748738    1.451860    5.864582
     16          8           0       -6.712240    1.284397    5.124797
     17          8           0       -5.766865    2.278520    6.902192
     18          7           0       -2.744458    1.423567    1.534908
     19          1           0       -2.356414    2.019652    2.255556
     20          6           0       -2.079656    1.448515    0.223805
     21          1           0       -2.263289    0.485173   -0.254907
     22          6           0       -0.595832    1.625247    0.444930
     23          6           0       -2.641833    2.574948   -0.702008
     24          1           0       -2.533034    3.537402   -0.190753
     25          1           0       -3.714815    2.374335   -0.798635
     26          8           0       -0.281971    2.454709    1.408341
     27          6           0       -1.962352    2.610192   -2.037449
     28          6           0       -2.177403    1.785779   -3.121652
     29          1           0       -2.895369    0.987663   -3.257168
     30          6           0       -0.888257    3.501107   -2.405206
     31          6           0       -0.507160    3.169532   -3.732915
     32          6           0       -0.224272    4.553484   -1.746411
     33          1           0       -0.494753    4.834929   -0.730779
     34          7           0       -1.312551    2.120687   -4.135780
     35          1           0       -1.263633    1.655003   -5.030262
     36          6           0        1.127401    4.903792   -3.744483
     37          1           0        1.909497    5.465069   -4.246499
     38          6           0        0.500621    3.861036   -4.414403
     39          1           0        0.786702    3.597893   -5.428519
     40          6           0        0.772126    5.245057   -2.422139
     41          1           0        1.284401    6.068013   -1.932172
     42          7           0        0.255636    1.015757   -0.311047
     43          1           0       -0.024579    0.286313   -1.037180
     44          6           0        1.708583    1.195315   -0.519631
     45          1           0        1.886664    2.242771   -0.792639
     46          6           0        1.937052    0.256642   -1.772559
     47          6           0        2.556823    0.829814    0.716876
     48          1           0        2.363162   -0.217737    0.978561
     49          8           0        0.968936   -0.471005   -2.093260
     50          6           0        4.049583    1.092629    0.598779
     51          1           0        4.554785    0.462811   -0.145155
     52          1           0        4.523905    0.881767    1.567255
     53          1           0        4.241620    2.140271    0.342277
     54          8           0        2.024545    1.659458    1.798506
     55          1           0        0.708209    2.354335    1.590229
     56          7           0        3.104050    0.329705   -2.365394
     57          1           0        3.937365    0.814794   -1.948428
     58          6           0        3.721941   -0.700952   -3.220057
     59          1           0        3.228649   -1.659668   -3.032145
     60          6           0        5.225389   -0.755462   -2.703272
     61          6           0        3.689809   -0.386881   -4.716656
     62          1           0        4.324967   -1.146107   -5.185235
     63          1           0        4.174204    0.584880   -4.892692
     64          8           0        5.917244   -1.663178   -3.160778
     65          6           0        2.302373   -0.410159   -5.363513
     66          1           0        1.796202   -1.351619   -5.111378
     67          1           0        1.671834    0.390714   -4.947214
     68          6           0        2.347527   -0.255204   -6.891929
     69          1           0        1.328946   -0.231724   -7.293206
     70          1           0        2.821712    0.702189   -7.146401
     71          7           0        3.098507   -1.322832   -7.567003
     72          1           0        3.974336   -1.032292   -7.980032
     73          7           0        1.242227   -2.735666   -7.760287
     74          1           0        0.911832   -3.551888   -8.265409
     75          1           0        1.275942   -2.918776   -6.761708
     76          7           0        2.925907   -2.933328   -9.340599
     77          1           0        3.759927   -2.467799   -9.704574
     78          6           0        2.481845   -2.344462   -8.290412
     79          8           0        5.514844    0.188901   -1.891136
     80          1           0       -6.656638    2.681626    6.971616
     81          1           0        2.720820    1.810285    2.456655
 ---------------------------------------------------------------------

 SCF Done:  E(RB3LYP) =  -2053.82563116     A.U. after    1 cycles

 Alpha  occ. eigenvalues --  -19.36340 -19.34175 -19.31605 -19.29952 -19.29716
 Alpha  occ. eigenvalues --  -19.20950 -19.10227 -19.08644 -14.62161 -14.53877
 Alpha  occ. eigenvalues --  -14.52155 -14.47122 -14.41538 -14.37806 -14.36654
 Alpha  occ. eigenvalues --  -14.30706 -10.49749 -10.47248 -10.46977 -10.44238
 Alpha  occ. eigenvalues --  -10.39506 -10.39250 -10.37910 -10.37511 -10.36818
 Alpha  occ. eigenvalues --  -10.36000 -10.32621 -10.31740 -10.30648 -10.30354
 Alpha  occ. eigenvalues --  -10.28311 -10.27613 -10.27561 -10.27441 -10.27159
 Alpha  occ. eigenvalues --  -10.26577 -10.26524 -10.26126 -10.25851 -10.24815
 Alpha  occ. eigenvalues --  -10.22262 -10.21269  -1.27734  -1.25119  -1.22304
 Alpha  occ. eigenvalues --   -1.18850  -1.16567  -1.16313  -1.13018  -1.10220
 Alpha  occ. eigenvalues --   -1.08390  -1.07029  -1.03193  -0.99855  -0.98960
 Alpha  occ. eigenvalues --   -0.98639  -0.94842  -0.94256  -0.92452  -0.91451
 Alpha  occ. eigenvalues --   -0.91219  -0.90075  -0.87592  -0.86592  -0.83935
 Alpha  occ. eigenvalues --   -0.83573  -0.82395  -0.82139  -0.81303  -0.79355
 Alpha  occ. eigenvalues --   -0.78072  -0.77014  -0.76713  -0.76201  -0.76040
 Alpha  occ. eigenvalues --   -0.74844  -0.74113  -0.71128  -0.70966  -0.70261
 Alpha  occ. eigenvalues --   -0.68689  -0.68271  -0.68036  -0.66739  -0.65720
 Alpha  occ. eigenvalues --   -0.64942  -0.64497  -0.64136  -0.63497  -0.63212
 Alpha  occ. eigenvalues --   -0.62909  -0.62704  -0.61937  -0.61393  -0.61020
 Alpha  occ. eigenvalues --   -0.60566  -0.59903  -0.59312  -0.58223  -0.58039
 Alpha  occ. eigenvalues --   -0.57012  -0.56961  -0.56678  -0.56085  -0.55706
 Alpha  occ. eigenvalues --   -0.55458  -0.54842  -0.54604  -0.54136  -0.53396
 Alpha  occ. eigenvalues --   -0.53321  -0.52745  -0.52543  -0.51849  -0.51708
 Alpha  occ. eigenvalues --   -0.50799  -0.50580  -0.50151  -0.50052  -0.49767
 Alpha  occ. eigenvalues --   -0.49424  -0.48596  -0.48548  -0.47817  -0.47581
 Alpha  occ. eigenvalues --   -0.47106  -0.46656  -0.45802  -0.45602  -0.45474
 Alpha  occ. eigenvalues --   -0.44113  -0.44065  -0.43987  -0.43677  -0.43318
 Alpha  occ. eigenvalues --   -0.43003  -0.42077  -0.41982  -0.41917  -0.41332
 Alpha  occ. eigenvalues --   -0.40702  -0.39431  -0.38457  -0.37813  -0.37075
 Alpha  occ. eigenvalues --   -0.36590  -0.36397  -0.35847  -0.32524  -0.31007
 Alpha  occ. eigenvalues --   -0.29468  -0.29216  -0.28298  -0.25366  -0.25085
 Alpha  occ. eigenvalues --   -0.24738  -0.22576
 Alpha virt. eigenvalues --   -0.16951  -0.16392  -0.15336  -0.12466  -0.10007
 Alpha virt. eigenvalues --   -0.08968  -0.06877  -0.06553  -0.06100  -0.05901
 Alpha virt. eigenvalues --   -0.04943  -0.04683  -0.04444  -0.04406  -0.03577

 Mulliken charges:
               1
     1  N   -0.750125
     2  H    0.431780
     3  H    0.408224
     4  H    0.441789
     5  C   -0.130731
     6  H    0.243794
     7  C    0.661384
     8  C   -0.316799
     9  H    0.199794
    10  H    0.199928
    11  O   -0.519574
    12  C   -0.385143
    13  H    0.232261
    14  H    0.202371
    15  C    0.616054
    16  O   -0.491282
    17  O   -0.516769
    18  N   -0.625223
    19  H    0.367156
    20  C   -0.041046
    21  H    0.221036
    22  C    0.638827
    23  C   -0.362978
    24  H    0.173554
    25  H    0.186346
    26  O   -0.606336
    27  C    0.030778
    28  C    0.013625
    29  H    0.169331
    30  C    0.081024
    31  C    0.318135
    32  C   -0.230361
    33  H    0.116153
    34  N   -0.680166
    35  H    0.352535
    36  C   -0.148990
    37  H    0.153402
    38  C   -0.151988
    39  H    0.153753
    40  C   -0.139644
    41  H    0.140959
    42  N   -0.584014
    43  H    0.416536
    44  C   -0.107976
    45  H    0.217375
    46  C    0.625719
    47  C    0.157719
    48  H    0.169430
    49  O   -0.579519
    50  C   -0.533182
    51  H    0.268228
    52  H    0.155474
    53  H    0.168613
    54  O   -0.699873
    55  H    0.481880
    56  N   -0.590648
    57  H    0.373931
    58  C   -0.096763
    59  H    0.155619
    60  C    0.592702
    61  C   -0.255261
    62  H    0.189171
    63  H    0.128390
    64  O   -0.542164
    65  C   -0.248517
    66  H    0.131604
    67  H    0.108934
    68  C   -0.146078
    69  H    0.156534
    70  H    0.136519
    71  N   -0.582589
    72  H    0.320003
    73  N   -0.743368
    74  H    0.335112
    75  H    0.319859
    76  N   -0.633550
    77  H    0.264130
    78  C    0.550295
    79  O   -0.620083
    80  H    0.446609
    81  H    0.436358
 Sum of Mulliken charges =   1.00000

 Dipole moment (field-independent basis, Debye):
    X=            -30.8358    Y=             12.0001    Z=             24.9382  Tot=             41.4338
 Quadrupole moment (field-independent basis, Debye-Ang):
   XX=           -193.6739   YY=           -230.3021   ZZ=           -171.7032
   XY=             18.2412   XZ=            -54.3791   YZ=            -16.6952

 Normal termination of Gaussian 16 at Thu May 26 18:14:13 2022.
