 Gaussian 16, Revision C.01,
 Gaussian 16:  ES64L-G16RevC.01  3-Jul-2019

 -------------------------------------------------------------------
 # B3LYP/6-31G* guess=read geom=check nosymm integral(ultrafinegrid)
 -------------------------------------------------------------------

 ------------------------------------------------------
 Candidate Structure: Conf:584 Charge calc in gas phase
 ------------------------------------------------------
 Structure from the checkpoint file:  "conf-584.chk"
 Charge =  1 Multiplicity = 1

                          Input orientation:
 ---------------------------------------------------------------------
 Center     Atomic      Atomic             Coordinates (Angstroms)
 Number     Number       Type             X           Y           Z
 ---------------------------------------------------------------------
      1          7           0       -4.159864    1.072893    4.928346
      2          1           0       -4.327858    0.103287    4.598134
      3          1           0       -3.314153    1.050014    5.507376
      4          1           0       -4.948892    1.490739    5.470253
      5          6           0       -3.981413    1.908913    3.685615
      6          1           0       -5.003774    2.098334    3.342666
      7          6           0       -3.329547    0.944571    2.661676
      8          6           0       -3.280949    3.248256    3.961638
      9          1           0       -2.197510    3.100559    4.036265
     10          1           0       -3.461243    3.880027    3.084458
     11          8           0       -3.436024   -0.264581    2.862860
     12          6           0       -3.743134    4.019843    5.227896
     13          1           0       -3.371213    5.044468    5.167962
     14          1           0       -3.297449    3.575981    6.127840
     15          6           0       -5.243066    4.031815    5.462823
     16          8           0       -5.915653    3.018061    5.626360
     17          8           0       -5.761843    5.252400    5.496956
     18          7           0       -2.737610    1.510785    1.596578
     19          1           0       -2.784387    2.518064    1.457949
     20          6           0       -2.276634    0.750655    0.435283
     21          1           0       -2.697504   -0.257781    0.532457
     22          6           0       -0.765067    0.545329    0.554066
     23          6           0       -2.791834    1.423439   -0.864926
     24          1           0       -3.863370    1.196122   -0.917027
     25          1           0       -2.349018    0.917962   -1.731464
     26          8           0       -0.373678    0.121395    1.719874
     27          6           0       -2.566214    2.907352   -0.925295
     28          6           0       -1.527663    3.562561   -1.558692
     29          1           0       -0.721414    3.157244   -2.157566
     30          6           0       -3.374296    3.940599   -0.317682
     31          6           0       -2.737164    5.183728   -0.619869
     32          6           0       -4.578848    3.960557    0.420051
     33          1           0       -5.133854    3.041259    0.602127
     34          7           0       -1.622263    4.910877   -1.373442
     35          1           0       -0.951870    5.568471   -1.831334
     36          6           0       -4.428565    6.392993    0.559287
     37          1           0       -4.857664    7.330285    0.900804
     38          6           0       -3.255033    6.409566   -0.183767
     39          1           0       -2.759311    7.343458   -0.431523
     40          6           0       -5.089955    5.180885    0.852188
     41          1           0       -6.032601    5.208058    1.392869
     42          7           0        0.050496    0.730825   -0.442979
     43          1           0       -0.268239    0.990930   -1.392706
     44          6           0        1.516977    0.557677   -0.483465
     45          1           0        1.976959    1.161205    0.305879
     46          6           0        1.913984    1.125242   -1.885767
     47          6           0        1.884335   -0.928162   -0.227647
     48          1           0        1.077923   -1.548826   -0.641597
     49          8           0        1.011137    1.183156   -2.745559
     50          6           0        3.221051   -1.428372   -0.744025
     51          1           0        3.193381   -1.498320   -1.835872
     52          1           0        3.385884   -2.445212   -0.364989
     53          1           0        4.072472   -0.794823   -0.479357
     54          8           0        1.829612   -1.020308    1.233459
     55          1           0        0.559001   -0.321293    1.685459
     56          7           0        3.177953    1.497458   -1.966380
     57          1           0        3.842845    1.279831   -1.170032
     58          6           0        4.101720    1.490792   -3.117028
     59          1           0        3.714744    0.814808   -3.886971
     60          6           0        5.442136    0.864866   -2.482760
     61          6           0        4.474224    2.839481   -3.749669
     62          1           0        5.421397    2.633798   -4.259357
     63          1           0        4.723981    3.547888   -2.945608
     64          8           0        6.336783    0.608345   -3.286164
     65          6           0        3.510468    3.452826   -4.781574
     66          1           0        4.062746    4.187326   -5.382420
     67          1           0        3.185258    2.669102   -5.475907
     68          6           0        2.256150    4.139780   -4.233450
     69          1           0        1.662078    4.505828   -5.080390
     70          1           0        1.637724    3.421612   -3.677041
     71          7           0        2.613599    5.287345   -3.392603
     72          1           0        3.492442    5.180754   -2.901511
     73          7           0        2.131975    6.734610   -1.634142
     74          1           0        1.502545    7.485924   -1.379279
     75          1           0        3.090846    7.053109   -1.710567
     76          7           0        0.383606    6.008139   -2.970371
     77          1           0        0.174801    5.428423   -3.781727
     78          6           0        1.657313    5.994186   -2.710507
     79          8           0        5.398444    0.752164   -1.213209
     80          1           0       -6.719594    5.181524    5.687133
     81          1           0        2.085920   -1.913905    1.517800
 ---------------------------------------------------------------------

 SCF Done:  E(RB3LYP) =  -2053.85422306     A.U. after    1 cycles

 Alpha  occ. eigenvalues --  -19.35174 -19.33547 -19.30391 -19.30376 -19.28317
 Alpha  occ. eigenvalues --  -19.21341 -19.11526 -19.09852 -14.60668 -14.53121
 Alpha  occ. eigenvalues --  -14.52058 -14.45128 -14.41965 -14.41909 -14.41689
 Alpha  occ. eigenvalues --  -14.36161 -10.48483 -10.47202 -10.45707 -10.42457
 Alpha  occ. eigenvalues --  -10.39115 -10.38041 -10.37292 -10.36972 -10.36380
 Alpha  occ. eigenvalues --  -10.36282 -10.35864 -10.32462 -10.30995 -10.30904
 Alpha  occ. eigenvalues --  -10.28935 -10.28827 -10.28531 -10.28279 -10.28129
 Alpha  occ. eigenvalues --  -10.28032 -10.27965 -10.27698 -10.26291 -10.26286
 Alpha  occ. eigenvalues --  -10.24126 -10.23231  -1.26558  -1.24482  -1.20769
 Alpha  occ. eigenvalues --   -1.17598  -1.16544  -1.15075  -1.13007  -1.09364
 Alpha  occ. eigenvalues --   -1.08687  -1.06386  -1.05054  -1.04420  -0.99244
 Alpha  occ. eigenvalues --   -0.97285  -0.95819  -0.95514  -0.93979  -0.93203
 Alpha  occ. eigenvalues --   -0.91458  -0.90469  -0.89787  -0.87439  -0.84336
 Alpha  occ. eigenvalues --   -0.83897  -0.82840  -0.82383  -0.81521  -0.79422
 Alpha  occ. eigenvalues --   -0.78488  -0.76756  -0.76055  -0.75735  -0.75064
 Alpha  occ. eigenvalues --   -0.74175  -0.72980  -0.72728  -0.71488  -0.70586
 Alpha  occ. eigenvalues --   -0.68392  -0.68282  -0.66951  -0.66643  -0.65950
 Alpha  occ. eigenvalues --   -0.65447  -0.65232  -0.64310  -0.63581  -0.63115
 Alpha  occ. eigenvalues --   -0.63027  -0.62313  -0.62090  -0.61947  -0.61653
 Alpha  occ. eigenvalues --   -0.60261  -0.59503  -0.58935  -0.58005  -0.57879
 Alpha  occ. eigenvalues --   -0.57741  -0.56990  -0.56686  -0.56509  -0.55770
 Alpha  occ. eigenvalues --   -0.55408  -0.54488  -0.54376  -0.53933  -0.53723
 Alpha  occ. eigenvalues --   -0.53346  -0.53104  -0.52627  -0.52428  -0.52176
 Alpha  occ. eigenvalues --   -0.51601  -0.51438  -0.51335  -0.50810  -0.50383
 Alpha  occ. eigenvalues --   -0.50207  -0.49448  -0.48936  -0.48845  -0.48395
 Alpha  occ. eigenvalues --   -0.47830  -0.47562  -0.47378  -0.46377  -0.45947
 Alpha  occ. eigenvalues --   -0.45309  -0.45077  -0.44976  -0.44239  -0.43399
 Alpha  occ. eigenvalues --   -0.43151  -0.42884  -0.42742  -0.42435  -0.41854
 Alpha  occ. eigenvalues --   -0.41586  -0.40952  -0.40305  -0.39081  -0.38817
 Alpha  occ. eigenvalues --   -0.37858  -0.37218  -0.35912  -0.35165  -0.33253
 Alpha  occ. eigenvalues --   -0.32641  -0.31708  -0.29919  -0.29810  -0.26576
 Alpha  occ. eigenvalues --   -0.26198  -0.23764
 Alpha virt. eigenvalues --   -0.16551  -0.15572  -0.14076  -0.11148  -0.10760
 Alpha virt. eigenvalues --   -0.07602  -0.07414  -0.06158  -0.05569  -0.05294
 Alpha virt. eigenvalues --   -0.04221  -0.03699  -0.03390  -0.02925  -0.02332

 Mulliken charges:
               1
     1  N   -0.753845
     2  H    0.427488
     3  H    0.404900
     4  H    0.440459
     5  C   -0.129800
     6  H    0.241612
     7  C    0.658163
     8  C   -0.329762
     9  H    0.193916
    10  H    0.225142
    11  O   -0.519141
    12  C   -0.384212
    13  H    0.231286
    14  H    0.192570
    15  C    0.617905
    16  O   -0.495822
    17  O   -0.517142
    18  N   -0.611360
    19  H    0.378143
    20  C   -0.056656
    21  H    0.229857
    22  C    0.649206
    23  C   -0.410373
    24  H    0.189098
    25  H    0.190255
    26  O   -0.580422
    27  C    0.019211
    28  C   -0.012225
    29  H    0.185434
    30  C    0.048360
    31  C    0.320326
    32  C   -0.257274
    33  H    0.113640
    34  N   -0.691947
    35  H    0.398046
    36  C   -0.156776
    37  H    0.145318
    38  C   -0.154897
    39  H    0.158198
    40  C   -0.145702
    41  H    0.125663
    42  N   -0.597832
    43  H    0.412759
    44  C   -0.101984
    45  H    0.218256
    46  C    0.612452
    47  C    0.126054
    48  H    0.158564
    49  O   -0.570919
    50  C   -0.504410
    51  H    0.190544
    52  H    0.152347
    53  H    0.254323
    54  O   -0.670674
    55  H    0.484114
    56  N   -0.598034
    57  H    0.369078
    58  C   -0.083194
    59  H    0.155119
    60  C    0.591644
    61  C   -0.282122
    62  H    0.201016
    63  H    0.122071
    64  O   -0.540057
    65  C   -0.298760
    66  H    0.155660
    67  H    0.157907
    68  C   -0.153007
    69  H    0.156323
    70  H    0.174503
    71  N   -0.598814
    72  H    0.332429
    73  N   -0.752411
    74  H    0.339316
    75  H    0.333756
    76  N   -0.740431
    77  H    0.302085
    78  C    0.651693
    79  O   -0.616179
    80  H    0.443448
    81  H    0.436531
 Sum of Mulliken charges =   1.00000

 Dipole moment (field-independent basis, Debye):
    X=            -23.5610    Y=             12.1756    Z=             21.4097  Tot=             34.0844
 Quadrupole moment (field-independent basis, Debye-Ang):
   XX=           -235.0102   YY=           -161.1353   ZZ=           -150.2050
   XY=            -37.8837   XZ=            -58.7655   YZ=             39.9831

 Normal termination of Gaussian 16 at Thu May 26 18:14:15 2022.
