 Gaussian 16, Revision C.01,
 Gaussian 16:  ES64L-G16RevC.01  3-Jul-2019

 -------------------------------------------------------------------
 # B3LYP/6-31G* guess=read geom=check nosymm integral(ultrafinegrid)
 -------------------------------------------------------------------

 ------------------------------------------------------
 Candidate Structure: Conf:156 Charge calc in gas phase
 ------------------------------------------------------
 Structure from the checkpoint file:  "conf-156.chk"
 Charge =  1 Multiplicity = 1

                          Input orientation:
 ---------------------------------------------------------------------
 Center     Atomic      Atomic             Coordinates (Angstroms)
 Number     Number       Type             X           Y           Z
 ---------------------------------------------------------------------
      1          7           0       -5.896402    1.141731    0.770341
      2          1           0       -6.268266    1.898315    0.158298
      3          1           0       -5.607458    0.342374    0.162081
      4          1           0       -6.626521    0.853814    1.427298
      5          6           0       -4.614075    1.569768    1.451939
      6          1           0       -4.693975    2.643456    1.639291
      7          6           0       -3.547894    1.234543    0.379836
      8          6           0       -4.367654    0.784156    2.743951
      9          1           0       -4.300675   -0.285081    2.509426
     10          1           0       -3.378762    1.063317    3.121276
     11          8           0       -3.750656    0.248002   -0.326608
     12          6           0       -5.393849    1.036025    3.854234
     13          1           0       -6.371042    0.576249    3.659535
     14          1           0       -5.580728    2.111096    3.988515
     15          6           0       -4.883941    0.502808    5.188017
     16          8           0       -3.728949    0.231080    5.419135
     17          8           0       -5.886694    0.398923    6.076935
     18          7           0       -2.488144    2.059222    0.304639
     19          1           0       -2.427769    2.855429    0.928282
     20          6           0       -1.530003    2.024012   -0.803211
     21          1           0       -1.517441    1.015618   -1.218341
     22          6           0       -0.145548    2.364737   -0.282173
     23          6           0       -1.948975    3.011864   -1.943065
     24          1           0       -1.156001    2.995730   -2.696178
     25          1           0       -1.985415    4.030879   -1.539059
     26          8           0       -0.113624    3.267073    0.665930
     27          6           0       -3.256418    2.616075   -2.563764
     28          6           0       -3.403843    1.700857   -3.578449
     29          1           0       -2.638991    1.184744   -4.141273
     30          6           0       -4.588151    2.958539   -2.130977
     31          6           0       -5.495870    2.189430   -2.921625
     32          6           0       -5.116227    3.819860   -1.151241
     33          1           0       -4.461387    4.466017   -0.571273
     34          7           0       -4.738725    1.446939   -3.797486
     35          1           0       -5.101421    0.833118   -4.512430
     36          6           0       -7.372134    3.068077   -1.729962
     37          1           0       -8.444264    3.140869   -1.572390
     38          6           0       -6.881009    2.232450   -2.730611
     39          1           0       -7.554759    1.641769   -3.344922
     40          6           0       -6.497496    3.863931   -0.950848
     41          1           0       -6.914675    4.555098   -0.222897
     42          7           0        0.878971    1.803382   -0.842418
     43          1           0        0.657840    1.126505   -1.671299
     44          6           0        2.319568    2.167451   -0.737812
     45          1           0        2.441269    3.181909   -1.134598
     46          6           0        3.064077    1.117981   -1.616637
     47          6           0        2.888812    2.136297    0.689252
     48          1           0        2.569299    1.209891    1.180045
     49          8           0        2.933379   -0.079477   -1.303806
     50          6           0        4.409158    2.261616    0.718276
     51          1           0        4.865606    1.332189    0.369421
     52          1           0        4.752479    2.433026    1.744968
     53          1           0        4.757413    3.089499    0.092390
     54          8           0        2.299885    3.280196    1.390583
     55          1           0        0.845083    3.398054    1.042632
     56          7           0        3.736773    1.659983   -2.615721
     57          1           0        3.960818    2.710506   -2.685877
     58          6           0        4.781178    1.075475   -3.463489
     59          1           0        5.428208    0.421729   -2.864627
     60          6           0        5.629366    2.356797   -3.909590
     61          6           0        4.269940    0.313892   -4.693318
     62          1           0        5.101007    0.315044   -5.404963
     63          1           0        3.468855    0.918948   -5.141842
     64          8           0        6.546148    2.148472   -4.705786
     65          6           0        3.790470   -1.130673   -4.407612
     66          1           0        4.576303   -1.846719   -4.683513
     67          1           0        3.619492   -1.256139   -3.334675
     68          6           0        2.510022   -1.531938   -5.157400
     69          1           0        2.632672   -1.420828   -6.239232
     70          1           0        2.268918   -2.590850   -4.996080
     71          7           0        1.326197   -0.716562   -4.806250
     72          1           0        1.234457    0.122536   -5.362925
     73          7           0        0.979407   -1.637203   -2.686009
     74          1           0        1.099830   -1.351852   -1.723073
     75          1           0        1.655924   -2.337956   -2.953234
     76          7           0        0.213830    0.506789   -3.108598
     77          1           0        0.271929    1.242363   -3.812886
     78          6           0        0.854328   -0.568440   -3.533881
     79          8           0        5.214229    3.438205   -3.376965
     80          1           0       -5.502730    0.087611    6.919804
     81          1           0        2.597009    3.286051    2.316034
 ---------------------------------------------------------------------

 SCF Done:  E(RB3LYP) =  -2053.85066150     A.U. after    1 cycles

 Alpha  occ. eigenvalues --  -19.32849 -19.31253 -19.30038 -19.28096 -19.25899
 Alpha  occ. eigenvalues --  -19.18359 -19.09551 -19.07927 -14.60855 -14.52309
 Alpha  occ. eigenvalues --  -14.50309 -14.50035 -14.44056 -14.42709 -14.40043
 Alpha  occ. eigenvalues --  -14.39209 -10.45468 -10.45457 -10.44420 -10.42220
 Alpha  occ. eigenvalues --  -10.38381 -10.38038 -10.36312 -10.35728 -10.35400
 Alpha  occ. eigenvalues --  -10.34816 -10.34527 -10.34496 -10.33748 -10.32713
 Alpha  occ. eigenvalues --  -10.31839 -10.31642 -10.31374 -10.31323 -10.31238
 Alpha  occ. eigenvalues --  -10.30304 -10.29659 -10.27020 -10.26955 -10.24524
 Alpha  occ. eigenvalues --  -10.23685 -10.22281  -1.23107  -1.22329  -1.20651
 Alpha  occ. eigenvalues --   -1.16067  -1.15071  -1.13570  -1.10141  -1.10088
 Alpha  occ. eigenvalues --   -1.08788  -1.07225  -1.07019  -1.02466  -0.97413
 Alpha  occ. eigenvalues --   -0.97006  -0.96784  -0.96368  -0.93923  -0.93794
 Alpha  occ. eigenvalues --   -0.93477  -0.90965  -0.89545  -0.87948  -0.86236
 Alpha  occ. eigenvalues --   -0.84925  -0.83887  -0.82404  -0.80825  -0.79343
 Alpha  occ. eigenvalues --   -0.78018  -0.75640  -0.75089  -0.74761  -0.74554
 Alpha  occ. eigenvalues --   -0.73604  -0.73461  -0.71967  -0.71791  -0.71649
 Alpha  occ. eigenvalues --   -0.69721  -0.69027  -0.68375  -0.67315  -0.66141
 Alpha  occ. eigenvalues --   -0.65612  -0.65146  -0.64471  -0.64113  -0.63217
 Alpha  occ. eigenvalues --   -0.62647  -0.61391  -0.61098  -0.60644  -0.59956
 Alpha  occ. eigenvalues --   -0.59753  -0.59616  -0.59413  -0.58570  -0.58099
 Alpha  occ. eigenvalues --   -0.57134  -0.56999  -0.56557  -0.55990  -0.55766
 Alpha  occ. eigenvalues --   -0.55483  -0.55235  -0.54514  -0.54290  -0.54058
 Alpha  occ. eigenvalues --   -0.53615  -0.53194  -0.53043  -0.52490  -0.52068
 Alpha  occ. eigenvalues --   -0.51893  -0.51403  -0.50949  -0.50266  -0.50116
 Alpha  occ. eigenvalues --   -0.50064  -0.49830  -0.49599  -0.49126  -0.48983
 Alpha  occ. eigenvalues --   -0.47860  -0.47704  -0.47427  -0.46791  -0.46342
 Alpha  occ. eigenvalues --   -0.45953  -0.45815  -0.44682  -0.43709  -0.43520
 Alpha  occ. eigenvalues --   -0.42771  -0.42566  -0.41775  -0.41513  -0.41396
 Alpha  occ. eigenvalues --   -0.40475  -0.39912  -0.39636  -0.39361  -0.38512
 Alpha  occ. eigenvalues --   -0.38002  -0.37750  -0.36374  -0.35191  -0.34256
 Alpha  occ. eigenvalues --   -0.32802  -0.32529  -0.31955  -0.31048  -0.24656
 Alpha  occ. eigenvalues --   -0.24247  -0.22058
 Alpha virt. eigenvalues --   -0.15031  -0.14580  -0.13885  -0.11564  -0.10714
 Alpha virt. eigenvalues --   -0.10063  -0.07716  -0.05629  -0.05492  -0.05483
 Alpha virt. eigenvalues --   -0.05144  -0.04954  -0.03586  -0.02978  -0.02924

 Mulliken charges:
               1
     1  N   -0.762160
     2  H    0.422661
     3  H    0.425242
     4  H    0.406924
     5  C   -0.120021
     6  H    0.196202
     7  C    0.673736
     8  C   -0.288551
     9  H    0.198923
    10  H    0.216500
    11  O   -0.518599
    12  C   -0.388383
    13  H    0.178039
    14  H    0.199750
    15  C    0.599857
    16  O   -0.437550
    17  O   -0.553457
    18  N   -0.610120
    19  H    0.360199
    20  C   -0.066444
    21  H    0.249836
    22  C    0.626597
    23  C   -0.359378
    24  H    0.189004
    25  H    0.172363
    26  O   -0.617680
    27  C    0.058433
    28  C    0.044092
    29  H    0.191227
    30  C    0.074959
    31  C    0.323608
    32  C   -0.239499
    33  H    0.137625
    34  N   -0.679878
    35  H    0.353490
    36  C   -0.181564
    37  H    0.162411
    38  C   -0.161954
    39  H    0.163169
    40  C   -0.211710
    41  H    0.155127
    42  N   -0.614950
    43  H    0.448779
    44  C   -0.058762
    45  H    0.205683
    46  C    0.578589
    47  C    0.120899
    48  H    0.171448
    49  O   -0.590442
    50  C   -0.482174
    51  H    0.206469
    52  H    0.155800
    53  H    0.209324
    54  O   -0.675821
    55  H    0.483581
    56  N   -0.607408
    57  H    0.373471
    58  C   -0.081946
    59  H    0.154487
    60  C    0.591857
    61  C   -0.261716
    62  H    0.196102
    63  H    0.102560
    64  O   -0.554099
    65  C   -0.288164
    66  H    0.155203
    67  H    0.170077
    68  C   -0.191831
    69  H    0.175134
    70  H    0.159973
    71  N   -0.573720
    72  H    0.331992
    73  N   -0.715343
    74  H    0.355697
    75  H    0.348723
    76  N   -0.809487
    77  H    0.285600
    78  C    0.698380
    79  O   -0.625575
    80  H    0.434626
    81  H    0.433961
 Sum of Mulliken charges =   1.00000

 Dipole moment (field-independent basis, Debye):
    X=            -32.9534    Y=              4.5068    Z=              9.1638  Tot=             34.4995
 Quadrupole moment (field-independent basis, Debye-Ang):
   XX=           -163.5698   YY=           -234.5194   ZZ=           -201.0953
   XY=            -71.0021   XZ=             41.1209   YZ=             45.4625

 Normal termination of Gaussian 16 at Thu May 26 18:14:15 2022.
