 Gaussian 16, Revision C.01,
 Gaussian 16:  ES64L-G16RevC.01  3-Jul-2019

 -------------------------------------------------------------------
 # B3LYP/6-31G* guess=read geom=check nosymm integral(ultrafinegrid)
 -------------------------------------------------------------------

 ------------------------------------------------------
 Candidate Structure: Conf:883 Charge calc in gas phase
 ------------------------------------------------------
 Structure from the checkpoint file:  "conf-883.chk"
 Charge =  1 Multiplicity = 1

                          Input orientation:
 ---------------------------------------------------------------------
 Center     Atomic      Atomic             Coordinates (Angstroms)
 Number     Number       Type             X           Y           Z
 ---------------------------------------------------------------------
      1          7           0       -4.512112    3.560880    2.794928
      2          1           0       -4.790447    4.202831    2.042879
      3          1           0       -5.021517    2.654066    2.675720
      4          1           0       -4.737447    3.994154    3.695601
      5          6           0       -3.044498    3.193632    2.636479
      6          1           0       -2.611504    3.939623    1.937229
      7          6           0       -3.114727    1.818905    1.939462
      8          6           0       -2.312429    3.167648    3.985499
      9          1           0       -1.258289    2.955022    3.780153
     10          1           0       -2.331942    4.180435    4.411348
     11          8           0       -4.142224    1.139176    2.044623
     12          6           0       -2.849361    2.146015    5.008019
     13          1           0       -2.766063    1.129427    4.603291
     14          1           0       -3.903934    2.310765    5.252640
     15          6           0       -2.103245    2.188565    6.332111
     16          8           0       -2.625125    2.270329    7.417349
     17          8           0       -0.763809    2.111996    6.144891
     18          7           0       -2.019276    1.510371    1.239293
     19          1           0       -1.193506    2.100499    1.322739
     20          6           0       -1.787678    0.308475    0.445025
     21          1           0       -2.321865   -0.525996    0.911311
     22          6           0       -0.249425    0.102556    0.496037
     23          6           0       -2.228413    0.485191   -1.042025
     24          1           0       -1.855546   -0.376701   -1.613906
     25          1           0       -1.674375    1.339892   -1.456761
     26          8           0        0.469130    0.963355    1.004354
     27          6           0       -3.691374    0.710119   -1.302240
     28          6           0       -4.773897    0.072589   -0.742490
     29          1           0       -4.815767   -0.667457    0.043885
     30          6           0       -4.221573    1.622046   -2.289318
     31          6           0       -5.637925    1.483383   -2.273709
     32          6           0       -3.644265    2.542498   -3.185943
     33          1           0       -2.564307    2.669896   -3.240467
     34          7           0       -5.939620    0.537116   -1.313646
     35          1           0       -6.865046    0.199726   -1.093876
     36          6           0       -5.873984    3.121895   -3.991771
     37          1           0       -6.493606    3.705038   -4.666731
     38          6           0       -6.474487    2.224225   -3.114371
     39          1           0       -7.553595    2.095967   -3.094671
     40          6           0       -4.472086    3.281698   -4.026596
     41          1           0       -4.035229    3.985543   -4.728765
     42          7           0        0.237079   -1.006102   -0.110419
     43          1           0       -0.384814   -1.596899   -0.650589
     44          6           0        1.669200   -1.159660   -0.408340
     45          1           0        2.241616   -1.007801    0.507791
     46          6           0        2.117468   -0.109553   -1.423877
     47          6           0        1.908309   -2.577544   -0.966052
     48          1           0        2.935787   -2.620419   -1.348894
     49          8           0        1.486561   -0.136523   -2.621024
     50          6           0        1.698366   -3.688113    0.055568
     51          1           0        2.414992   -3.586086    0.876471
     52          1           0        1.868751   -4.669865   -0.403436
     53          1           0        0.687490   -3.667146    0.476638
     54          8           0        1.000051   -2.677938   -2.084786
     55          1           0        0.837651   -3.615525   -2.271284
     56          7           0        3.033027    0.715654   -1.105584
     57          1           0        4.606147    0.648101   -0.420431
     58          6           0        3.531434    1.700341   -2.055931
     59          1           0        3.366976    1.409765   -3.100392
     60          6           0        5.064748    1.764253   -1.849571
     61          6           0        2.948975    3.113907   -1.801997
     62          1           0        3.393849    3.764882   -2.562259
     63          1           0        3.310530    3.467124   -0.826835
     64          8           0        5.789556    2.410715   -2.568722
     65          6           0        1.417796    3.198001   -1.847427
     66          1           0        1.057526    3.012923   -2.867455
     67          1           0        0.996854    2.416985   -1.200450
     68          6           0        0.868758    4.537712   -1.332805
     69          1           0        1.381273    4.782457   -0.388628
     70          1           0        1.062563    5.351644   -2.041859
     71          7           0       -0.576397    4.400745   -1.115954
     72          1           0       -0.938700    3.468452   -1.262652
     73          7           0       -0.799936    6.333113    0.168148
     74          1           0       -1.403294    6.906253    0.739514
     75          1           0        0.183427    6.350251    0.397403
     76          7           0       -2.651146    4.965087   -0.100074
     77          1           0       -2.998305    4.263002   -0.758802
     78          6           0       -1.379540    5.202554   -0.341747
     79          8           0        5.480384    1.068541   -0.780417
     80          1           0       -0.353653    2.129585    7.032850
     81          1           0        1.118230   -0.982663   -2.691587
 ---------------------------------------------------------------------

 SCF Done:  E(RB3LYP) =  -2053.87833027     A.U. after    1 cycles

 Alpha  occ. eigenvalues --  -19.29739 -19.28797 -19.27812 -19.26597 -19.24342
 Alpha  occ. eigenvalues --  -19.24009 -19.23097 -19.17682 -14.59867 -14.49764
 Alpha  occ. eigenvalues --  -14.48528 -14.46735 -14.44466 -14.43838 -14.42065
 Alpha  occ. eigenvalues --  -14.37225 -10.43416 -10.42547 -10.41426 -10.39436
 Alpha  occ. eigenvalues --  -10.38676 -10.37973 -10.36826 -10.36588 -10.36156
 Alpha  occ. eigenvalues --  -10.35226 -10.34294 -10.32677 -10.31461 -10.31425
 Alpha  occ. eigenvalues --  -10.30902 -10.30211 -10.30107 -10.29431 -10.27628
 Alpha  occ. eigenvalues --  -10.27564 -10.27073 -10.27046 -10.26887 -10.26874
 Alpha  occ. eigenvalues --  -10.26218 -10.26000  -1.20520  -1.18964  -1.18845
 Alpha  occ. eigenvalues --   -1.16261  -1.15406  -1.13791  -1.13661  -1.11665
 Alpha  occ. eigenvalues --   -1.06956  -1.06632  -1.06473  -1.05830  -1.04831
 Alpha  occ. eigenvalues --   -1.00975  -0.98054  -0.94704  -0.92769  -0.92190
 Alpha  occ. eigenvalues --   -0.91530  -0.89808  -0.87659  -0.87497  -0.85523
 Alpha  occ. eigenvalues --   -0.83559  -0.81642  -0.81204  -0.80446  -0.78882
 Alpha  occ. eigenvalues --   -0.77327  -0.75222  -0.73664  -0.73473  -0.72580
 Alpha  occ. eigenvalues --   -0.72107  -0.71246  -0.70791  -0.70524  -0.70410
 Alpha  occ. eigenvalues --   -0.69860  -0.67999  -0.67585  -0.67052  -0.65026
 Alpha  occ. eigenvalues --   -0.64883  -0.64069  -0.63596  -0.63063  -0.62503
 Alpha  occ. eigenvalues --   -0.61843  -0.61474  -0.60337  -0.59655  -0.59483
 Alpha  occ. eigenvalues --   -0.58644  -0.58414  -0.57903  -0.57726  -0.57572
 Alpha  occ. eigenvalues --   -0.56716  -0.56598  -0.56436  -0.55777  -0.55568
 Alpha  occ. eigenvalues --   -0.55230  -0.55020  -0.54827  -0.54115  -0.53671
 Alpha  occ. eigenvalues --   -0.53288  -0.52711  -0.52306  -0.51671  -0.51130
 Alpha  occ. eigenvalues --   -0.51022  -0.50787  -0.50267  -0.50024  -0.49844
 Alpha  occ. eigenvalues --   -0.49672  -0.49485  -0.49100  -0.48795  -0.48608
 Alpha  occ. eigenvalues --   -0.48414  -0.48379  -0.48152  -0.47820  -0.47237
 Alpha  occ. eigenvalues --   -0.46273  -0.46058  -0.45036  -0.44237  -0.43512
 Alpha  occ. eigenvalues --   -0.42937  -0.42510  -0.41919  -0.41855  -0.41480
 Alpha  occ. eigenvalues --   -0.41150  -0.40972  -0.40855  -0.39644  -0.38777
 Alpha  occ. eigenvalues --   -0.38285  -0.37541  -0.37223  -0.36255  -0.35965
 Alpha  occ. eigenvalues --   -0.35519  -0.35050  -0.34798  -0.31009  -0.30717
 Alpha  occ. eigenvalues --   -0.30427  -0.28736
 Alpha virt. eigenvalues --   -0.12730  -0.10754  -0.10406  -0.09305  -0.09066
 Alpha virt. eigenvalues --   -0.08819  -0.06357  -0.05639  -0.05467  -0.04797
 Alpha virt. eigenvalues --   -0.03830  -0.03334  -0.03325  -0.03019  -0.01894

 Mulliken charges:
               1
     1  N   -0.756469
     2  H    0.431177
     3  H    0.425204
     4  H    0.411653
     5  C   -0.135844
     6  H    0.253891
     7  C    0.658441
     8  C   -0.308322
     9  H    0.217938
    10  H    0.182185
    11  O   -0.542014
    12  C   -0.363929
    13  H    0.206336
    14  H    0.167685
    15  C    0.578450
    16  O   -0.428847
    17  O   -0.560311
    18  N   -0.601053
    19  H    0.369524
    20  C   -0.076505
    21  H    0.194102
    22  C    0.643639
    23  C   -0.368738
    24  H    0.163658
    25  H    0.157052
    26  O   -0.520043
    27  C    0.063623
    28  C    0.018762
    29  H    0.160774
    30  C    0.070426
    31  C    0.309886
    32  C   -0.227788
    33  H    0.120765
    34  N   -0.693122
    35  H    0.339195
    36  C   -0.150517
    37  H    0.146497
    38  C   -0.161337
    39  H    0.139758
    40  C   -0.133823
    41  H    0.142968
    42  N   -0.616519
    43  H    0.347389
    44  C   -0.056065
    45  H    0.206883
    46  C    0.541115
    47  C    0.097069
    48  H    0.182373
    49  O   -0.608655
    50  C   -0.485006
    51  H    0.187843
    52  H    0.174457
    53  H    0.166162
    54  O   -0.666404
    55  H    0.429500
    56  N   -0.503978
    57  H    0.425956
    58  C   -0.092653
    59  H    0.183158
    60  C    0.610328
    61  C   -0.261038
    62  H    0.185703
    63  H    0.152457
    64  O   -0.461975
    65  C   -0.324427
    66  H    0.165170
    67  H    0.149311
    68  C   -0.106061
    69  H    0.139272
    70  H    0.181365
    71  N   -0.626861
    72  H    0.334515
    73  N   -0.741327
    74  H    0.346269
    75  H    0.341128
    76  N   -0.748181
    77  H    0.282509
    78  C    0.629322
    79  O   -0.583543
    80  H    0.429993
    81  H    0.448520
 Sum of Mulliken charges =   1.00000

 Dipole moment (field-independent basis, Debye):
    X=            -16.6793    Y=              4.6846    Z=              7.5620  Tot=             18.9031
 Quadrupole moment (field-independent basis, Debye-Ang):
   XX=           -203.8820   YY=           -164.6436   ZZ=           -217.3259
   XY=            -54.3607   XZ=             -7.0724   YZ=             44.0632

 Normal termination of Gaussian 16 at Thu May 26 18:14:16 2022.
