 Gaussian 16, Revision C.01,
 Gaussian 16:  ES64L-G16RevC.01  3-Jul-2019

 -------------------------------------------------------------------
 # B3LYP/6-31G* guess=read geom=check nosymm integral(ultrafinegrid)
 -------------------------------------------------------------------

 ------------------------------------------------------
 Candidate Structure: Conf:962 Charge calc in gas phase
 ------------------------------------------------------
 Structure from the checkpoint file:  "conf-962.chk"
 Charge =  1 Multiplicity = 1

                          Input orientation:
 ---------------------------------------------------------------------
 Center     Atomic      Atomic             Coordinates (Angstroms)
 Number     Number       Type             X           Y           Z
 ---------------------------------------------------------------------
      1          7           0       -5.395050   -0.206968    4.070664
      2          1           0       -5.341328   -1.004093    3.388554
      3          1           0       -4.873272   -0.483787    4.908306
      4          1           0       -6.353287    0.054960    4.340946
      5          6           0       -4.736563    0.928676    3.323166
      6          1           0       -5.542538    1.396995    2.745899
      7          6           0       -3.853693    0.212217    2.271094
      8          6           0       -4.101083    1.958325    4.260072
      9          1           0       -3.208309    1.544841    4.744882
     10          1           0       -3.766844    2.800090    3.644702
     11          8           0       -4.081586   -0.986622    2.066842
     12          6           0       -5.060943    2.502782    5.350431
     13          1           0       -4.595160    3.367063    5.828652
     14          1           0       -5.238380    1.749814    6.126330
     15          6           0       -6.392417    2.950176    4.775584
     16          8           0       -6.676493    4.056125    4.401992
     17          8           0       -7.265336    1.889433    4.673442
     18          7           0       -2.989611    0.973802    1.601267
     19          1           0       -2.733196    1.909321    1.908471
     20          6           0       -2.289639    0.563355    0.389045
     21          1           0       -2.152800   -0.520570    0.418897
     22          6           0       -0.948749    1.319228    0.415781
     23          6           0       -3.089694    0.966689   -0.894219
     24          1           0       -2.545785    0.567648   -1.758293
     25          1           0       -3.050182    2.059747   -0.981399
     26          8           0       -0.841271    2.351207    1.082451
     27          6           0       -4.515626    0.499897   -0.909987
     28          6           0       -4.990077   -0.671823   -1.449263
     29          1           0       -4.460868   -1.445992   -1.988413
     30          6           0       -5.656001    1.165078   -0.323247
     31          6           0       -6.786383    0.324356   -0.532464
     32          6           0       -5.845211    2.390295    0.345802
     33          1           0       -5.015284    3.080077    0.481918
     34          7           0       -6.343545   -0.786503   -1.218104
     35          1           0       -6.929323   -1.528371   -1.571266
     36          6           0       -8.216517    1.869798    0.592382
     37          1           0       -9.203201    2.170002    0.934407
     38          6           0       -8.067292    0.662338   -0.081065
     39          1           0       -8.918816    0.011650   -0.260972
     40          6           0       -7.116344    2.730596    0.800997
     41          1           0       -7.270350    3.683321    1.300680
     42          7           0        0.028371    0.812588   -0.359202
     43          1           0       -0.108612   -0.016098   -0.934710
     44          6           0        1.270716    1.510448   -0.639528
     45          1           0        1.075023    2.586804   -0.683037
     46          6           0        1.761359    0.979376   -1.999392
     47          6           0        2.332722    1.277075    0.472249
     48          1           0        1.929379    1.742217    1.380752
     49          8           0        1.379037   -0.115511   -2.409805
     50          6           0        2.665064   -0.189020    0.732574
     51          1           0        1.779617   -0.739086    1.066270
     52          1           0        3.421444   -0.266944    1.521638
     53          1           0        3.056805   -0.675065   -0.166292
     54          8           0        3.497074    2.006151    0.043054
     55          1           0        4.517955    1.395433   -1.588273
     56          7           0        2.652735    1.773336   -2.636178
     57          1           0        2.858998    2.673212   -2.219388
     58          6           0        3.412879    1.382363   -3.820962
     59          1           0        2.935752    0.476402   -4.205973
     60          6           0        4.870057    1.003693   -3.466000
     61          6           0        3.348517    2.501889   -4.884908
     62          1           0        3.944460    3.361572   -4.549490
     63          1           0        2.307712    2.841562   -4.917471
     64          8           0        5.640259    0.613777   -4.309892
     65          6           0        3.794275    2.079807   -6.291437
     66          1           0        4.831122    1.731461   -6.266916
     67          1           0        3.189340    1.222275   -6.622522
     68          6           0        3.672298    3.210688   -7.327745
     69          1           0        4.272688    4.068425   -7.014144
     70          1           0        4.087006    2.866306   -8.281956
     71          7           0        2.303930    3.675944   -7.582481
     72          1           0        1.691060    2.948289   -7.932155
     73          7           0        2.446304    5.601863   -6.257561
     74          1           0        1.870236    6.307181   -5.810569
     75          1           0        3.061875    6.015116   -6.951142
     76          7           0        0.384105    4.566074   -6.448208
     77          1           0       -0.062530    3.706451   -6.775594
     78          6           0        1.632000    4.581693   -6.762222
     79          8           0        5.259783    1.156589   -2.185824
     80          1           0       -8.085159    2.231342    4.264121
     81          1           0        4.102221    2.098352    0.795741
 ---------------------------------------------------------------------

 SCF Done:  E(RB3LYP) =  -2053.91541473     A.U. after    1 cycles

 Alpha  occ. eigenvalues --  -19.33591 -19.27336 -19.26313 -19.25927 -19.24130
 Alpha  occ. eigenvalues --  -19.22703 -19.21160 -19.18388 -14.59772 -14.49511
 Alpha  occ. eigenvalues --  -14.47490 -14.46638 -14.45248 -14.39591 -14.38531
 Alpha  occ. eigenvalues --  -14.32891 -10.45518 -10.43581 -10.40459 -10.39821
 Alpha  occ. eigenvalues --  -10.38318 -10.37158 -10.35884 -10.35133 -10.34586
 Alpha  occ. eigenvalues --  -10.34303 -10.33318 -10.32463 -10.31504 -10.31451
 Alpha  occ. eigenvalues --  -10.30842 -10.30226 -10.28541 -10.28452 -10.28192
 Alpha  occ. eigenvalues --  -10.28067 -10.27901 -10.27869 -10.27155 -10.26501
 Alpha  occ. eigenvalues --  -10.25293 -10.23750  -1.23666  -1.18906  -1.15106
 Alpha  occ. eigenvalues --   -1.15028  -1.14761  -1.13779  -1.13177  -1.12451
 Alpha  occ. eigenvalues --   -1.07436  -1.06710  -1.06202  -1.03134  -1.01880
 Alpha  occ. eigenvalues --   -1.01674  -0.95900  -0.93461  -0.93134  -0.91281
 Alpha  occ. eigenvalues --   -0.88708  -0.88602  -0.88094  -0.85895  -0.85191
 Alpha  occ. eigenvalues --   -0.83114  -0.81848  -0.81040  -0.80379  -0.78842
 Alpha  occ. eigenvalues --   -0.77197  -0.74837  -0.73848  -0.73244  -0.72628
 Alpha  occ. eigenvalues --   -0.71871  -0.71666  -0.70544  -0.69133  -0.68778
 Alpha  occ. eigenvalues --   -0.67560  -0.67088  -0.66539  -0.65495  -0.65332
 Alpha  occ. eigenvalues --   -0.64908  -0.64488  -0.63792  -0.63249  -0.61828
 Alpha  occ. eigenvalues --   -0.61261  -0.60525  -0.60099  -0.59906  -0.58932
 Alpha  occ. eigenvalues --   -0.58787  -0.58266  -0.57773  -0.57659  -0.56803
 Alpha  occ. eigenvalues --   -0.56468  -0.55927  -0.55527  -0.55056  -0.54468
 Alpha  occ. eigenvalues --   -0.54151  -0.53321  -0.52974  -0.52772  -0.52414
 Alpha  occ. eigenvalues --   -0.52088  -0.51846  -0.51739  -0.51330  -0.51113
 Alpha  occ. eigenvalues --   -0.50945  -0.50876  -0.50242  -0.49816  -0.49423
 Alpha  occ. eigenvalues --   -0.48783  -0.48549  -0.48424  -0.48338  -0.48166
 Alpha  occ. eigenvalues --   -0.47725  -0.47357  -0.46898  -0.46805  -0.45546
 Alpha  occ. eigenvalues --   -0.45201  -0.44784  -0.44741  -0.43749  -0.43146
 Alpha  occ. eigenvalues --   -0.42978  -0.42885  -0.41960  -0.41421  -0.40913
 Alpha  occ. eigenvalues --   -0.40596  -0.40187  -0.39732  -0.39248  -0.38423
 Alpha  occ. eigenvalues --   -0.37277  -0.36752  -0.36325  -0.36217  -0.35566
 Alpha  occ. eigenvalues --   -0.34733  -0.31973  -0.31519  -0.30772  -0.30135
 Alpha  occ. eigenvalues --   -0.29805  -0.26865
 Alpha virt. eigenvalues --   -0.13367  -0.11955  -0.11061  -0.09982  -0.08801
 Alpha virt. eigenvalues --   -0.07210  -0.07063  -0.05958  -0.04532  -0.04298
 Alpha virt. eigenvalues --   -0.03094  -0.02901  -0.02716  -0.01901  -0.01030

 Mulliken charges:
               1
     1  N   -0.756455
     2  H    0.430320
     3  H    0.404693
     4  H    0.430084
     5  C   -0.139365
     6  H    0.251343
     7  C    0.676429
     8  C   -0.318706
     9  H    0.191213
    10  H    0.210623
    11  O   -0.543397
    12  C   -0.359234
    13  H    0.227480
    14  H    0.174168
    15  C    0.583482
    16  O   -0.404130
    17  O   -0.602356
    18  N   -0.610773
    19  H    0.368310
    20  C   -0.065555
    21  H    0.193646
    22  C    0.633334
    23  C   -0.368619
    24  H    0.176093
    25  H    0.176935
    26  O   -0.542240
    27  C    0.077670
    28  C    0.021366
    29  H    0.171849
    30  C    0.076969
    31  C    0.314487
    32  C   -0.252873
    33  H    0.131285
    34  N   -0.684163
    35  H    0.344627
    36  C   -0.171104
    37  H    0.141684
    38  C   -0.162948
    39  H    0.146376
    40  C   -0.162663
    41  H    0.151778
    42  N   -0.622089
    43  H    0.365389
    44  C   -0.055844
    45  H    0.191961
    46  C    0.611063
    47  C    0.123558
    48  H    0.162763
    49  O   -0.529233
    50  C   -0.468833
    51  H    0.155933
    52  H    0.159892
    53  H    0.185939
    54  O   -0.643872
    55  H    0.444061
    56  N   -0.631442
    57  H    0.352095
    58  C   -0.074780
    59  H    0.211428
    60  C    0.595347
    61  C   -0.279097
    62  H    0.153060
    63  H    0.171855
    64  O   -0.437765
    65  C   -0.272051
    66  H    0.189887
    67  H    0.129542
    68  C   -0.155735
    69  H    0.162507
    70  H    0.160241
    71  N   -0.581144
    72  H    0.310590
    73  N   -0.738836
    74  H    0.336273
    75  H    0.326969
    76  N   -0.645499
    77  H    0.258552
    78  C    0.554953
    79  O   -0.599321
    80  H    0.437032
    81  H    0.422986
 Sum of Mulliken charges =   1.00000

 Dipole moment (field-independent basis, Debye):
    X=            -21.0122    Y=              2.5530    Z=             13.6653  Tot=             25.1947
 Quadrupole moment (field-independent basis, Debye-Ang):
   XX=           -109.8925   YY=           -235.9230   ZZ=           -146.7474
   XY=             27.8151   XZ=            -70.8980   YZ=              2.8372

 Normal termination of Gaussian 16 at Thu May 26 18:14:11 2022.
