 Gaussian 16, Revision C.01,
 Gaussian 16:  ES64L-G16RevC.01  3-Jul-2019

 -------------------------------------------------------------------
 # B3LYP/6-31G* guess=read geom=check nosymm integral(ultrafinegrid)
 -------------------------------------------------------------------

 ------------------------------------------------------
 Candidate Structure: Conf:684 Charge calc in gas phase
 ------------------------------------------------------
 Structure from the checkpoint file:  "conf-684.chk"
 Charge =  1 Multiplicity = 1

                          Input orientation:
 ---------------------------------------------------------------------
 Center     Atomic      Atomic             Coordinates (Angstroms)
 Number     Number       Type             X           Y           Z
 ---------------------------------------------------------------------
      1          7           0       -5.578231    1.315766    4.198460
      2          1           0       -6.566001    1.573116    4.134150
      3          1           0       -5.400321    0.392646    3.661286
      4          1           0       -5.329407    1.215189    5.185690
      5          6           0       -4.651696    2.241186    3.431683
      6          1           0       -5.254387    3.059015    3.027622
      7          6           0       -4.156440    1.311630    2.280703
      8          6           0       -3.518903    2.769943    4.317130
      9          1           0       -2.985438    1.926207    4.772508
     10          1           0       -2.780040    3.262567    3.677102
     11          8           0       -4.490380    0.117297    2.343715
     12          6           0       -3.974225    3.760195    5.394424
     13          1           0       -4.688681    3.324011    6.105823
     14          1           0       -4.484004    4.625319    4.951344
     15          6           0       -2.783193    4.270134    6.193602
     16          8           0       -1.634029    3.963294    5.978003
     17          8           0       -3.179743    5.106440    7.169448
     18          7           0       -3.414393    1.869869    1.334878
     19          1           0       -3.063571    2.826252    1.411709
     20          6           0       -2.805162    1.157963    0.212698
     21          1           0       -2.705766    0.105447    0.488699
     22          6           0       -1.437307    1.844778    0.015556
     23          6           0       -3.646747    1.297832   -1.093994
     24          1           0       -3.117000    0.735357   -1.874101
     25          1           0       -3.616150    2.351089   -1.397992
     26          8           0       -1.279376    3.002276    0.419752
     27          6           0       -5.069869    0.840867   -0.992687
     28          6           0       -6.177783    1.653305   -1.017943
     29          1           0       -6.238557    2.728767   -1.122443
     30          6           0       -5.558437   -0.515129   -0.893432
     31          6           0       -6.976895   -0.445925   -0.860404
     32          6           0       -4.941362   -1.777576   -0.844274
     33          1           0       -3.858401   -1.869692   -0.875497
     34          7           0       -7.325549    0.892438   -0.915016
     35          1           0       -8.261236    1.239295   -1.062297
     36          6           0       -7.141331   -2.819913   -0.740346
     37          1           0       -7.735587   -3.727468   -0.688637
     38          6           0       -7.781729   -1.587343   -0.784101
     39          1           0       -8.866040   -1.516046   -0.769834
     40          6           0       -5.734796   -2.914476   -0.770023
     41          1           0       -5.268180   -3.894678   -0.739478
     42          7           0       -0.506216    1.138123   -0.641973
     43          1           0       -0.668811    0.185329   -0.958388
     44          6           0        0.789968    1.680328   -1.017602
     45          1           0        0.658821    2.722032   -1.328114
     46          6           0        1.303526    0.824499   -2.179576
     47          6           0        1.833205    1.676145    0.158179
     48          1           0        1.501402    2.441007    0.867029
     49          8           0        0.915631   -0.332106   -2.322226
     50          6           0        1.945290    0.328862    0.870577
     51          1           0        0.994557    0.024170    1.318266
     52          1           0        2.689273    0.408612    1.668926
     53          1           0        2.261305   -0.459985    0.178246
     54          8           0        3.088272    2.113232   -0.334004
     55          1           0        3.605670    1.361400   -0.673464
     56          7           0        2.201266    1.444273   -2.995340
     57          1           0        2.546845    2.332735   -2.649168
     58          6           0        3.113728    0.660962   -3.837463
     59          1           0        2.847954   -0.385397   -3.649755
     60          6           0        4.518901    0.871309   -3.239195
     61          6           0        2.944219    0.966001   -5.333337
     62          1           0        3.305883    1.977577   -5.551801
     63          1           0        1.864201    0.966547   -5.524923
     64          8           0        4.806102    0.603260   -2.088442
     65          6           0        3.628819   -0.051108   -6.257490
     66          1           0        4.711325   -0.042619   -6.097688
     67          1           0        3.269306   -1.063045   -6.019370
     68          6           0        3.357097    0.241975   -7.742080
     69          1           0        2.278789    0.223548   -7.942771
     70          1           0        3.703524    1.251179   -7.982602
     71          7           0        3.986704   -0.701991   -8.668082
     72          1           0        3.573522   -1.627059   -8.632082
     73          7           0        6.000443    0.487536   -8.796999
     74          1           0        6.979386    0.383295   -9.042600
     75          1           0        5.544993    1.175673   -9.388784
     76          7           0        6.094646   -1.820939   -8.960763
     77          1           0        5.542052   -2.668944   -8.818642
     78          6           0        5.379406   -0.766756   -8.812292
     79          8           0        5.373727    1.447225   -4.096912
     80          1           0       -2.378389    5.408342    7.639505
     81          1           0        6.238163    1.600476   -3.622753
 ---------------------------------------------------------------------

 SCF Done:  E(RB3LYP) =  -2053.90949327     A.U. after    1 cycles

 Alpha  occ. eigenvalues --  -19.30215 -19.28494 -19.27454 -19.24884 -19.22670
 Alpha  occ. eigenvalues --  -19.22038 -19.21192 -19.20833 -14.60084 -14.49903
 Alpha  occ. eigenvalues --  -14.46114 -14.46059 -14.44722 -14.39185 -14.37754
 Alpha  occ. eigenvalues --  -14.32155 -10.44110 -10.43378 -10.41565 -10.40811
 Alpha  occ. eigenvalues --  -10.39195 -10.37576 -10.34826 -10.34759 -10.33845
 Alpha  occ. eigenvalues --  -10.31818 -10.31793 -10.31761 -10.31622 -10.30414
 Alpha  occ. eigenvalues --  -10.29628 -10.29602 -10.27380 -10.26844 -10.26308
 Alpha  occ. eigenvalues --  -10.26202 -10.26081 -10.25795 -10.25700 -10.25289
 Alpha  occ. eigenvalues --  -10.24900 -10.24335  -1.21316  -1.19935  -1.19039
 Alpha  occ. eigenvalues --   -1.14293  -1.13776  -1.12659  -1.12550  -1.10093
 Alpha  occ. eigenvalues --   -1.08909  -1.06564  -1.05917  -1.02398  -1.01345
 Alpha  occ. eigenvalues --   -1.01245  -0.95520  -0.92666  -0.91481  -0.90559
 Alpha  occ. eigenvalues --   -0.88108  -0.88065  -0.87314  -0.85845  -0.83977
 Alpha  occ. eigenvalues --   -0.81038  -0.80834  -0.80317  -0.79560  -0.78435
 Alpha  occ. eigenvalues --   -0.76576  -0.74578  -0.73314  -0.73133  -0.72061
 Alpha  occ. eigenvalues --   -0.71021  -0.70660  -0.70034  -0.69847  -0.67664
 Alpha  occ. eigenvalues --   -0.67175  -0.66809  -0.66471  -0.65869  -0.64477
 Alpha  occ. eigenvalues --   -0.63865  -0.63785  -0.62105  -0.61620  -0.61451
 Alpha  occ. eigenvalues --   -0.60114  -0.59487  -0.58664  -0.58375  -0.58368
 Alpha  occ. eigenvalues --   -0.58053  -0.57209  -0.56930  -0.56330  -0.56091
 Alpha  occ. eigenvalues --   -0.55724  -0.55386  -0.54807  -0.54600  -0.53613
 Alpha  occ. eigenvalues --   -0.53377  -0.53199  -0.52896  -0.52406  -0.51830
 Alpha  occ. eigenvalues --   -0.51587  -0.51201  -0.50832  -0.50612  -0.50551
 Alpha  occ. eigenvalues --   -0.49913  -0.49813  -0.49781  -0.49304  -0.49213
 Alpha  occ. eigenvalues --   -0.48868  -0.48612  -0.48116  -0.47984  -0.47647
 Alpha  occ. eigenvalues --   -0.47087  -0.46546  -0.46379  -0.45683  -0.45000
 Alpha  occ. eigenvalues --   -0.44395  -0.43700  -0.42995  -0.42784  -0.42510
 Alpha  occ. eigenvalues --   -0.42254  -0.41492  -0.41044  -0.40902  -0.40790
 Alpha  occ. eigenvalues --   -0.40436  -0.39843  -0.39488  -0.39320  -0.38596
 Alpha  occ. eigenvalues --   -0.37542  -0.36499  -0.36329  -0.34894  -0.34722
 Alpha  occ. eigenvalues --   -0.34186  -0.32742  -0.30286  -0.29896  -0.29400
 Alpha  occ. eigenvalues --   -0.28333  -0.26447
 Alpha virt. eigenvalues --   -0.12636  -0.11991  -0.09826  -0.09156  -0.08877
 Alpha virt. eigenvalues --   -0.07885  -0.06872  -0.05736  -0.05000  -0.04801
 Alpha virt. eigenvalues --   -0.02712  -0.02221  -0.01722  -0.01185  -0.00900

 Mulliken charges:
               1
     1  N   -0.764623
     2  H    0.414747
     3  H    0.442697
     4  H    0.410659
     5  C   -0.109210
     6  H    0.215141
     7  C    0.662857
     8  C   -0.303496
     9  H    0.194704
    10  H    0.221799
    11  O   -0.534047
    12  C   -0.376090
    13  H    0.170105
    14  H    0.203126
    15  C    0.597573
    16  O   -0.435926
    17  O   -0.556860
    18  N   -0.592128
    19  H    0.369677
    20  C   -0.079719
    21  H    0.197137
    22  C    0.639305
    23  C   -0.365486
    24  H    0.177781
    25  H    0.164873
    26  O   -0.547868
    27  C    0.077212
    28  C   -0.022353
    29  H    0.152816
    30  C    0.099356
    31  C    0.299649
    32  C   -0.203860
    33  H    0.118959
    34  N   -0.688983
    35  H    0.336650
    36  C   -0.150211
    37  H    0.142109
    38  C   -0.165418
    39  H    0.134761
    40  C   -0.138814
    41  H    0.138310
    42  N   -0.619653
    43  H    0.361880
    44  C   -0.054460
    45  H    0.185605
    46  C    0.593272
    47  C    0.141232
    48  H    0.165725
    49  O   -0.529003
    50  C   -0.486348
    51  H    0.142308
    52  H    0.177693
    53  H    0.170825
    54  O   -0.661657
    55  H    0.435116
    56  N   -0.594064
    57  H    0.350065
    58  C   -0.056059
    59  H    0.213569
    60  C    0.583985
    61  C   -0.260877
    62  H    0.155601
    63  H    0.153801
    64  O   -0.470596
    65  C   -0.279123
    66  H    0.181041
    67  H    0.132668
    68  C   -0.138909
    69  H    0.146427
    70  H    0.157011
    71  N   -0.582706
    72  H    0.310294
    73  N   -0.738887
    74  H    0.339682
    75  H    0.322736
    76  N   -0.627551
    77  H    0.263416
    78  C    0.546324
    79  O   -0.539714
    80  H    0.433140
    81  H    0.429282
 Sum of Mulliken charges =   1.00000

 Dipole moment (field-independent basis, Debye):
    X=            -22.0119    Y=             11.2780    Z=             11.2759  Tot=             27.1820
 Quadrupole moment (field-independent basis, Debye-Ang):
   XX=            -91.2775   YY=           -210.1879   ZZ=           -143.4590
   XY=            -31.4315   XZ=            -81.9585   YZ=             19.0105

 Normal termination of Gaussian 16 at Thu May 26 18:14:10 2022.
