 Gaussian 16, Revision C.01,
 Gaussian 16:  ES64L-G16RevC.01  3-Jul-2019

 -------------------------------------------------------------------
 # B3LYP/6-31G* guess=read geom=check nosymm integral(ultrafinegrid)
 -------------------------------------------------------------------

 ------------------------------------------------------
 Candidate Structure: Conf:304 Charge calc in gas phase
 ------------------------------------------------------
 Structure from the checkpoint file:  "conf-304.chk"
 Charge =  1 Multiplicity = 1

                          Input orientation:
 ---------------------------------------------------------------------
 Center     Atomic      Atomic             Coordinates (Angstroms)
 Number     Number       Type             X           Y           Z
 ---------------------------------------------------------------------
      1          7           0       -4.138054   -0.039749   -0.977953
      2          1           0       -4.548234    0.866323   -0.737354
      3          1           0       -3.215421    0.193238   -2.581041
      4          1           0       -4.933333   -0.656195   -1.151913
      5          6           0       -3.392242   -0.557201    0.197593
      6          1           0       -4.000705   -0.498628    1.104891
      7          6           0       -2.147406    0.325932    0.377811
      8          6           0       -3.002438   -2.025730   -0.046338
      9          1           0       -3.920973   -2.615475   -0.163346
     10          1           0       -2.457337   -2.085358   -0.995107
     11          8           0       -1.442719    0.645357   -0.592834
     12          6           0       -2.121833   -2.665702    1.047359
     13          1           0       -1.170937   -2.120922    1.115051
     14          1           0       -1.887119   -3.696157    0.771870
     15          6           0       -2.733833   -2.644082    2.436277
     16          8           0       -3.115182   -1.643140    3.018759
     17          8           0       -2.799373   -3.868483    2.980327
     18          7           0       -1.877845    0.748657    1.628255
     19          1           0       -2.465402    0.403881    2.381530
     20          6           0       -1.072276    1.949419    1.867422
     21          1           0       -1.060566    2.475511    0.906379
     22          6           0        0.411926    1.661809    2.173689
     23          6           0       -1.735985    2.852004    2.927743
     24          1           0       -1.200842    3.808555    2.915460
     25          1           0       -1.566384    2.434599    3.926200
     26          8           0        1.002092    2.190709    3.101586
     27          6           0       -3.208242    3.022203    2.672763
     28          6           0       -4.218132    2.720509    3.553667
     29          1           0       -4.154540    2.387854    4.581097
     30          6           0       -3.853452    3.425201    1.443442
     31          6           0       -5.258548    3.324987    1.653826
     32          6           0       -3.396385    3.861926    0.183574
     33          1           0       -2.335738    4.024505    0.007795
     34          7           0       -5.447461    2.895471    2.949919
     35          1           0       -6.338330    2.823009    3.417984
     36          6           0       -5.705578    4.009497   -0.590171
     37          1           0       -6.404366    4.248627   -1.386198
     38          6           0       -6.191616    3.609910    0.649420
     39          1           0       -7.259704    3.532121    0.833411
     40          6           0       -4.319064    4.142431   -0.819887
     41          1           0       -3.975287    4.506652   -1.784497
     42          7           0        1.013169    0.808534    1.276096
     43          1           0        0.476404    0.607118    0.434630
     44          6           0        2.483425    0.764212    1.165539
     45          1           0        2.883721    1.695604    1.571240
     46          6           0        2.865017    0.686464   -0.309805
     47          6           0        3.080609   -0.432713    1.953243
     48          1           0        4.139827   -0.518884    1.687521
     49          8           0        2.654427   -0.503699   -0.917567
     50          6           0        2.942781   -0.326418    3.465165
     51          1           0        3.414036    0.587776    3.836933
     52          1           0        3.420830   -1.189908    3.936891
     53          1           0        1.890530   -0.292446    3.766499
     54          8           0        2.487269   -1.661415    1.467122
     55          1           0        1.584410   -1.687772    1.827288
     56          7           0        3.330064    1.710507   -0.909766
     57          1           0        4.710137    3.022499   -0.710035
     58          6           0        3.790658    1.604167   -2.292322
     59          1           0        4.061666    0.575554   -2.560766
     60          6           0        5.068870    2.459312   -2.457407
     61          6           0        2.756475    2.126245   -3.315861
     62          1           0        3.267317    2.152030   -4.284927
     63          1           0        2.497123    3.163118   -3.061320
     64          8           0        5.695316    2.466541   -3.489593
     65          6           0        1.490290    1.269512   -3.398425
     66          1           0        1.759466    0.219644   -3.567223
     67          1           0        0.956098    1.294234   -2.440048
     68          6           0        0.543351    1.727464   -4.520204
     69          1           0        0.313663    2.797994   -4.466975
     70          1           0        0.997947    1.576272   -5.502989
     71          7           0       -0.724683    0.977236   -4.520996
     72          1           0       -0.711439    0.085709   -4.998912
     73          7           0       -1.744638    2.277795   -2.880614
     74          1           0       -2.316412    2.252962   -2.044702
     75          1           0       -0.885764    2.794576   -2.760327
     76          7           0       -2.685974    0.253053   -3.482792
     77          1           0       -2.649278   -0.591193   -4.037625
     78          6           0       -1.698530    1.145706   -3.609791
     79          8           0        5.394751    3.207043   -1.394673
     80          1           0       -3.182850   -3.775146    3.874634
     81          1           0        2.508053   -1.188509   -0.214120
 ---------------------------------------------------------------------

 SCF Done:  E(RB3LYP) =  -2053.94326360     A.U. after    1 cycles

 Alpha  occ. eigenvalues --  -19.30945 -19.27486 -19.26975 -19.25608 -19.24389
 Alpha  occ. eigenvalues --  -19.24233 -19.21995 -19.18528 -14.51004 -14.49698
 Alpha  occ. eigenvalues --  -14.48814 -14.47839 -14.47342 -14.46443 -14.46101
 Alpha  occ. eigenvalues --  -14.41620 -10.46399 -10.43881 -10.40948 -10.38894
 Alpha  occ. eigenvalues --  -10.38375 -10.37092 -10.35259 -10.34998 -10.34374
 Alpha  occ. eigenvalues --  -10.34169 -10.33362 -10.32145 -10.32125 -10.31546
 Alpha  occ. eigenvalues --  -10.31337 -10.30815 -10.29623 -10.29068 -10.28693
 Alpha  occ. eigenvalues --  -10.28531 -10.28359 -10.28206 -10.28033 -10.27983
 Alpha  occ. eigenvalues --  -10.27868 -10.26501  -1.22000  -1.17106  -1.16025
 Alpha  occ. eigenvalues --   -1.15224  -1.14995  -1.13802  -1.13281  -1.12879
 Alpha  occ. eigenvalues --   -1.07331  -1.07019  -1.04666  -1.04370  -1.02970
 Alpha  occ. eigenvalues --   -1.02413  -1.02142  -1.00278  -0.93485  -0.91852
 Alpha  occ. eigenvalues --   -0.90500  -0.90250  -0.88047  -0.86009  -0.84675
 Alpha  occ. eigenvalues --   -0.83331  -0.82975  -0.81752  -0.80686  -0.78619
 Alpha  occ. eigenvalues --   -0.77231  -0.75925  -0.74997  -0.72548  -0.71843
 Alpha  occ. eigenvalues --   -0.71684  -0.71280  -0.70065  -0.69789  -0.68756
 Alpha  occ. eigenvalues --   -0.68563  -0.67907  -0.67641  -0.65904  -0.65757
 Alpha  occ. eigenvalues --   -0.64477  -0.63981  -0.63401  -0.62904  -0.62290
 Alpha  occ. eigenvalues --   -0.61803  -0.61478  -0.60822  -0.60012  -0.59773
 Alpha  occ. eigenvalues --   -0.59466  -0.59091  -0.58316  -0.58138  -0.57935
 Alpha  occ. eigenvalues --   -0.57741  -0.57186  -0.56971  -0.56689  -0.56329
 Alpha  occ. eigenvalues --   -0.55915  -0.55050  -0.54206  -0.53589  -0.53352
 Alpha  occ. eigenvalues --   -0.52760  -0.52697  -0.52406  -0.51966  -0.51219
 Alpha  occ. eigenvalues --   -0.50982  -0.50848  -0.50578  -0.49845  -0.49762
 Alpha  occ. eigenvalues --   -0.49585  -0.49244  -0.48745  -0.48620  -0.48118
 Alpha  occ. eigenvalues --   -0.48024  -0.48010  -0.47525  -0.46827  -0.46538
 Alpha  occ. eigenvalues --   -0.46367  -0.45890  -0.45679  -0.44987  -0.44726
 Alpha  occ. eigenvalues --   -0.43973  -0.43180  -0.43079  -0.42861  -0.42577
 Alpha  occ. eigenvalues --   -0.42464  -0.41307  -0.40394  -0.39585  -0.39312
 Alpha  occ. eigenvalues --   -0.38898  -0.38614  -0.37974  -0.37566  -0.37026
 Alpha  occ. eigenvalues --   -0.36899  -0.35631  -0.35297  -0.34527  -0.31961
 Alpha  occ. eigenvalues --   -0.31879  -0.29937
 Alpha virt. eigenvalues --   -0.11549  -0.11311  -0.11026  -0.10637  -0.09624
 Alpha virt. eigenvalues --   -0.07610  -0.07521  -0.06940  -0.05588  -0.04687
 Alpha virt. eigenvalues --   -0.04263  -0.04122  -0.03049  -0.02246  -0.01924

 Mulliken charges:
               1
     1  N   -0.783010
     2  H    0.346673
     3  H    0.443232
     4  H    0.332581
     5  C   -0.047333
     6  H    0.178561
     7  C    0.606455
     8  C   -0.282163
     9  H    0.167484
    10  H    0.166306
    11  O   -0.583277
    12  C   -0.368992
    13  H    0.177377
    14  H    0.200921
    15  C    0.594573
    16  O   -0.477955
    17  O   -0.538319
    18  N   -0.585157
    19  H    0.374933
    20  C   -0.085394
    21  H    0.178115
    22  C    0.633712
    23  C   -0.372503
    24  H    0.191376
    25  H    0.175313
    26  O   -0.496337
    27  C    0.061791
    28  C   -0.001589
    29  H    0.173232
    30  C    0.075002
    31  C    0.306566
    32  C   -0.237996
    33  H    0.128159
    34  N   -0.683362
    35  H    0.344271
    36  C   -0.160822
    37  H    0.148851
    38  C   -0.165561
    39  H    0.148030
    40  C   -0.161788
    41  H    0.138862
    42  N   -0.664672
    43  H    0.363290
    44  C   -0.028570
    45  H    0.202107
    46  C    0.506440
    47  C    0.093059
    48  H    0.179925
    49  O   -0.632618
    50  C   -0.461597
    51  H    0.185709
    52  H    0.176537
    53  H    0.154479
    54  O   -0.637507
    55  H    0.406906
    56  N   -0.506560
    57  H    0.427474
    58  C   -0.086559
    59  H    0.184687
    60  C    0.604395
    61  C   -0.271171
    62  H    0.187977
    63  H    0.147550
    64  O   -0.457913
    65  C   -0.278072
    66  H    0.165877
    67  H    0.152579
    68  C   -0.193687
    69  H    0.181672
    70  H    0.199118
    71  N   -0.581132
    72  H    0.354343
    73  N   -0.728150
    74  H    0.374412
    75  H    0.368811
    76  N   -0.791916
    77  H    0.348596
    78  C    0.787722
    79  O   -0.568179
    80  H    0.427540
    81  H    0.446278
 Sum of Mulliken charges =   1.00000

 Dipole moment (field-independent basis, Debye):
    X=            -17.4442    Y=             -2.1988    Z=             -1.6429  Tot=             17.6588
 Quadrupole moment (field-independent basis, Debye-Ang):
   XX=           -201.3110   YY=           -230.4094   ZZ=           -183.8248
   XY=            -20.9430   XZ=              7.6598   YZ=             -3.1646

 Normal termination of Gaussian 16 at Thu May 26 18:14:18 2022.
