 Gaussian 16, Revision C.01,
 Gaussian 16:  ES64L-G16RevC.01  3-Jul-2019

 ----------------------------------------------------------------------
 # B3LYP/6-31G* empiricaldispersion=gd3 guess=read geom=check nosymm in
 tegral(ultrafinegrid)
 ----------------------------------------------------------------------

 ------------------------------------------------------
 Candidate Structure: Conf:306 Charge calc in gas phase
 ------------------------------------------------------
 Structure from the checkpoint file:  "conf-306.chk"
 Charge =  1 Multiplicity = 1

                          Input orientation:
 ---------------------------------------------------------------------
 Center     Atomic      Atomic             Coordinates (Angstroms)
 Number     Number       Type             X           Y           Z
 ---------------------------------------------------------------------
      1          7           0        5.659723    5.085751    0.525427
      2          1           0        6.214667    5.892013    0.231775
      3          1           0        5.392965    5.178201    1.526444
      4          1           0        6.234370    4.209592    0.358245
      5          6           0        4.368405    4.950470   -0.220777
      6          1           0        4.489595    4.232870   -1.031667
      7          1           0        4.073354    5.924610   -0.618274
      8          6           0        3.334772    4.495215    0.823172
      9          8           0        3.557664    4.724205    2.015410
     10          7           0        2.223847    3.921413    0.342411
     11          1           0        2.243324    3.490324   -0.583635
     12          6           0        1.154852    3.521591    1.242247
     13          1           0        1.527855    2.824809    2.006390
     14          1           0        0.767961    4.399094    1.770514
     15          6           0        0.070428    2.811203    0.437468
     16          8           0        0.343241    2.159769   -0.571600
     17          7           0       -1.194534    2.951370    0.901181
     18          1           0       -1.332489    3.333270    1.827393
     19          6           0       -2.248910    2.126719    0.347442
     20          1           0       -2.275261    2.266024   -0.737438
     21          1           0       -3.206616    2.461620    0.756497
     22          6           0       -2.032555    0.645871    0.701544
     23          8           0       -1.363702    0.320086    1.682385
     24          7           0       -2.639924   -0.241711   -0.118648
     25          1           0       -3.083209    0.085092   -0.966551
     26          6           0       -2.592296   -1.684499    0.117128
     27          1           0       -2.731666   -1.861150    1.188428
     28          1           0       -3.403963   -2.157798   -0.435106
     29          6           0       -1.274822   -2.320002   -0.363357
     30          8           0       -1.229048   -3.076501   -1.319590
     31          7           0       -0.177400   -1.951199    0.371531
     32          1           0       -0.321143   -1.325874    1.160122
     33          6           0        1.127483   -2.511549    0.102655
     34          1           0        0.997457   -3.446179   -0.451532
     35          1           0        1.643030   -2.751101    1.037833
     36          6           0        2.072910   -1.649101   -0.729596
     37          8           0        3.224104   -2.045498   -0.956231
     38          7           0        1.605229   -0.468711   -1.192042
     39          1           0        0.698142   -0.131949   -0.894784
     40          6           0        2.348158    0.338264   -2.148782
     41          1           0        2.771281   -0.323632   -2.914099
     42          1           0        1.663074    1.043652   -2.615278
     43          6           0        3.482834    1.156856   -1.527641
     44          8           0        3.559674    2.384141   -1.658409
     45          7           0        4.414189    0.451172   -0.839049
     46          1           0        4.268297   -0.562279   -0.754488
     47          6           0        5.403842    1.155425   -0.051455
     48          1           0        4.930434    1.882409    0.617506
     49          1           0        5.939925    0.429147    0.568048
     50          6           0        6.437381    1.915306   -0.881157
     51          8           0        6.936475    2.983251   -0.481497
     52          7           0        6.825442    1.351661   -2.031816
     53          1           0        6.436433    0.453095   -2.284936
     54          6           0        7.890075    1.933971   -2.829056
     55          1           0        7.941508    1.403874   -3.784144
     56          1           0        7.676250    2.984470   -3.036285
     57          6           0        9.273587    1.882164   -2.180698
     58          8           0       10.168957    2.628695   -2.487024
     59          8           0        9.378909    0.886916   -1.274401
     60          1           0       10.294835    0.910780   -0.936594
 ---------------------------------------------------------------------

 SCF Done:  E(RB3LYP) =  -1741.00820589     A.U. after    2 cycles

 Alpha  occ. eigenvalues --  -19.29093 -19.25587 -19.25347 -19.24292 -19.24121
 Alpha  occ. eigenvalues --  -19.23074 -19.22884 -19.21583 -19.20158 -14.56521
 Alpha  occ. eigenvalues --  -14.49059 -14.48463 -14.48459 -14.47667 -14.47346
 Alpha  occ. eigenvalues --  -14.46399 -14.44580 -10.42282 -10.42100 -10.41657
 Alpha  occ. eigenvalues --  -10.41411 -10.40584 -10.40068 -10.38727 -10.37583
 Alpha  occ. eigenvalues --  -10.37459 -10.35458 -10.35055 -10.34600 -10.34484
 Alpha  occ. eigenvalues --  -10.33289 -10.32435 -10.31688  -1.19914  -1.17578
 Alpha  occ. eigenvalues --   -1.16963  -1.16261  -1.15574  -1.14632  -1.13445
 Alpha  occ. eigenvalues --   -1.12031  -1.11168  -1.11002  -1.05615  -1.05087
 Alpha  occ. eigenvalues --   -1.04593  -1.03638  -1.03411  -1.02608  -1.00551
 Alpha  occ. eigenvalues --   -0.89256  -0.88330  -0.86834  -0.85337  -0.83972
 Alpha  occ. eigenvalues --   -0.82328  -0.80681  -0.78788  -0.73682  -0.72054
 Alpha  occ. eigenvalues --   -0.71731  -0.71383  -0.70884  -0.70603  -0.69836
 Alpha  occ. eigenvalues --   -0.69568  -0.68530  -0.67215  -0.66354  -0.65173
 Alpha  occ. eigenvalues --   -0.64416  -0.63605  -0.63409  -0.61857  -0.61399
 Alpha  occ. eigenvalues --   -0.60960  -0.60321  -0.59552  -0.58962  -0.58238
 Alpha  occ. eigenvalues --   -0.57741  -0.57494  -0.57124  -0.56883  -0.56096
 Alpha  occ. eigenvalues --   -0.55759  -0.55676  -0.55428  -0.54495  -0.54410
 Alpha  occ. eigenvalues --   -0.53612  -0.52943  -0.52872  -0.52529  -0.52154
 Alpha  occ. eigenvalues --   -0.51841  -0.51306  -0.50753  -0.50105  -0.49827
 Alpha  occ. eigenvalues --   -0.49416  -0.49092  -0.48874  -0.48646  -0.48210
 Alpha  occ. eigenvalues --   -0.47808  -0.47180  -0.46232  -0.45408  -0.41103
 Alpha  occ. eigenvalues --   -0.40909  -0.40295  -0.39794  -0.39290  -0.38909
 Alpha  occ. eigenvalues --   -0.38474  -0.38036  -0.37979  -0.37358  -0.37098
 Alpha  occ. eigenvalues --   -0.36478  -0.36050  -0.35212  -0.33493  -0.33115
 Alpha virt. eigenvalues --   -0.11758  -0.10889  -0.10371  -0.10156  -0.09067
 Alpha virt. eigenvalues --   -0.08349  -0.07542  -0.07072  -0.06555  -0.03386
 Alpha virt. eigenvalues --   -0.02811  -0.02289  -0.01435  -0.01024  -0.00715

 Mulliken charges:
               1
     1  N   -0.765380
     2  H    0.405150
     3  H    0.412699
     4  H    0.447806
     5  C   -0.293768
     6  H    0.262332
     7  H    0.230220
     8  C    0.616785
     9  O   -0.522583
    10  N   -0.621599
    11  H    0.400422
    12  C   -0.203532
    13  H    0.213397
    14  H    0.195336
    15  C    0.612971
    16  O   -0.543679
    17  N   -0.563415
    18  H    0.356463
    19  C   -0.250902
    20  H    0.198366
    21  H    0.208133
    22  C    0.631161
    23  O   -0.538154
    24  N   -0.588254
    25  H    0.352050
    26  C   -0.241032
    27  H    0.203557
    28  H    0.201980
    29  C    0.583426
    30  O   -0.479337
    31  N   -0.627363
    32  H    0.373436
    33  C   -0.221134
    34  H    0.235129
    35  H    0.192775
    36  C    0.609312
    37  O   -0.551475
    38  N   -0.586324
    39  H    0.369158
    40  C   -0.225129
    41  H    0.203289
    42  H    0.204603
    43  C    0.599649
    44  O   -0.549546
    45  N   -0.609462
    46  H    0.400994
    47  C   -0.233229
    48  H    0.173647
    49  H    0.215090
    50  C    0.658696
    51  O   -0.591569
    52  N   -0.549586
    53  H    0.361816
    54  C   -0.226397
    55  H    0.211912
    56  H    0.213386
    57  C    0.595526
    58  O   -0.432952
    59  O   -0.563002
    60  H    0.428128
 Sum of Mulliken charges =   1.00000

 Dipole moment (field-independent basis, Debye):
    X=             13.2879    Y=             14.4720    Z=              0.1960  Tot=             19.6480
 Quadrupole moment (field-independent basis, Debye-Ang):
   XX=            -62.1595   YY=           -125.3369   ZZ=           -180.6625
   XY=             44.0468   XZ=             -6.4628   YZ=             -0.5188

 Normal termination of Gaussian 16 at Mon Jul 18 21:40:11 2022.
