 Gaussian 16, Revision C.01,
 Gaussian 16:  ES64L-G16RevC.01  3-Jul-2019

 ----------------------------------------------------------------------
 # B3LYP/6-31G* empiricaldispersion=gd3 guess=read geom=check nosymm in
 tegral(ultrafinegrid)
 ----------------------------------------------------------------------

 ------------------------------------------------------
 Candidate Structure: Conf:617 Charge calc in gas phase
 ------------------------------------------------------
 Structure from the checkpoint file:  "conf-617.chk"
 Charge =  1 Multiplicity = 1

                          Input orientation:
 ---------------------------------------------------------------------
 Center     Atomic      Atomic             Coordinates (Angstroms)
 Number     Number       Type             X           Y           Z
 ---------------------------------------------------------------------
      1          7           0        3.073525    4.014025   -2.270381
      2          1           0        3.749987    4.775614   -2.178373
      3          1           0        2.851281    3.581262   -1.303058
      4          1           0        3.446805    3.264939   -2.867943
      5          6           0        1.772085    4.460484   -2.851362
      6          1           0        1.952974    5.094022   -3.724107
      7          1           0        1.238979    5.027133   -2.085265
      8          6           0        1.029351    3.172731   -3.248936
      9          8           0        1.672823    2.130453   -3.372165
     10          7           0       -0.293339    3.304427   -3.465056
     11          1           0       -0.753142    4.138914   -3.114749
     12          6           0       -1.168541    2.135914   -3.526447
     13          1           0       -1.962952    2.314897   -4.257496
     14          1           0       -0.577624    1.278124   -3.851160
     15          6           0       -1.781786    1.963146   -2.128573
     16          8           0       -2.076815    2.969539   -1.478259
     17          7           0       -1.936576    0.704075   -1.665715
     18          1           0       -1.553875   -0.070949   -2.191473
     19          6           0       -2.348361    0.450725   -0.279842
     20          1           0       -2.683199   -0.582347   -0.191422
     21          1           0       -3.168333    1.128758   -0.031553
     22          6           0       -1.131822    0.650133    0.638135
     23          8           0       -0.453197   -0.293274    1.032417
     24          7           0       -0.821390    1.953363    0.891502
     25          1           0       -1.334388    2.669582    0.384569
     26          6           0        0.440977    2.302202    1.527623
     27          1           0        0.392397    3.332068    1.882175
     28          1           0        0.605520    1.632751    2.376095
     29          6           0        1.597140    2.195976    0.527586
     30          8           0        2.047268    3.230498   -0.020457
     31          7           0        2.039559    0.963968    0.277054
     32          1           0        1.541761    0.161918    0.677023
     33          6           0        3.087794    0.659422   -0.677259
     34          1           0        3.990536    1.237612   -0.440857
     35          1           0        2.771622    0.916539   -1.696508
     36          6           0        3.368737   -0.847692   -0.608061
     37          8           0        2.563792   -1.607982   -0.073267
     38          7           0        4.507442   -1.262573   -1.207530
     39          1           0        5.209143   -0.584040   -1.471792
     40          6           0        4.904071   -2.673558   -1.198350
     41          1           0        4.005911   -3.274416   -1.363792
     42          1           0        5.610730   -2.841654   -2.011295
     43          6           0        5.605787   -3.044483    0.122485
     44          8           0        6.823556   -3.108135    0.194910
     45          7           0        4.749301   -3.254111    1.167083
     46          1           0        3.767382   -3.044457    1.018196
     47          6           0        5.218827   -3.430246    2.532439
     48          1           0        6.309213   -3.513725    2.492528
     49          1           0        4.970453   -2.565062    3.155894
     50          6           0        4.672557   -4.667062    3.251405
     51          8           0        4.646398   -4.709842    4.471241
     52          7           0        4.237259   -5.680270    2.439692
     53          1           0        4.487838   -5.619842    1.461816
     54          6           0        3.965177   -6.989746    2.989442
     55          1           0        3.659186   -6.858776    4.031041
     56          1           0        3.138347   -7.472033    2.458962
     57          6           0        5.139734   -7.963695    2.985723
     58          8           0        5.044452   -9.117729    3.328407
     59          8           0        6.289813   -7.395086    2.555211
     60          1           0        6.976846   -8.086017    2.613795
 ---------------------------------------------------------------------

 SCF Done:  E(RB3LYP) =  -1740.96997130     A.U. after    3 cycles

 Alpha  occ. eigenvalues --  -19.28345 -19.26931 -19.25413 -19.25231 -19.24201
 Alpha  occ. eigenvalues --  -19.23347 -19.19751 -19.18993 -19.17226 -14.59405
 Alpha  occ. eigenvalues --  -14.51784 -14.50290 -14.49315 -14.48630 -14.47641
 Alpha  occ. eigenvalues --  -14.44156 -14.42258 -10.45674 -10.42850 -10.42689
 Alpha  occ. eigenvalues --  -10.41571 -10.41343 -10.40410 -10.37442 -10.37183
 Alpha  occ. eigenvalues --  -10.37022 -10.36201 -10.34858 -10.34826 -10.34797
 Alpha  occ. eigenvalues --  -10.32816 -10.29443 -10.29106  -1.20549  -1.17829
 Alpha  occ. eigenvalues --   -1.17481  -1.16178  -1.15877  -1.15120  -1.14023
 Alpha  occ. eigenvalues --   -1.11687  -1.09340  -1.08131  -1.06881  -1.05946
 Alpha  occ. eigenvalues --   -1.05890  -1.04391  -1.03781  -1.00488  -0.98242
 Alpha  occ. eigenvalues --   -0.91651  -0.89446  -0.87531  -0.85217  -0.83503
 Alpha  occ. eigenvalues --   -0.81830  -0.80448  -0.77393  -0.74890  -0.74472
 Alpha  occ. eigenvalues --   -0.74154  -0.72495  -0.71717  -0.70785  -0.69852
 Alpha  occ. eigenvalues --   -0.68186  -0.67674  -0.67014  -0.66289  -0.65516
 Alpha  occ. eigenvalues --   -0.64789  -0.64335  -0.63701  -0.62744  -0.61679
 Alpha  occ. eigenvalues --   -0.61598  -0.60730  -0.60359  -0.59658  -0.59106
 Alpha  occ. eigenvalues --   -0.58815  -0.58319  -0.57808  -0.57117  -0.55960
 Alpha  occ. eigenvalues --   -0.55719  -0.54715  -0.53953  -0.53844  -0.53479
 Alpha  occ. eigenvalues --   -0.53013  -0.52839  -0.52458  -0.51940  -0.51508
 Alpha  occ. eigenvalues --   -0.51312  -0.50728  -0.50620  -0.50373  -0.50072
 Alpha  occ. eigenvalues --   -0.49557  -0.49314  -0.48765  -0.47985  -0.46779
 Alpha  occ. eigenvalues --   -0.45541  -0.44957  -0.44292  -0.42899  -0.42388
 Alpha  occ. eigenvalues --   -0.42090  -0.41787  -0.40646  -0.39884  -0.39102
 Alpha  occ. eigenvalues --   -0.38961  -0.37928  -0.37047  -0.36944  -0.36166
 Alpha  occ. eigenvalues --   -0.34735  -0.34449  -0.33062  -0.30970  -0.30326
 Alpha virt. eigenvalues --   -0.14551  -0.12469  -0.11812  -0.10476  -0.10006
 Alpha virt. eigenvalues --   -0.09245  -0.06526  -0.06111  -0.04686  -0.04188
 Alpha virt. eigenvalues --   -0.04156  -0.03457  -0.02862  -0.02579  -0.00945

 Mulliken charges:
               1
     1  N   -0.759001
     2  H    0.408062
     3  H    0.458190
     4  H    0.406086
     5  C   -0.279961
     6  H    0.243527
     7  H    0.238776
     8  C    0.633577
     9  O   -0.514996
    10  N   -0.564149
    11  H    0.363847
    12  C   -0.255677
    13  H    0.224988
    14  H    0.208984
    15  C    0.623222
    16  O   -0.535438
    17  N   -0.579014
    18  H    0.358647
    19  C   -0.239514
    20  H    0.212225
    21  H    0.214782
    22  C    0.589178
    23  O   -0.500998
    24  N   -0.584226
    25  H    0.378052
    26  C   -0.228625
    27  H    0.199304
    28  H    0.216414
    29  C    0.618736
    30  O   -0.605046
    31  N   -0.587762
    32  H    0.419191
    33  C   -0.244124
    34  H    0.173338
    35  H    0.218806
    36  C    0.613730
    37  O   -0.515355
    38  N   -0.587278
    39  H    0.344492
    40  C   -0.242041
    41  H    0.197264
    42  H    0.198112
    43  C    0.580595
    44  O   -0.484477
    45  N   -0.618724
    46  H    0.366075
    47  C   -0.232436
    48  H    0.228683
    49  H    0.183888
    50  C    0.593000
    51  O   -0.499536
    52  N   -0.574944
    53  H    0.335165
    54  C   -0.237440
    55  H    0.234245
    56  H    0.192715
    57  C    0.580984
    58  O   -0.443636
    59  O   -0.562292
    60  H    0.419811
 Sum of Mulliken charges =   1.00000

 Dipole moment (field-independent basis, Debye):
    X=              6.9468    Y=             15.8736    Z=            -14.4955  Tot=             22.5909
 Quadrupole moment (field-independent basis, Debye-Ang):
   XX=           -147.2958   YY=           -134.4994   ZZ=           -171.4324
   XY=             37.8214   XZ=            -32.2288   YZ=            -13.6055

 Normal termination of Gaussian 16 at Mon Jul 18 21:40:15 2022.
