 Gaussian 16, Revision C.01,
 Gaussian 16:  ES64L-G16RevC.01  3-Jul-2019

 ----------------------------------------------------------------------
 # B3LYP/6-31G* empiricaldispersion=gd3 guess=read geom=check nosymm in
 tegral(ultrafinegrid)
 ----------------------------------------------------------------------

 ------------------------------------------------------
 Candidate Structure: Conf:102 Charge calc in gas phase
 ------------------------------------------------------
 Structure from the checkpoint file:  "conf-102.chk"
 Charge =  1 Multiplicity = 1

                          Input orientation:
 ---------------------------------------------------------------------
 Center     Atomic      Atomic             Coordinates (Angstroms)
 Number     Number       Type             X           Y           Z
 ---------------------------------------------------------------------
      1          7           0        1.433313    6.094010    4.114138
      2          1           0        1.278670    6.692315    3.298476
      3          1           0        0.520233    5.590447    4.366374
      4          1           0        1.747794    6.680069    4.891244
      5          6           0        2.335057    4.921904    3.829075
      6          1           0        3.135911    4.884544    4.568587
      7          1           0        2.787814    4.996393    2.841409
      8          6           0        1.388869    3.702124    3.947914
      9          8           0        0.224550    3.928124    4.307797
     10          7           0        1.921102    2.509807    3.694972
     11          1           0        2.833207    2.505176    3.234647
     12          6           0        1.083663    1.329883    3.573189
     13          1           0        1.674105    0.452423    3.851731
     14          1           0        0.248395    1.420397    4.273380
     15          6           0        0.546741    1.222118    2.142754
     16          8           0        0.663081    2.144884    1.332873
     17          7           0       -0.035860    0.043165    1.814217
     18          1           0       -0.109780   -0.684201    2.513517
     19          6           0       -0.681526   -0.141016    0.517745
     20          1           0       -1.383517    0.674277    0.324904
     21          1           0       -1.249002   -1.074997    0.542951
     22          6           0        0.260805   -0.184242   -0.698366
     23          8           0       -0.182802   -0.041689   -1.820313
     24          7           0        1.589989   -0.445806   -0.418753
     25          1           0        1.904738   -0.271318    0.533708
     26          6           0        2.627283   -0.210342   -1.422259
     27          1           0        3.264573   -1.088735   -1.548945
     28          1           0        2.133949   -0.005813   -2.378055
     29          6           0        3.548780    0.952310   -1.046673
     30          8           0        4.737772    0.957172   -1.371810
     31          7           0        2.979543    1.960512   -0.339648
     32          1           0        2.014211    1.914675   -0.026348
     33          6           0        3.746210    3.116986    0.082533
     34          1           0        3.043826    3.895903    0.380845
     35          1           0        4.351403    3.478166   -0.755947
     36          6           0        4.662535    2.833133    1.283656
     37          8           0        4.404751    3.290061    2.423092
     38          7           0        5.748577    2.101521    1.016163
     39          1           0        5.791074    1.673872    0.086975
     40          6           0        6.817036    1.855367    1.981607
     41          1           0        7.691655    1.507759    1.432260
     42          1           0        7.057920    2.800152    2.480268
     43          6           0        6.491596    0.780602    3.032733
     44          8           0        7.000493   -0.338336    2.985311
     45          7           0        5.650728    1.183437    4.019057
     46          1           0        5.169237    2.066071    3.882139
     47          6           0        5.279165    0.307906    5.127055
     48          1           0        6.182467   -0.191659    5.491211
     49          1           0        4.854430    0.914283    5.927658
     50          6           0        4.223811   -0.722811    4.703250
     51          8           0        3.035999   -0.606651    5.001384
     52          7           0        4.716389   -1.746421    3.956067
     53          1           0        5.665162   -1.628633    3.599526
     54          6           0        3.811396   -2.597659    3.229333
     55          1           0        4.338814   -3.473319    2.842648
     56          1           0        3.018073   -2.957058    3.893353
     57          6           0        3.142870   -1.863778    2.073631
     58          8           0        3.233036   -0.659815    1.879700
     59          8           0        2.421864   -2.696342    1.316246
     60          1           0        2.019792   -2.197205    0.566516
 ---------------------------------------------------------------------

 SCF Done:  E(RB3LYP) =  -1741.00447404     A.U. after    3 cycles

 Alpha  occ. eigenvalues --  -19.30241 -19.27762 -19.25715 -19.25255 -19.24456
 Alpha  occ. eigenvalues --  -19.22172 -19.22035 -19.21790 -19.21419 -14.61169
 Alpha  occ. eigenvalues --  -14.49804 -14.48917 -14.48022 -14.46456 -14.46442
 Alpha  occ. eigenvalues --  -14.46226 -14.44993 -10.44362 -10.43497 -10.41430
 Alpha  occ. eigenvalues --  -10.41425 -10.40824 -10.39246 -10.39235 -10.39181
 Alpha  occ. eigenvalues --  -10.38350 -10.34310 -10.34227 -10.33952 -10.33603
 Alpha  occ. eigenvalues --  -10.33310 -10.32657 -10.32372  -1.21625  -1.20212
 Alpha  occ. eigenvalues --   -1.16401  -1.16111  -1.14694  -1.14098  -1.14022
 Alpha  occ. eigenvalues --   -1.13589  -1.13179  -1.12460  -1.06754  -1.04900
 Alpha  occ. eigenvalues --   -1.04330  -1.03506  -1.02623  -1.01858  -1.01507
 Alpha  occ. eigenvalues --   -0.90908  -0.87831  -0.86974  -0.85721  -0.83981
 Alpha  occ. eigenvalues --   -0.82401  -0.80625  -0.79417  -0.75151  -0.74767
 Alpha  occ. eigenvalues --   -0.73363  -0.72794  -0.71407  -0.70958  -0.69102
 Alpha  occ. eigenvalues --   -0.68700  -0.68378  -0.67411  -0.67237  -0.65314
 Alpha  occ. eigenvalues --   -0.64473  -0.64246  -0.63141  -0.62924  -0.61796
 Alpha  occ. eigenvalues --   -0.61311  -0.60863  -0.60248  -0.59936  -0.59455
 Alpha  occ. eigenvalues --   -0.58808  -0.58529  -0.57698  -0.57251  -0.56552
 Alpha  occ. eigenvalues --   -0.55847  -0.55603  -0.54977  -0.54743  -0.54256
 Alpha  occ. eigenvalues --   -0.54080  -0.52909  -0.52712  -0.52237  -0.51824
 Alpha  occ. eigenvalues --   -0.51726  -0.51219  -0.50720  -0.50660  -0.50341
 Alpha  occ. eigenvalues --   -0.49633  -0.49349  -0.49230  -0.48591  -0.47920
 Alpha  occ. eigenvalues --   -0.47797  -0.47083  -0.46395  -0.45738  -0.43113
 Alpha  occ. eigenvalues --   -0.42800  -0.40652  -0.40342  -0.39919  -0.39339
 Alpha  occ. eigenvalues --   -0.39210  -0.38357  -0.37856  -0.37707  -0.35798
 Alpha  occ. eigenvalues --   -0.35701  -0.35012  -0.34906  -0.34724  -0.33800
 Alpha virt. eigenvalues --   -0.12940  -0.12333  -0.11394  -0.10710  -0.10059
 Alpha virt. eigenvalues --   -0.08969  -0.08812  -0.07703  -0.07567  -0.07097
 Alpha virt. eigenvalues --   -0.04500  -0.03645  -0.02134  -0.01530  -0.00552

 Mulliken charges:
               1
     1  N   -0.752657
     2  H    0.420706
     3  H    0.437566
     4  H    0.419753
     5  C   -0.275711
     6  H    0.242422
     7  H    0.255785
     8  C    0.622706
     9  O   -0.526321
    10  N   -0.580142
    11  H    0.393169
    12  C   -0.297075
    13  H    0.258143
    14  H    0.223164
    15  C    0.619721
    16  O   -0.541671
    17  N   -0.608195
    18  H    0.358443
    19  C   -0.230589
    20  H    0.223080
    21  H    0.206445
    22  C    0.593813
    23  O   -0.464059
    24  N   -0.703753
    25  H    0.401659
    26  C   -0.222161
    27  H    0.194954
    28  H    0.236745
    29  C    0.601807
    30  O   -0.534787
    31  N   -0.610251
    32  H    0.399815
    33  C   -0.223997
    34  H    0.168357
    35  H    0.208067
    36  C    0.607757
    37  O   -0.595183
    38  N   -0.564664
    39  H    0.404175
    40  C   -0.240239
    41  H    0.212129
    42  H    0.192272
    43  C    0.609341
    44  O   -0.514722
    45  N   -0.588348
    46  H    0.357473
    47  C   -0.241603
    48  H    0.205326
    49  H    0.181701
    50  C    0.605191
    51  O   -0.530403
    52  N   -0.568192
    53  H    0.385643
    54  C   -0.234688
    55  H    0.214225
    56  H    0.222389
    57  C    0.600596
    58  O   -0.505713
    59  O   -0.570375
    60  H    0.440959
 Sum of Mulliken charges =   1.00000

 Dipole moment (field-independent basis, Debye):
    X=             11.8104    Y=             18.0809    Z=             17.2038  Tot=             27.6112
 Quadrupole moment (field-independent basis, Debye-Ang):
   XX=           -145.5974   YY=            -50.0851   ZZ=           -131.0091
   XY=             45.6447   XZ=             39.0849   YZ=             75.2870

 Normal termination of Gaussian 16 at Mon Jul 18 21:33:46 2022.
