 Gaussian 16, Revision C.01,
 Gaussian 16:  ES64L-G16RevC.01  3-Jul-2019

 ----------------------------------------------------------------------
 # B3LYP/6-31G* empiricaldispersion=gd3 guess=read geom=check nosymm in
 tegral(ultrafinegrid)
 ----------------------------------------------------------------------

 ------------------------------------------------------
 Candidate Structure: Conf:222 Charge calc in gas phase
 ------------------------------------------------------
 Structure from the checkpoint file:  "conf-222.chk"
 Charge =  1 Multiplicity = 1

                          Input orientation:
 ---------------------------------------------------------------------
 Center     Atomic      Atomic             Coordinates (Angstroms)
 Number     Number       Type             X           Y           Z
 ---------------------------------------------------------------------
      1          7           0        3.826634    8.518284   -0.599010
      2          1           0        4.843147    8.423058   -0.669878
      3          1           0        3.356557    8.214543   -1.518302
      4          1           0        3.606380    9.498874   -0.404208
      5          6           0        3.192114    7.555733    0.367948
      6          1           0        2.683525    8.105361    1.161736
      7          1           0        3.959596    6.915853    0.807103
      8          6           0        2.204812    6.749950   -0.520704
      9          8           0        2.193581    7.022871   -1.731596
     10          7           0        1.459416    5.847075    0.087774
     11          1           0        1.501175    5.665233    1.093926
     12          6           0        0.476265    5.009414   -0.585078
     13          1           0       -0.187385    5.622467   -1.202919
     14          1           0        0.971973    4.261635   -1.212562
     15          6           0       -0.278746    4.276274    0.528738
     16          8           0        0.113104    4.361349    1.696930
     17          7           0       -1.363100    3.573609    0.143764
     18          1           0       -1.479796    3.398906   -0.847901
     19          6           0       -1.969900    2.580733    1.040708
     20          1           0       -2.980142    2.362382    0.694875
     21          1           0       -2.003825    3.004290    2.046259
     22          6           0       -1.117843    1.308039    0.949055
     23          8           0       -1.375829    0.419111    0.151875
     24          7           0        0.006968    1.315752    1.733237
     25          1           0        0.252164    2.204243    2.156303
     26          6           0        1.104877    0.470063    1.315810
     27          1           0        1.898439    0.518374    2.068377
     28          1           0        0.759006   -0.564981    1.252767
     29          6           0        1.666928    0.929849   -0.045261
     30          8           0        1.537334    2.088595   -0.449589
     31          7           0        2.334274   -0.015893   -0.734873
     32          1           0        2.362534   -0.985195   -0.432931
     33          6           0        2.888471    0.231406   -2.045201
     34          1           0        3.665702    1.006232   -2.000608
     35          1           0        2.113509    0.596584   -2.732339
     36          6           0        3.485480   -1.078881   -2.567411
     37          8           0        3.435598   -2.113616   -1.898464
     38          7           0        4.051258   -1.019171   -3.793014
     39          1           0        4.136928   -0.125885   -4.258456
     40          6           0        4.645251   -2.191564   -4.435460
     41          1           0        4.001560   -3.052690   -4.229707
     42          1           0        4.682070   -2.021045   -5.511414
     43          6           0        6.081059   -2.482557   -3.965689
     44          8           0        7.035117   -2.394340   -4.739344
     45          7           0        6.195362   -2.828672   -2.662593
     46          1           0        5.345642   -2.949184   -2.120596
     47          6           0        7.487736   -3.073291   -2.031227
     48          1           0        8.204818   -2.343895   -2.424738
     49          1           0        7.385787   -2.933129   -0.954644
     50          6           0        8.048636   -4.490856   -2.249643
     51          8           0        8.311797   -5.224911   -1.307898
     52          7           0        8.214863   -4.830083   -3.561484
     53          1           0        8.113495   -4.091833   -4.252196
     54          6           0        8.890306   -6.051120   -3.929500
     55          1           0        8.755548   -6.773877   -3.119527
     56          1           0        8.452194   -6.481937   -4.835004
     57          6           0       10.392076   -5.931455   -4.170122
     58          8           0       11.066427   -6.832313   -4.611301
     59          8           0       10.888289   -4.718429   -3.833487
     60          1           0       11.848005   -4.764233   -4.004966
 ---------------------------------------------------------------------

 SCF Done:  E(RB3LYP) =  -1740.94454090     A.U. after    3 cycles

 Alpha  occ. eigenvalues --  -19.29304 -19.24409 -19.23960 -19.22286 -19.21029
 Alpha  occ. eigenvalues --  -19.20193 -19.19003 -19.17733 -19.16014 -14.62815
 Alpha  occ. eigenvalues --  -14.51784 -14.48055 -14.46672 -14.45244 -14.44145
 Alpha  occ. eigenvalues --  -14.43116 -14.40106 -10.46124 -10.43278 -10.41430
 Alpha  occ. eigenvalues --  -10.39413 -10.38012 -10.37212 -10.36147 -10.36137
 Alpha  occ. eigenvalues --  -10.35683 -10.33297 -10.33047 -10.32442 -10.31632
 Alpha  occ. eigenvalues --  -10.31417 -10.28694 -10.27625  -1.21787  -1.16575
 Alpha  occ. eigenvalues --   -1.16075  -1.14626  -1.14266  -1.12897  -1.11801
 Alpha  occ. eigenvalues --   -1.10725  -1.08302  -1.07838  -1.05568  -1.04162
 Alpha  occ. eigenvalues --   -1.02535  -1.01650  -1.00661  -0.99166  -0.96667
 Alpha  occ. eigenvalues --   -0.92713  -0.87372  -0.85934  -0.83507  -0.81806
 Alpha  occ. eigenvalues --   -0.79913  -0.77970  -0.76742  -0.76544  -0.75998
 Alpha  occ. eigenvalues --   -0.74226  -0.70614  -0.69498  -0.68740  -0.68196
 Alpha  occ. eigenvalues --   -0.66820  -0.66599  -0.65447  -0.65340  -0.63667
 Alpha  occ. eigenvalues --   -0.63204  -0.62920  -0.62652  -0.60919  -0.60363
 Alpha  occ. eigenvalues --   -0.60219  -0.59433  -0.58400  -0.58188  -0.57297
 Alpha  occ. eigenvalues --   -0.57215  -0.56817  -0.55589  -0.55315  -0.54188
 Alpha  occ. eigenvalues --   -0.53800  -0.53633  -0.53252  -0.52254  -0.52065
 Alpha  occ. eigenvalues --   -0.51665  -0.50893  -0.50175  -0.49862  -0.49705
 Alpha  occ. eigenvalues --   -0.49148  -0.48926  -0.48739  -0.48441  -0.48038
 Alpha  occ. eigenvalues --   -0.47085  -0.46340  -0.45904  -0.45655  -0.44516
 Alpha  occ. eigenvalues --   -0.44395  -0.44355  -0.43870  -0.42719  -0.41663
 Alpha  occ. eigenvalues --   -0.41514  -0.38974  -0.38227  -0.37389  -0.36729
 Alpha  occ. eigenvalues --   -0.35667  -0.35564  -0.34992  -0.34105  -0.33936
 Alpha  occ. eigenvalues --   -0.33237  -0.32996  -0.32055  -0.29351  -0.28770
 Alpha virt. eigenvalues --   -0.14364  -0.13931  -0.10152  -0.08531  -0.08273
 Alpha virt. eigenvalues --   -0.07192  -0.06862  -0.06086  -0.05618  -0.03482
 Alpha virt. eigenvalues --   -0.02910  -0.02514  -0.02274  -0.01807  -0.01509

 Mulliken charges:
               1
     1  N   -0.750496
     2  H    0.423988
     3  H    0.440655
     4  H    0.424950
     5  C   -0.277778
     6  H    0.249548
     7  H    0.250160
     8  C    0.641710
     9  O   -0.525187
    10  N   -0.603777
    11  H    0.379126
    12  C   -0.213950
    13  H    0.207351
    14  H    0.247889
    15  C    0.638427
    16  O   -0.548959
    17  N   -0.579988
    18  H    0.356176
    19  C   -0.248296
    20  H    0.202436
    21  H    0.204236
    22  C    0.590743
    23  O   -0.495012
    24  N   -0.561305
    25  H    0.357492
    26  C   -0.253029
    27  H    0.188619
    28  H    0.205456
    29  C    0.633264
    30  O   -0.569071
    31  N   -0.606377
    32  H    0.367869
    33  C   -0.188321
    34  H    0.181757
    35  H    0.195911
    36  C    0.612006
    37  O   -0.534563
    38  N   -0.589445
    39  H    0.345903
    40  C   -0.242278
    41  H    0.208791
    42  H    0.195520
    43  C    0.598746
    44  O   -0.524516
    45  N   -0.584577
    46  H    0.373837
    47  C   -0.245908
    48  H    0.192861
    49  H    0.181415
    50  C    0.597443
    51  O   -0.499892
    52  N   -0.590218
    53  H    0.367505
    54  C   -0.234870
    55  H    0.227032
    56  H    0.191905
    57  C    0.581576
    58  O   -0.449881
    59  O   -0.559278
    60  H    0.414666
 Sum of Mulliken charges =   1.00000

 Dipole moment (field-independent basis, Debye):
    X=             13.0937    Y=             36.3501    Z=             -2.6077  Tot=             38.7244
 Quadrupole moment (field-independent basis, Debye-Ang):
   XX=           -149.3028   YY=             50.1120   ZZ=           -172.6285
   XY=            149.9636   XZ=             -5.5289   YZ=             -6.9114

 Normal termination of Gaussian 16 at Mon Jul 18 21:33:10 2022.
