 Gaussian 16, Revision C.01,
 Gaussian 16:  ES64L-G16RevC.01  3-Jul-2019

 ----------------------------------------------------------------------
 # B3LYP/6-31G* empiricaldispersion=gd3 guess=read geom=check nosymm in
 tegral(ultrafinegrid)
 ----------------------------------------------------------------------

 ------------------------------------------------------
 Candidate Structure: Conf:521 Charge calc in gas phase
 ------------------------------------------------------
 Structure from the checkpoint file:  "conf-521.chk"
 Charge =  1 Multiplicity = 1

                          Input orientation:
 ---------------------------------------------------------------------
 Center     Atomic      Atomic             Coordinates (Angstroms)
 Number     Number       Type             X           Y           Z
 ---------------------------------------------------------------------
      1          7           0       -1.561871   -1.639491    0.701226
      2          1           0       -1.899418   -2.510049    1.115623
      3          1           0       -0.491375   -1.591633    0.810731
      4          1           0       -1.959687   -0.820900    1.202078
      5          6           0       -1.963015   -1.472080   -0.730530
      6          1           0       -2.771995   -2.163996   -0.975390
      7          1           0       -1.094494   -1.655264   -1.367866
      8          6           0       -2.421221   -0.009956   -0.869900
      9          8           0       -2.413860    0.716200    0.128684
     10          7           0       -2.819957    0.367204   -2.094381
     11          1           0       -2.634345   -0.231151   -2.893591
     12          6           0       -3.146606    1.753723   -2.420881
     13          1           0       -4.164731    1.810939   -2.820907
     14          1           0       -3.096507    2.340295   -1.502253
     15          6           0       -2.163747    2.204099   -3.504040
     16          8           0       -1.954775    1.462200   -4.466075
     17          7           0       -1.540928    3.391625   -3.322642
     18          1           0       -1.661923    3.884401   -2.447842
     19          6           0       -0.436104    3.811738   -4.192799
     20          1           0       -0.242990    4.872200   -4.033027
     21          1           0       -0.724655    3.641295   -5.232712
     22          6           0        0.811694    3.010140   -3.791414
     23          8           0        1.616493    3.439806   -2.964102
     24          7           0        0.876855    1.767207   -4.337189
     25          1           0        0.045675    1.436662   -4.820664
     26          6           0        1.793663    0.765233   -3.805023
     27          1           0        1.825732   -0.090166   -4.478861
     28          1           0        2.795011    1.193593   -3.724981
     29          6           0        1.305626    0.274137   -2.440569
     30          8           0        0.638517   -0.751962   -2.295790
     31          7           0        1.654482    1.059950   -1.381056
     32          1           0        1.989464    2.001657   -1.579752
     33          6           0        1.252904    0.661342   -0.044339
     34          1           0        0.165580    0.666907    0.084896
     35          1           0        1.680331    1.367657    0.673810
     36          6           0        1.768695   -0.752689    0.262805
     37          8           0        1.079863   -1.601613    0.857706
     38          7           0        3.027804   -0.987810   -0.136606
     39          1           0        3.424264   -0.291873   -0.763754
     40          6           0        3.541717   -2.321534   -0.375009
     41          1           0        4.430041   -2.516945    0.238364
     42          1           0        2.775203   -3.050014   -0.096202
     43          6           0        3.904708   -2.423994   -1.871589
     44          8           0        3.888654   -1.428460   -2.591461
     45          7           0        4.264376   -3.661711   -2.292702
     46          1           0        4.207873   -4.434575   -1.641422
     47          6           0        4.585547   -3.970384   -3.681268
     48          1           0        3.845017   -4.650392   -4.112004
     49          1           0        4.545296   -3.029618   -4.237283
     50          6           0        5.962675   -4.604603   -3.907488
     51          8           0        6.163697   -5.287551   -4.897043
     52          7           0        6.904485   -4.351719   -2.944033
     53          1           0        6.715243   -3.585978   -2.310972
     54          6           0        8.294999   -4.669804   -3.199078
     55          1           0        8.812308   -4.903894   -2.263697
     56          1           0        8.330105   -5.561807   -3.829226
     57          6           0        9.098438   -3.585157   -3.911159
     58          8           0       10.269750   -3.695800   -4.177479
     59          8           0        8.357536   -2.486749   -4.196108
     60          1           0        8.953464   -1.870090   -4.662733
 ---------------------------------------------------------------------

 SCF Done:  E(RB3LYP) =  -1740.98834596     A.U. after    1 cycles

 Alpha  occ. eigenvalues --  -19.26864 -19.26814 -19.26073 -19.24476 -19.23946
 Alpha  occ. eigenvalues --  -19.23438 -19.22834 -19.20502 -19.19395 -14.56707
 Alpha  occ. eigenvalues --  -14.50552 -14.49488 -14.48391 -14.47882 -14.47708
 Alpha  occ. eigenvalues --  -14.46765 -14.44391 -10.44013 -10.42528 -10.41779
 Alpha  occ. eigenvalues --  -10.40743 -10.40510 -10.39804 -10.38977 -10.38658
 Alpha  occ. eigenvalues --  -10.36992 -10.35851 -10.35526 -10.34912 -10.34218
 Alpha  occ. eigenvalues --  -10.33151 -10.32112 -10.30794  -1.18988  -1.17457
 Alpha  occ. eigenvalues --   -1.17407  -1.16580  -1.15530  -1.15239  -1.14297
 Alpha  occ. eigenvalues --   -1.11564  -1.11508  -1.08435  -1.06722  -1.05801
 Alpha  occ. eigenvalues --   -1.05094  -1.03882  -1.03637  -1.02904  -1.00426
 Alpha  occ. eigenvalues --   -0.90136  -0.88568  -0.86932  -0.85518  -0.83559
 Alpha  occ. eigenvalues --   -0.82274  -0.80436  -0.79260  -0.73171  -0.72762
 Alpha  occ. eigenvalues --   -0.72526  -0.71528  -0.70896  -0.70236  -0.69331
 Alpha  occ. eigenvalues --   -0.69168  -0.68579  -0.66991  -0.66818  -0.65414
 Alpha  occ. eigenvalues --   -0.64944  -0.63982  -0.62906  -0.61887  -0.61687
 Alpha  occ. eigenvalues --   -0.60995  -0.60611  -0.60523  -0.59022  -0.58865
 Alpha  occ. eigenvalues --   -0.58161  -0.57791  -0.57391  -0.56601  -0.56369
 Alpha  occ. eigenvalues --   -0.55543  -0.55336  -0.54646  -0.54165  -0.53880
 Alpha  occ. eigenvalues --   -0.53630  -0.53060  -0.52643  -0.52482  -0.52363
 Alpha  occ. eigenvalues --   -0.51737  -0.51501  -0.50892  -0.50527  -0.50278
 Alpha  occ. eigenvalues --   -0.49576  -0.48927  -0.48794  -0.48667  -0.48276
 Alpha  occ. eigenvalues --   -0.47446  -0.46730  -0.46004  -0.44633  -0.41508
 Alpha  occ. eigenvalues --   -0.40963  -0.40612  -0.39896  -0.39316  -0.39194
 Alpha  occ. eigenvalues --   -0.38494  -0.37949  -0.37799  -0.37672  -0.37338
 Alpha  occ. eigenvalues --   -0.36540  -0.35967  -0.35168  -0.33029  -0.32313
 Alpha virt. eigenvalues --   -0.12433  -0.11585  -0.10977  -0.10233  -0.08967
 Alpha virt. eigenvalues --   -0.08723  -0.08111  -0.05970  -0.05568  -0.04067
 Alpha virt. eigenvalues --   -0.03667  -0.02846  -0.01904  -0.01091   0.00028

 Mulliken charges:
               1
     1  N   -0.783878
     2  H    0.401668
     3  H    0.459794
     4  H    0.412192
     5  C   -0.290556
     6  H    0.224511
     7  H    0.278949
     8  C    0.625824
     9  O   -0.521676
    10  N   -0.579094
    11  H    0.369785
    12  C   -0.233502
    13  H    0.220202
    14  H    0.206632
    15  C    0.617898
    16  O   -0.530027
    17  N   -0.579489
    18  H    0.356399
    19  C   -0.238621
    20  H    0.207657
    21  H    0.211998
    22  C    0.587223
    23  O   -0.522980
    24  N   -0.574180
    25  H    0.379982
    26  C   -0.227998
    27  H    0.202937
    28  H    0.209006
    29  C    0.606500
    30  O   -0.545144
    31  N   -0.614751
    32  H    0.387559
    33  C   -0.228467
    34  H    0.175648
    35  H    0.209141
    36  C    0.628221
    37  O   -0.583353
    38  N   -0.538460
    39  H    0.368601
    40  C   -0.242617
    41  H    0.202913
    42  H    0.206268
    43  C    0.609385
    44  O   -0.518445
    45  N   -0.611789
    46  H    0.347372
    47  C   -0.235105
    48  H    0.201158
    49  H    0.228011
    50  C    0.592986
    51  O   -0.487180
    52  N   -0.576562
    53  H    0.331676
    54  C   -0.241765
    55  H    0.198452
    56  H    0.238545
    57  C    0.585182
    58  O   -0.436190
    59  O   -0.569609
    60  H    0.421164
 Sum of Mulliken charges =   1.00000

 Dipole moment (field-independent basis, Debye):
    X=             -2.4881    Y=             -1.6798    Z=             -2.7173  Tot=              4.0492
 Quadrupole moment (field-independent basis, Debye-Ang):
   XX=           -159.0249   YY=           -154.5066   ZZ=           -182.8371
   XY=              0.0168   XZ=             19.3194   YZ=            -31.7666

 Normal termination of Gaussian 16 at Mon Jul 18 21:40:02 2022.
