 Gaussian 16, Revision C.01,
 Gaussian 16:  ES64L-G16RevC.01  3-Jul-2019

 ----------------------------------------------------------------------
 # B3LYP/6-31G* empiricaldispersion=gd3 guess=read geom=check nosymm in
 tegral(ultrafinegrid)
 ----------------------------------------------------------------------

 ------------------------------------------------------
 Candidate Structure: Conf:304 Charge calc in gas phase
 ------------------------------------------------------
 Structure from the checkpoint file:  "conf-304.chk"
 Charge =  1 Multiplicity = 1

                          Input orientation:
 ---------------------------------------------------------------------
 Center     Atomic      Atomic             Coordinates (Angstroms)
 Number     Number       Type             X           Y           Z
 ---------------------------------------------------------------------
      1          7           0        1.734384    1.511326    4.129500
      2          1           0        2.053291    1.065836    4.991693
      3          1           0        0.700289    1.626328    4.130581
      4          1           0        1.953187    0.872165    3.305221
      5          6           0        2.273877    2.894840    3.936618
      6          1           0        3.114029    2.872389    3.242005
      7          1           0        2.597902    3.316511    4.889597
      8          6           0        1.116930    3.689243    3.312051
      9          8           0        0.023564    3.126225    3.164132
     10          7           0        1.384661    4.936923    2.913691
     11          1           0        2.319329    5.308319    3.073556
     12          6           0        0.419303    5.641759    2.068821
     13          1           0       -0.546236    5.718752    2.570969
     14          1           0        0.801807    6.647404    1.876651
     15          6           0        0.174017    4.888601    0.742339
     16          8           0       -0.947993    4.758988    0.277326
     17          7           0        1.302550    4.375509    0.170188
     18          1           0        2.180834    4.374802    0.679313
     19          6           0        1.247681    3.425379   -0.920571
     20          1           0        2.056945    3.602655   -1.631578
     21          1           0        0.293641    3.560744   -1.441167
     22          6           0        1.342473    1.969591   -0.449198
     23          8           0        2.061517    1.131608   -0.995039
     24          7           0        0.543445    1.638512    0.605812
     25          1           0       -0.104541    2.325744    0.974440
     26          6           0        0.250724    0.243826    0.861040
     27          1           0       -0.433780    0.194964    1.714283
     28          1           0       -0.260728   -0.210014    0.002645
     29          6           0        1.481126   -0.586449    1.227630
     30          8           0        2.253778   -0.264849    2.157854
     31          7           0        1.613284   -1.742135    0.564552
     32          1           0        1.084654   -1.862000   -0.289900
     33          6           0        2.622534   -2.753201    0.874141
     34          1           0        2.264043   -3.717003    0.512291
     35          1           0        2.736690   -2.794534    1.961116
     36          6           0        3.972763   -2.474303    0.187135
     37          8           0        4.337397   -3.099404   -0.793147
     38          7           0        4.687510   -1.466819    0.773651
     39          1           0        4.283796   -1.004885    1.579991
     40          6           0        6.005092   -1.072467    0.312087
     41          1           0        6.787781   -1.349768    1.025214
     42          1           0        6.195701   -1.608176   -0.623792
     43          6           0        6.123556    0.430698    0.081752
     44          8           0        7.172277    1.034327    0.317995
     45          7           0        5.012910    1.053724   -0.388908
     46          1           0        4.137207    0.560631   -0.525813
     47          6           0        5.018256    2.488997   -0.610326
     48          1           0        5.940743    2.780206   -1.120533
     49          1           0        4.158033    2.741991   -1.226910
     50          6           0        4.888779    3.200015    0.735990
     51          8           0        3.789223    3.538026    1.208176
     52          7           0        6.031425    3.392934    1.421812
     53          1           0        6.860270    2.897061    1.093774
     54          6           0        5.981645    3.916751    2.776244
     55          1           0        5.572349    3.188172    3.483766
     56          1           0        7.000219    4.169767    3.083690
     57          6           0        5.120044    5.173055    2.873174
     58          8           0        4.211142    5.323534    3.671686
     59          8           0        5.513354    6.110298    2.006426
     60          1           0        4.960239    6.903667    2.140073
 ---------------------------------------------------------------------

 SCF Done:  E(RB3LYP) =  -1741.01563066     A.U. after    2 cycles

 Alpha  occ. eigenvalues --  -19.32451 -19.27431 -19.27252 -19.26585 -19.25493
 Alpha  occ. eigenvalues --  -19.24161 -19.22360 -19.21759 -19.21657 -14.57534
 Alpha  occ. eigenvalues --  -14.50655 -14.49531 -14.48849 -14.48176 -14.46968
 Alpha  occ. eigenvalues --  -14.46600 -14.45860 -10.45748 -10.43778 -10.43385
 Alpha  occ. eigenvalues --  -10.41764 -10.40804 -10.39480 -10.39244 -10.39126
 Alpha  occ. eigenvalues --  -10.38643 -10.36543 -10.36392 -10.34649 -10.34279
 Alpha  occ. eigenvalues --  -10.34036 -10.33348 -10.32614  -1.23724  -1.18797
 Alpha  occ. eigenvalues --   -1.18363  -1.16964  -1.15715  -1.14624  -1.14285
 Alpha  occ. eigenvalues --   -1.13696  -1.13653  -1.12117  -1.06526  -1.06146
 Alpha  occ. eigenvalues --   -1.05257  -1.04729  -1.03696  -1.02248  -1.02108
 Alpha  occ. eigenvalues --   -0.89535  -0.89235  -0.88548  -0.86032  -0.84605
 Alpha  occ. eigenvalues --   -0.83125  -0.80971  -0.80034  -0.75535  -0.73908
 Alpha  occ. eigenvalues --   -0.72960  -0.72646  -0.71272  -0.71168  -0.70372
 Alpha  occ. eigenvalues --   -0.69558  -0.69126  -0.68849  -0.66359  -0.65828
 Alpha  occ. eigenvalues --   -0.65552  -0.65135  -0.64140  -0.63018  -0.62895
 Alpha  occ. eigenvalues --   -0.62020  -0.61602  -0.61127  -0.60448  -0.59415
 Alpha  occ. eigenvalues --   -0.59371  -0.58531  -0.58379  -0.57925  -0.56908
 Alpha  occ. eigenvalues --   -0.56784  -0.56020  -0.55831  -0.55559  -0.55288
 Alpha  occ. eigenvalues --   -0.54258  -0.53909  -0.53661  -0.53121  -0.52784
 Alpha  occ. eigenvalues --   -0.52702  -0.52094  -0.51874  -0.51613  -0.51082
 Alpha  occ. eigenvalues --   -0.50670  -0.50425  -0.49992  -0.49741  -0.49239
 Alpha  occ. eigenvalues --   -0.48306  -0.47702  -0.47171  -0.46649  -0.44903
 Alpha  occ. eigenvalues --   -0.42178  -0.41451  -0.41134  -0.41058  -0.40352
 Alpha  occ. eigenvalues --   -0.40213  -0.39014  -0.38930  -0.38354  -0.37435
 Alpha  occ. eigenvalues --   -0.35959  -0.35349  -0.35036  -0.34861  -0.34649
 Alpha virt. eigenvalues --   -0.12828  -0.12748  -0.12202  -0.11500  -0.10713
 Alpha virt. eigenvalues --   -0.08957  -0.08657  -0.08225  -0.07835  -0.04943
 Alpha virt. eigenvalues --   -0.04340  -0.02756  -0.01960  -0.00999  -0.00713

 Mulliken charges:
               1
     1  N   -0.782910
     2  H    0.399460
     3  H    0.408926
     4  H    0.453290
     5  C   -0.288367
     6  H    0.256206
     7  H    0.235286
     8  C    0.625619
     9  O   -0.541320
    10  N   -0.612267
    11  H    0.394373
    12  C   -0.232674
    13  H    0.225169
    14  H    0.196352
    15  C    0.582979
    16  O   -0.497467
    17  N   -0.602422
    18  H    0.380630
    19  C   -0.248632
    20  H    0.190505
    21  H    0.228534
    22  C    0.610915
    23  O   -0.543931
    24  N   -0.592546
    25  H    0.389022
    26  C   -0.239071
    27  H    0.197032
    28  H    0.188988
    29  C    0.669022
    30  O   -0.598777
    31  N   -0.557935
    32  H    0.370492
    33  C   -0.251203
    34  H    0.214035
    35  H    0.193832
    36  C    0.597238
    37  O   -0.469926
    38  N   -0.616509
    39  H    0.348587
    40  C   -0.213926
    41  H    0.197403
    42  H    0.236970
    43  C    0.589415
    44  O   -0.536097
    45  N   -0.590826
    46  H    0.384842
    47  C   -0.229592
    48  H    0.206791
    49  H    0.197971
    50  C    0.603913
    51  O   -0.571549
    52  N   -0.567266
    53  H    0.393717
    54  C   -0.190765
    55  H    0.179434
    56  H    0.217818
    57  C    0.603557
    58  O   -0.498325
    59  O   -0.522234
    60  H    0.428217
 Sum of Mulliken charges =   1.00000

 Dipole moment (field-independent basis, Debye):
    X=             13.3631    Y=             10.2682    Z=             14.4478  Tot=             22.1979
 Quadrupole moment (field-independent basis, Debye-Ang):
   XX=           -143.0669   YY=           -123.4902   ZZ=           -131.2210
   XY=             56.7299   XZ=             43.2595   YZ=             25.0690

 Normal termination of Gaussian 16 at Mon Jul 18 21:40:18 2022.
