 Gaussian 16, Revision C.01,
 Gaussian 16:  ES64L-G16RevC.01  3-Jul-2019

 ----------------------------------------------------------------------
 # B3LYP/6-31G* empiricaldispersion=gd3 guess=read geom=check nosymm in
 tegral(ultrafinegrid)
 ----------------------------------------------------------------------

 ------------------------------------------------------
 Candidate Structure: Conf:231 Charge calc in gas phase
 ------------------------------------------------------
 Structure from the checkpoint file:  "conf-231.chk"
 Charge =  1 Multiplicity = 1

                          Input orientation:
 ---------------------------------------------------------------------
 Center     Atomic      Atomic             Coordinates (Angstroms)
 Number     Number       Type             X           Y           Z
 ---------------------------------------------------------------------
      1          7           0       -8.026752    5.449353   -4.078440
      2          1           0       -8.114226    6.462054   -3.958866
      3          1           0       -8.747709    5.136993   -4.734286
      4          1           0       -8.148159    4.952947   -3.130419
      5          6           0       -6.638306    5.001959   -4.447706
      6          1           0       -5.986211    5.869792   -4.560244
      7          1           0       -6.664860    4.447145   -5.387132
      8          6           0       -6.218829    4.105459   -3.250344
      9          8           0       -7.049459    3.968064   -2.338023
     10          7           0       -5.015831    3.566898   -3.305522
     11          1           0       -4.356532    3.707936   -4.079877
     12          6           0       -4.452451    2.704408   -2.277950
     13          1           0       -4.409019    3.226652   -1.315879
     14          1           0       -5.067011    1.807048   -2.146161
     15          6           0       -3.039514    2.343946   -2.782765
     16          8           0       -2.649348    2.788882   -3.866637
     17          7           0       -2.326222    1.552146   -1.980006
     18          1           0       -2.668411    1.204086   -1.083923
     19          6           0       -0.977196    1.118503   -2.284688
     20          1           0       -0.315660    1.981059   -2.429534
     21          1           0       -0.956041    0.532412   -3.211467
     22          6           0       -0.512401    0.266380   -1.090812
     23          8           0       -1.263376    0.066650   -0.135638
     24          7           0        0.734833   -0.220586   -1.185546
     25          1           0        1.345534   -0.013863   -1.971483
     26          6           0        1.342518   -1.017038   -0.140412
     27          1           0        1.344874   -0.478927    0.816322
     28          1           0        0.785134   -1.946802    0.027256
     29          6           0        2.781041   -1.324179   -0.572109
     30          8           0        3.238765   -0.905720   -1.627952
     31          7           0        3.464581   -2.127323    0.302416
     32          1           0        3.085567   -2.158206    1.255525
     33          6           0        4.939586   -2.204715    0.245037
     34          1           0        5.312432   -1.462829   -0.460881
     35          1           0        5.256078   -3.203036   -0.077580
     36          6           0        5.425994   -1.876929    1.660593
     37          8           0        5.807244   -0.766632    1.987329
     38          7           0        5.268288   -2.926925    2.540888
     39          1           0        4.807638   -3.755523    2.173043
     40          6           0        4.942563   -2.638056    3.919871
     41          1           0        5.361876   -3.398234    4.588002
     42          1           0        5.387595   -1.670358    4.173559
     43          6           0        3.414213   -2.546389    4.068910
     44          8           0        2.691987   -2.145301    3.152817
     45          7           0        2.881384   -2.981563    5.240179
     46          1           0        3.493901   -3.247654    5.999029
     47          6           0        1.436811   -2.939899    5.456189
     48          1           0        1.225802   -3.369228    6.439894
     49          1           0        1.062192   -1.913659    5.431705
     50          6           0        0.648809   -3.701761    4.371685
     51          8           0       -0.427182   -3.293805    3.975658
     52          7           0        1.233674   -4.872691    3.939975
     53          1           0        2.196836   -5.016438    4.220536
     54          6           0        0.937971   -5.360890    2.601590
     55          1           0        0.887695   -6.455666    2.588227
     56          1           0       -0.023177   -4.955092    2.286421
     57          6           0        2.061836   -4.907875    1.675206
     58          8           0        3.237865   -4.981767    1.990629
     59          8           0        1.636840   -4.393630    0.517816
     60          1           0        2.415660   -3.986461    0.072190
 ---------------------------------------------------------------------

 SCF Done:  E(RB3LYP) =  -1740.95402341     A.U. after    3 cycles

 Alpha  occ. eigenvalues --  -19.28528 -19.27311 -19.22501 -19.22154 -19.20626
 Alpha  occ. eigenvalues --  -19.19709 -19.19664 -19.17868 -19.17689 -14.62016
 Alpha  occ. eigenvalues --  -14.50847 -14.45869 -14.45366 -14.43567 -14.43105
 Alpha  occ. eigenvalues --  -14.42370 -14.41607 -10.45315 -10.42462 -10.40156
 Alpha  occ. eigenvalues --  -10.39737 -10.37402 -10.36965 -10.36554 -10.35375
 Alpha  occ. eigenvalues --  -10.35223 -10.34818 -10.31760 -10.30432 -10.30091
 Alpha  occ. eigenvalues --  -10.30075 -10.29954 -10.28904  -1.20999  -1.18505
 Alpha  occ. eigenvalues --   -1.15610  -1.14454  -1.12541  -1.11902  -1.11174
 Alpha  occ. eigenvalues --   -1.09921  -1.09531  -1.09368  -1.07375  -1.02380
 Alpha  occ. eigenvalues --   -1.01149  -1.00036  -0.99654  -0.98732  -0.98175
 Alpha  occ. eigenvalues --   -0.91898  -0.86443  -0.84027  -0.83279  -0.81524
 Alpha  occ. eigenvalues --   -0.79863  -0.77778  -0.75939  -0.75762  -0.75248
 Alpha  occ. eigenvalues --   -0.73289  -0.69648  -0.69289  -0.67884  -0.67713
 Alpha  occ. eigenvalues --   -0.66658  -0.65139  -0.64869  -0.64531  -0.64240
 Alpha  occ. eigenvalues --   -0.62540  -0.62392  -0.61218  -0.59871  -0.59298
 Alpha  occ. eigenvalues --   -0.59150  -0.58700  -0.57066  -0.56521  -0.56333
 Alpha  occ. eigenvalues --   -0.56290  -0.56111  -0.55688  -0.54715  -0.54620
 Alpha  occ. eigenvalues --   -0.53740  -0.53507  -0.53327  -0.52825  -0.52381
 Alpha  occ. eigenvalues --   -0.51983  -0.51468  -0.50545  -0.50050  -0.49754
 Alpha  occ. eigenvalues --   -0.49331  -0.48305  -0.47650  -0.47337  -0.47293
 Alpha  occ. eigenvalues --   -0.46592  -0.46258  -0.46025  -0.45632  -0.44635
 Alpha  occ. eigenvalues --   -0.44136  -0.43625  -0.43162  -0.42772  -0.42462
 Alpha  occ. eigenvalues --   -0.40765  -0.39787  -0.37156  -0.36523  -0.35763
 Alpha  occ. eigenvalues --   -0.35441  -0.35205  -0.34487  -0.34240  -0.33226
 Alpha  occ. eigenvalues --   -0.32863  -0.32417  -0.31787  -0.31164  -0.30402
 Alpha virt. eigenvalues --   -0.13546  -0.13231  -0.08150  -0.07928  -0.07497
 Alpha virt. eigenvalues --   -0.06682  -0.06159  -0.05880  -0.04919  -0.04228
 Alpha virt. eigenvalues --   -0.03226  -0.02647  -0.01732  -0.00152   0.00474

 Mulliken charges:
               1
     1  N   -0.750872
     2  H    0.423797
     3  H    0.423749
     4  H    0.440832
     5  C   -0.277085
     6  H    0.250020
     7  H    0.250013
     8  C    0.640220
     9  O   -0.524043
    10  N   -0.603939
    11  H    0.381033
    12  C   -0.212505
    13  H    0.216241
    14  H    0.216405
    15  C    0.620296
    16  O   -0.535099
    17  N   -0.620444
    18  H    0.369767
    19  C   -0.201602
    20  H    0.201666
    21  H    0.201208
    22  C    0.612882
    23  O   -0.526447
    24  N   -0.625379
    25  H    0.361887
    26  C   -0.207274
    27  H    0.213717
    28  H    0.210286
    29  C    0.581494
    30  O   -0.501166
    31  N   -0.698720
    32  H    0.417224
    33  C   -0.207861
    34  H    0.216908
    35  H    0.172379
    36  C    0.543532
    37  O   -0.475502
    38  N   -0.579956
    39  H    0.376832
    40  C   -0.255922
    41  H    0.168618
    42  H    0.228835
    43  C    0.625150
    44  O   -0.530191
    45  N   -0.611624
    46  H    0.348209
    47  C   -0.221741
    48  H    0.189155
    49  H    0.211464
    50  C    0.602291
    51  O   -0.486626
    52  N   -0.569376
    53  H    0.333827
    54  C   -0.222229
    55  H    0.196522
    56  H    0.223115
    57  C    0.598427
    58  O   -0.495512
    59  O   -0.559582
    60  H    0.432697
 Sum of Mulliken charges =   1.00000

 Dipole moment (field-independent basis, Debye):
    X=            -24.8607    Y=             13.9288    Z=            -11.0910  Tot=             30.5790
 Quadrupole moment (field-independent basis, Debye-Ang):
   XX=             29.7889   YY=            -42.3712   ZZ=            -72.6166
   XY=           -185.2716   XZ=            158.2014   YZ=           -115.6317

 Normal termination of Gaussian 16 at Mon Jul 18 21:33:11 2022.
