 Gaussian 16, Revision C.01,
 Gaussian 16:  ES64L-G16RevC.01  3-Jul-2019

 ----------------------------------------------------------------------
 # B3LYP/6-31G* empiricaldispersion=gd3 guess=read geom=check nosymm in
 tegral(ultrafinegrid)
 ----------------------------------------------------------------------

 ------------------------------------------------------
 Candidate Structure: Conf:684 Charge calc in gas phase
 ------------------------------------------------------
 Structure from the checkpoint file:  "conf-684.chk"
 Charge =  1 Multiplicity = 1

                          Input orientation:
 ---------------------------------------------------------------------
 Center     Atomic      Atomic             Coordinates (Angstroms)
 Number     Number       Type             X           Y           Z
 ---------------------------------------------------------------------
      1          7           0        3.015118    3.655553    2.680110
      2          1           0        4.024500    3.335371    2.683230
      3          1           0        2.547452    3.360747    1.803256
      4          1           0        2.963798    4.682384    2.693872
      5          6           0        2.232167    3.148753    3.841436
      6          1           0        2.816796    3.306781    4.752074
      7          1           0        2.075425    2.079542    3.687747
      8          6           0        0.947268    3.987600    3.882483
      9          8           0        0.994124    5.162024    3.513774
     10          7           0       -0.185506    3.378128    4.296051
     11          1           0       -0.175017    2.385586    4.493233
     12          6           0       -1.497521    4.030673    4.151879
     13          1           0       -2.216650    3.530050    4.799317
     14          1           0       -1.400793    5.078860    4.442126
     15          6           0       -1.915515    3.842384    2.684119
     16          8           0       -2.566503    2.866926    2.325750
     17          7           0       -1.363069    4.746246    1.815864
     18          1           0       -0.668141    5.375707    2.208348
     19          6           0       -1.140039    4.351905    0.421545
     20          1           0       -0.766718    5.210146   -0.137316
     21          1           0       -2.077038    4.004956   -0.017881
     22          6           0       -0.064054    3.263391    0.490685
     23          8           0        1.121003    3.560146    0.671476
     24          7           0       -0.515564    1.977809    0.503172
     25          1           0       -1.523456    1.884179    0.591932
     26          6           0        0.245129    0.952190    1.213586
     27          1           0        0.227497    1.138887    2.292677
     28          1           0       -0.237188   -0.013163    1.032470
     29          6           0        1.716168    0.847837    0.808488
     30          8           0        2.594304    0.788668    1.679668
     31          7           0        1.963450    0.745125   -0.510090
     32          1           0        1.205209    0.917335   -1.157263
     33          6           0        3.295678    0.482413   -1.048707
     34          1           0        3.188089    0.182869   -2.090991
     35          1           0        3.736486   -0.345782   -0.483474
     36          6           0        4.250947    1.691422   -1.030240
     37          8           0        4.585413    2.274557   -2.050212
     38          7           0        4.733150    2.022588    0.203299
     39          1           0        4.405540    1.510640    1.017244
     40          6           0        5.774934    3.025538    0.321386
     41          1           0        6.532795    2.859788   -0.451843
     42          1           0        5.374048    4.035457    0.145873
     43          6           0        6.361429    2.983610    1.724482
     44          8           0        5.628462    2.967007    2.733088
     45          7           0        7.695521    2.990779    1.822528
     46          1           0        8.264640    2.916396    0.983565
     47          6           0        8.389714    2.953622    3.115494
     48          1           0        7.938981    3.698420    3.780214
     49          1           0        8.296236    1.970228    3.581522
     50          6           0        9.877878    3.223493    2.873807
     51          8           0       10.738948    2.424373    3.190628
     52          7           0       10.138441    4.410677    2.228974
     53          1           0        9.344064    4.949680    1.909228
     54          6           0       11.361135    4.554810    1.468008
     55          1           0       11.659455    5.604452    1.398501
     56          1           0       12.158206    4.019080    1.990199
     57          6           0       11.290561    3.994629    0.049308
     58          8           0       12.179567    4.080415   -0.755675
     59          8           0       10.097791    3.374319   -0.229525
     60          1           0       10.186668    3.038553   -1.142519
 ---------------------------------------------------------------------

 SCF Done:  E(RB3LYP) =  -1740.98787687     A.U. after    1 cycles

 Alpha  occ. eigenvalues --  -19.29948 -19.26715 -19.26280 -19.25922 -19.24988
 Alpha  occ. eigenvalues --  -19.24301 -19.23257 -19.21791 -19.21531 -14.55124
 Alpha  occ. eigenvalues --  -14.51493 -14.49777 -14.49518 -14.49086 -14.48316
 Alpha  occ. eigenvalues --  -14.46606 -14.46096 -10.44100 -10.42780 -10.42542
 Alpha  occ. eigenvalues --  -10.42177 -10.41566 -10.41307 -10.39109 -10.38921
 Alpha  occ. eigenvalues --  -10.38496 -10.36312 -10.35800 -10.35315 -10.35018
 Alpha  occ. eigenvalues --  -10.34109 -10.33721 -10.32811  -1.20000  -1.19056
 Alpha  occ. eigenvalues --   -1.18019  -1.17321  -1.16452  -1.15938  -1.13772
 Alpha  occ. eigenvalues --   -1.13603  -1.11179  -1.10641  -1.07057  -1.06357
 Alpha  occ. eigenvalues --   -1.05535  -1.04865  -1.04445  -1.02909  -1.02346
 Alpha  occ. eigenvalues --   -0.90033  -0.88940  -0.87812  -0.85884  -0.84517
 Alpha  occ. eigenvalues --   -0.82922  -0.81624  -0.80175  -0.73842  -0.73098
 Alpha  occ. eigenvalues --   -0.72886  -0.71635  -0.71155  -0.70767  -0.69992
 Alpha  occ. eigenvalues --   -0.69674  -0.69376  -0.68740  -0.66517  -0.66227
 Alpha  occ. eigenvalues --   -0.65716  -0.64308  -0.63684  -0.62477  -0.61845
 Alpha  occ. eigenvalues --   -0.61235  -0.61098  -0.60588  -0.59942  -0.59442
 Alpha  occ. eigenvalues --   -0.58773  -0.58164  -0.57922  -0.57506  -0.57168
 Alpha  occ. eigenvalues --   -0.56934  -0.56524  -0.55882  -0.55231  -0.54779
 Alpha  occ. eigenvalues --   -0.54685  -0.54163  -0.53705  -0.53273  -0.52841
 Alpha  occ. eigenvalues --   -0.52619  -0.51765  -0.51530  -0.51169  -0.50944
 Alpha  occ. eigenvalues --   -0.50506  -0.50338  -0.49997  -0.49798  -0.49272
 Alpha  occ. eigenvalues --   -0.49185  -0.48162  -0.47521  -0.46837  -0.41732
 Alpha  occ. eigenvalues --   -0.41360  -0.41280  -0.40918  -0.40501  -0.40299
 Alpha  occ. eigenvalues --   -0.39773  -0.39162  -0.38822  -0.38719  -0.37978
 Alpha  occ. eigenvalues --   -0.36462  -0.36117  -0.35254  -0.34711  -0.34450
 Alpha virt. eigenvalues --   -0.13595  -0.13082  -0.11542  -0.11090  -0.10323
 Alpha virt. eigenvalues --   -0.08587  -0.08461  -0.08115  -0.06760  -0.05164
 Alpha virt. eigenvalues --   -0.03716  -0.02640  -0.00945  -0.00705  -0.00363

 Mulliken charges:
               1
     1  N   -0.800929
     2  H    0.452566
     3  H    0.447191
     4  H    0.398800
     5  C   -0.281565
     6  H    0.238739
     7  H    0.232196
     8  C    0.639439
     9  O   -0.525259
    10  N   -0.590501
    11  H    0.359887
    12  C   -0.241438
    13  H    0.214125
    14  H    0.217872
    15  C    0.582410
    16  O   -0.505507
    17  N   -0.564879
    18  H    0.376779
    19  C   -0.227968
    20  H    0.208360
    21  H    0.206358
    22  C    0.579712
    23  O   -0.545213
    24  N   -0.569422
    25  H    0.378073
    26  C   -0.230343
    27  H    0.163124
    28  H    0.212768
    29  C    0.624436
    30  O   -0.563425
    31  N   -0.558468
    32  H    0.360069
    33  C   -0.241116
    34  H    0.205798
    35  H    0.199813
    36  C    0.602295
    37  O   -0.487371
    38  N   -0.634669
    39  H    0.372613
    40  C   -0.187906
    41  H    0.191941
    42  H    0.191132
    43  C    0.614723
    44  O   -0.569285
    45  N   -0.623375
    46  H    0.385688
    47  C   -0.202942
    48  H    0.199487
    49  H    0.216206
    50  C    0.553740
    51  O   -0.462841
    52  N   -0.561411
    53  H    0.331624
    54  C   -0.249858
    55  H    0.213349
    56  H    0.249123
    57  C    0.593966
    58  O   -0.418524
    59  O   -0.597863
    60  H    0.427673
 Sum of Mulliken charges =   1.00000

 Dipole moment (field-independent basis, Debye):
    X=             10.7918    Y=             15.0041    Z=              9.6316  Tot=             20.8411
 Quadrupole moment (field-independent basis, Debye-Ang):
   XX=           -123.3469   YY=           -122.5231   ZZ=           -153.5353
   XY=             52.4077   XZ=             16.7061   YZ=             42.2563

 Normal termination of Gaussian 16 at Mon Jul 18 21:46:58 2022.
