 Gaussian 16, Revision C.01,
 Gaussian 16:  ES64L-G16RevC.01  3-Jul-2019

 ----------------------------------------------------------------------
 # B3LYP/6-31G* empiricaldispersion=gd3 guess=read geom=check nosymm in
 tegral(ultrafinegrid)
 ----------------------------------------------------------------------

 ------------------------------------------------------
 Candidate Structure: Conf:156 Charge calc in gas phase
 ------------------------------------------------------
 Structure from the checkpoint file:  "conf-156.chk"
 Charge =  1 Multiplicity = 1

                          Input orientation:
 ---------------------------------------------------------------------
 Center     Atomic      Atomic             Coordinates (Angstroms)
 Number     Number       Type             X           Y           Z
 ---------------------------------------------------------------------
      1          7           0       -4.584772    7.643374   -7.706138
      2          1           0       -4.498785    8.662645   -7.741782
      3          1           0       -5.020397    7.324451   -8.575656
      4          1           0       -5.186613    7.352418   -6.862139
      5          6           0       -3.295167    6.938927   -7.381948
      6          1           0       -2.488262    7.667437   -7.285950
      7          1           0       -3.049172    6.231583   -8.175804
      8          6           0       -3.602847    6.225182   -6.036923
      9          8           0       -4.743182    6.378796   -5.571205
     10          7           0       -2.625763    5.516494   -5.504079
     11          1           0       -1.693073    5.416402   -5.921183
     12          6           0       -2.730181    4.784985   -4.250653
     13          1           0       -2.978914    5.463153   -3.426963
     14          1           0       -3.517573    4.025511   -4.310401
     15          6           0       -1.345092    4.137392   -4.042849
     16          8           0       -0.458838    4.314048   -4.884265
     17          7           0       -1.209946    3.411848   -2.931010
     18          1           0       -1.955680    3.288798   -2.245778
     19          6           0        0.020937    2.739585   -2.564863
     20          1           0        0.848665    3.455579   -2.496572
     21          1           0        0.297368    1.993731   -3.319958
     22          6           0       -0.234503    2.067117   -1.204999
     23          8           0       -1.337002    2.155764   -0.660738
     24          7           0        0.809635    1.402648   -0.689279
     25          1           0        1.719513    1.354119   -1.143483
     26          6           0        0.754038    0.727862    0.589722
     27          1           0        0.443244    1.421558    1.380624
     28          1           0        0.019298   -0.087175    0.570737
     29          6           0        2.159427    0.174280    0.871174
     30          8           0        3.069534    0.313263    0.052753
     31          7           0        2.300544   -0.452812    2.051395
     32          1           0        1.540313   -0.538937    2.719144
     33          6           0        3.559671   -1.023098    2.482163
     34          1           0        4.375092   -0.311915    2.309820
     35          1           0        3.785962   -1.944150    1.931220
     36          6           0        3.432337   -1.385458    3.958931
     37          8           0        2.341265   -1.355015    4.534200
     38          7           0        4.589750   -1.729094    4.577591
     39          1           0        5.382977   -1.948596    3.986854
     40          6           0        4.573915   -2.369950    5.895342
     41          1           0        5.561717   -2.277517    6.347652
     42          1           0        3.833867   -1.855401    6.512215
     43          6           0        4.250317   -3.858523    5.712003
     44          8           0        5.125184   -4.710337    5.656088
     45          7           0        2.916985   -4.128601    5.524686
     46          1           0        2.330416   -3.320830    5.334802
     47          6           0        2.583810   -5.342439    4.814158
     48          1           0        3.079198   -6.188432    5.298495
     49          1           0        1.502184   -5.506205    4.864388
     50          6           0        3.017320   -5.253933    3.336356
     51          8           0        3.301029   -4.185718    2.797198
     52          7           0        3.031027   -6.431823    2.670749
     53          1           0        2.889689   -7.314848    3.147947
     54          6           0        3.448448   -6.508834    1.289266
     55          1           0        2.759106   -5.967345    0.629551
     56          1           0        4.435393   -6.050993    1.145480
     57          6           0        3.504643   -7.962281    0.866672
     58          8           0        3.253640   -8.901843    1.589338
     59          8           0        3.872412   -8.077597   -0.422689
     60          1           0        3.898533   -9.031304   -0.629130
 ---------------------------------------------------------------------

 SCF Done:  E(RB3LYP) =  -1740.95299836     A.U. after    1 cycles

 Alpha  occ. eigenvalues --  -19.28697 -19.26093 -19.22709 -19.20687 -19.19916
 Alpha  occ. eigenvalues --  -19.18862 -19.18444 -19.17284 -19.16323 -14.62179
 Alpha  occ. eigenvalues --  -14.51032 -14.46092 -14.43660 -14.42897 -14.42467
 Alpha  occ. eigenvalues --  -14.41820 -14.40060 -10.45490 -10.42626 -10.39950
 Alpha  occ. eigenvalues --  -10.38840 -10.37192 -10.35841 -10.35750 -10.35431
 Alpha  occ. eigenvalues --  -10.34301 -10.33254 -10.31969 -10.30189 -10.29569
 Alpha  occ. eigenvalues --  -10.28878 -10.28181 -10.27996  -1.21167  -1.17141
 Alpha  occ. eigenvalues --   -1.15779  -1.14660  -1.11904  -1.10899  -1.10092
 Alpha  occ. eigenvalues --   -1.09316  -1.08307  -1.07890  -1.07557  -1.02593
 Alpha  occ. eigenvalues --   -1.00155  -0.99087  -0.98782  -0.98221  -0.96688
 Alpha  occ. eigenvalues --   -0.92070  -0.86633  -0.83762  -0.82436  -0.81575
 Alpha  occ. eigenvalues --   -0.79318  -0.76873  -0.76093  -0.75922  -0.74452
 Alpha  occ. eigenvalues --   -0.73443  -0.69496  -0.68149  -0.68046  -0.66944
 Alpha  occ. eigenvalues --   -0.65734  -0.64984  -0.64834  -0.64526  -0.62777
 Alpha  occ. eigenvalues --   -0.62563  -0.62360  -0.60393  -0.59461  -0.59344
 Alpha  occ. eigenvalues --   -0.58630  -0.56908  -0.56507  -0.56410  -0.55650
 Alpha  occ. eigenvalues --   -0.55162  -0.54777  -0.54691  -0.54442  -0.53996
 Alpha  occ. eigenvalues --   -0.53617  -0.53278  -0.52748  -0.52515  -0.52143
 Alpha  occ. eigenvalues --   -0.51809  -0.50760  -0.50086  -0.49678  -0.49365
 Alpha  occ. eigenvalues --   -0.47960  -0.47579  -0.47045  -0.46591  -0.46391
 Alpha  occ. eigenvalues --   -0.45710  -0.45439  -0.45268  -0.44900  -0.44330
 Alpha  occ. eigenvalues --   -0.43792  -0.43740  -0.42061  -0.41798  -0.40947
 Alpha  occ. eigenvalues --   -0.40855  -0.38335  -0.37361  -0.35974  -0.34728
 Alpha  occ. eigenvalues --   -0.34487  -0.34169  -0.33461  -0.33175  -0.32240
 Alpha  occ. eigenvalues --   -0.31979  -0.31623  -0.31428  -0.30219  -0.28921
 Alpha virt. eigenvalues --   -0.13719  -0.13378  -0.08335  -0.07677  -0.06325
 Alpha virt. eigenvalues --   -0.05432  -0.05325  -0.05067  -0.03729  -0.02912
 Alpha virt. eigenvalues --   -0.02816  -0.02207  -0.01902   0.00241   0.01172

 Mulliken charges:
               1
     1  N   -0.750766
     2  H    0.424054
     3  H    0.423980
     4  H    0.440896
     5  C   -0.277063
     6  H    0.250148
     7  H    0.250123
     8  C    0.640145
     9  O   -0.523799
    10  N   -0.603972
    11  H    0.381045
    12  C   -0.212373
    13  H    0.215961
    14  H    0.216008
    15  C    0.620200
    16  O   -0.534587
    17  N   -0.620438
    18  H    0.368634
    19  C   -0.200727
    20  H    0.201748
    21  H    0.201707
    22  C    0.611851
    23  O   -0.533947
    24  N   -0.621632
    25  H    0.363518
    26  C   -0.196172
    27  H    0.196326
    28  H    0.195505
    29  C    0.609262
    30  O   -0.533926
    31  N   -0.622516
    32  H    0.358877
    33  C   -0.199432
    34  H    0.190510
    35  H    0.227109
    36  C    0.626299
    37  O   -0.549622
    38  N   -0.580549
    39  H    0.349268
    40  C   -0.242807
    41  H    0.188388
    42  H    0.197058
    43  C    0.587603
    44  O   -0.502747
    45  N   -0.565856
    46  H    0.362719
    47  C   -0.255510
    48  H    0.200849
    49  H    0.183704
    50  C    0.629477
    51  O   -0.545189
    52  N   -0.612113
    53  H    0.358504
    54  C   -0.172724
    55  H    0.200598
    56  H    0.208985
    57  C    0.566314
    58  O   -0.454178
    59  O   -0.559066
    60  H    0.424338
 Sum of Mulliken charges =   1.00000

 Dipole moment (field-independent basis, Debye):
    X=            -13.1831    Y=             24.7948    Z=            -28.7450  Tot=             40.1852
 Quadrupole moment (field-independent basis, Debye-Ang):
   XX=           -121.8254   YY=             59.4900   ZZ=             47.6647
   XY=           -121.5050   XZ=            124.6562   YZ=           -213.2048

 Normal termination of Gaussian 16 at Mon Jul 18 21:32:55 2022.
