 Gaussian 16, Revision C.01,
 Gaussian 16:  ES64L-G16RevC.01  3-Jul-2019

 ----------------------------------------------------------------------
 # B3LYP/6-31G* empiricaldispersion=gd3 guess=read geom=check nosymm in
 tegral(ultrafinegrid)
 ----------------------------------------------------------------------

 ------------------------------------------------------
 Candidate Structure: Conf:578 Charge calc in gas phase
 ------------------------------------------------------
 Structure from the checkpoint file:  "conf-578.chk"
 Charge =  1 Multiplicity = 1

                          Input orientation:
 ---------------------------------------------------------------------
 Center     Atomic      Atomic             Coordinates (Angstroms)
 Number     Number       Type             X           Y           Z
 ---------------------------------------------------------------------
      1          7           0       -0.467642    0.031315    0.280578
      2          1           0        0.330166   -0.572212    0.522369
      3          1           0       -0.276103    0.458214   -0.639502
      4          1           0       -0.393025    0.833190    0.951862
      5          6           0       -1.818974   -0.582629    0.379081
      6          1           0       -1.912543   -1.047756    1.363174
      7          1           0       -1.927440   -1.349659   -0.392712
      8          6           0       -2.822753    0.559439    0.155950
      9          8           0       -2.530063    1.472391   -0.606778
     10          7           0       -3.973863    0.539607    0.871857
     11          1           0       -4.211307   -0.258065    1.446067
     12          6           0       -4.884332    1.687507    0.797160
     13          1           0       -5.190167    1.872528   -0.234048
     14          1           0       -5.767176    1.463544    1.401648
     15          6           0       -4.195180    2.978301    1.292407
     16          8           0       -4.259538    4.025873    0.676748
     17          7           0       -3.502803    2.844327    2.479756
     18          1           0       -3.314623    1.893528    2.774191
     19          6           0       -2.389295    3.756177    2.731830
     20          1           0       -2.077254    3.665935    3.774562
     21          1           0       -2.718446    4.777564    2.536880
     22          6           0       -1.258041    3.286469    1.811503
     23          8           0       -0.826970    2.134183    1.955297
     24          7           0       -0.850407    4.127868    0.833252
     25          1           0       -1.399406    4.973587    0.730582
     26          6           0       -0.222249    3.654018   -0.406075
     27          1           0       -0.948144    3.095783   -1.000351
     28          1           0        0.083527    4.537389   -0.975860
     29          6           0        1.008554    2.756640   -0.266905
     30          8           0        1.187208    1.851899   -1.087395
     31          7           0        1.895215    3.032086    0.711659
     32          1           0        1.649512    3.707850    1.420925
     33          6           0        3.131903    2.284523    0.835540
     34          1           0        3.653898    2.643686    1.727422
     35          1           0        3.773068    2.486735   -0.029994
     36          6           0        2.934864    0.761856    0.973724
     37          8           0        1.904210    0.255784    1.432887
     38          7           0        4.003558    0.042711    0.605251
     39          1           0        4.851122    0.458940    0.222883
     40          6           0        4.079760   -1.394244    0.747555
     41          1           0        3.866998   -1.693995    1.780845
     42          1           0        3.340995   -1.892531    0.105594
     43          6           0        5.500882   -1.814723    0.335440
     44          8           0        6.312273   -0.981652   -0.066993
     45          7           0        5.763565   -3.127825    0.444664
     46          1           0        5.081517   -3.806232    0.774451
     47          6           0        7.043614   -3.696269    0.082695
     48          1           0        7.286621   -3.472572   -0.963804
     49          1           0        7.848157   -3.269670    0.695317
     50          6           0        6.948345   -5.211828    0.301620
     51          8           0        5.913701   -5.734337    0.714177
     52          7           0        8.066213   -5.907710    0.011796
     53          1           0        8.910167   -5.457291   -0.325514
     54          6           0        8.127977   -7.344950    0.172130
     55          1           0        7.926973   -7.640844    1.208945
     56          1           0        7.375399   -7.849384   -0.446019
     57          6           0        9.510774   -7.819556   -0.229070
     58          8           0       10.398778   -7.091098   -0.616362
     59          8           0        9.620656   -9.151029   -0.098669
     60          1           0       10.525826   -9.398040   -0.368686
 ---------------------------------------------------------------------

 SCF Done:  E(RB3LYP) =  -1740.98879623     A.U. after    1 cycles

 Alpha  occ. eigenvalues --  -19.27487 -19.25527 -19.25346 -19.23094 -19.22645
 Alpha  occ. eigenvalues --  -19.22194 -19.22167 -19.20592 -19.20029 -14.54631
 Alpha  occ. eigenvalues --  -14.50437 -14.49497 -14.47830 -14.47060 -14.46029
 Alpha  occ. eigenvalues --  -14.44543 -14.44282 -10.43160 -10.42018 -10.40569
 Alpha  occ. eigenvalues --  -10.40360 -10.39856 -10.39581 -10.38630 -10.37923
 Alpha  occ. eigenvalues --  -10.37302 -10.34783 -10.34425 -10.34348 -10.34117
 Alpha  occ. eigenvalues --  -10.32705 -10.31333 -10.31317  -1.18604  -1.18155
 Alpha  occ. eigenvalues --   -1.17001  -1.15257  -1.14508  -1.13762  -1.12653
 Alpha  occ. eigenvalues --   -1.11813  -1.10113  -1.09808  -1.06178  -1.05415
 Alpha  occ. eigenvalues --   -1.03624  -1.03160  -1.02443  -1.01110  -1.00621
 Alpha  occ. eigenvalues --   -0.89266  -0.87776  -0.86150  -0.84811  -0.83765
 Alpha  occ. eigenvalues --   -0.81943  -0.80539  -0.78231  -0.73203  -0.72327
 Alpha  occ. eigenvalues --   -0.70792  -0.70305  -0.69939  -0.69325  -0.68802
 Alpha  occ. eigenvalues --   -0.68506  -0.67770  -0.66768  -0.65719  -0.65367
 Alpha  occ. eigenvalues --   -0.64324  -0.62905  -0.61884  -0.61745  -0.60283
 Alpha  occ. eigenvalues --   -0.59685  -0.59448  -0.58077  -0.57873  -0.57413
 Alpha  occ. eigenvalues --   -0.57346  -0.56756  -0.56571  -0.56158  -0.55985
 Alpha  occ. eigenvalues --   -0.55556  -0.54964  -0.54691  -0.54235  -0.53595
 Alpha  occ. eigenvalues --   -0.53433  -0.53398  -0.53041  -0.52819  -0.52148
 Alpha  occ. eigenvalues --   -0.51886  -0.50724  -0.50312  -0.49890  -0.49467
 Alpha  occ. eigenvalues --   -0.49417  -0.48372  -0.48179  -0.48017  -0.47230
 Alpha  occ. eigenvalues --   -0.46728  -0.46578  -0.45313  -0.43529  -0.40561
 Alpha  occ. eigenvalues --   -0.40268  -0.39844  -0.39750  -0.39166  -0.38237
 Alpha  occ. eigenvalues --   -0.37125  -0.36490  -0.36313  -0.36277  -0.35869
 Alpha  occ. eigenvalues --   -0.35523  -0.35052  -0.34563  -0.33813  -0.33212
 Alpha virt. eigenvalues --   -0.12577  -0.11530  -0.09865  -0.09185  -0.08231
 Alpha virt. eigenvalues --   -0.06839  -0.06348  -0.05964  -0.05104  -0.04097
 Alpha virt. eigenvalues --   -0.02641  -0.01028  -0.00257  -0.00068   0.00503

 Mulliken charges:
               1
     1  N   -0.782033
     2  H    0.413198
     3  H    0.422248
     4  H    0.473928
     5  C   -0.261708
     6  H    0.207077
     7  H    0.234292
     8  C    0.634927
     9  O   -0.497712
    10  N   -0.615354
    11  H    0.353126
    12  C   -0.230644
    13  H    0.228940
    14  H    0.203299
    15  C    0.594381
    16  O   -0.479968
    17  N   -0.551995
    18  H    0.329007
    19  C   -0.231866
    20  H    0.201802
    21  H    0.203566
    22  C    0.608332
    23  O   -0.562046
    24  N   -0.585434
    25  H    0.369537
    26  C   -0.249150
    27  H    0.242797
    28  H    0.207826
    29  C    0.606895
    30  O   -0.551949
    31  N   -0.556306
    32  H    0.352768
    33  C   -0.234061
    34  H    0.201460
    35  H    0.200883
    36  C    0.647539
    37  O   -0.581265
    38  N   -0.599389
    39  H    0.369972
    40  C   -0.198529
    41  H    0.196729
    42  H    0.179788
    43  C    0.612493
    44  O   -0.525351
    45  N   -0.622773
    46  H    0.359824
    47  C   -0.195405
    48  H    0.199715
    49  H    0.199379
    50  C    0.610179
    51  O   -0.528501
    52  N   -0.624118
    53  H    0.361971
    54  C   -0.177989
    55  H    0.213478
    56  H    0.212674
    57  C    0.569535
    58  O   -0.454745
    59  O   -0.554008
    60  H    0.428730
 Sum of Mulliken charges =   1.00000

 Dipole moment (field-independent basis, Debye):
    X=              2.9161    Y=             -1.7067    Z=              6.0053  Tot=              6.8906
 Quadrupole moment (field-independent basis, Debye-Ang):
   XX=            -83.9846   YY=           -100.0247   ZZ=           -178.2150
   XY=            -52.8724   XZ=             -9.6356   YZ=             16.7106

 Normal termination of Gaussian 16 at Mon Jul 18 21:40:00 2022.
