 Gaussian 16, Revision C.01,
 Gaussian 16:  ES64L-G16RevC.01  3-Jul-2019

 ----------------------------------------------------------------------
 # B3LYP/6-31G* empiricaldispersion=gd3 guess=read geom=check nosymm in
 tegral(ultrafinegrid)
 ----------------------------------------------------------------------

 ------------------------------------------------------
 Candidate Structure: Conf:961 Charge calc in gas phase
 ------------------------------------------------------
 Structure from the checkpoint file:  "conf-961.chk"
 Charge =  1 Multiplicity = 1

                          Input orientation:
 ---------------------------------------------------------------------
 Center     Atomic      Atomic             Coordinates (Angstroms)
 Number     Number       Type             X           Y           Z
 ---------------------------------------------------------------------
      1          7           0        2.749580    3.968829    0.763098
      2          1           0        3.734279    4.258141    0.876061
      3          1           0        2.572644    3.200151    1.428359
      4          1           0        2.733841    3.516941   -0.186600
      5          6           0        1.725254    5.036006    0.807088
      6          1           0        1.988921    5.799421    0.070450
      7          1           0        1.709198    5.494384    1.800206
      8          6           0        0.372340    4.378300    0.498211
      9          8           0        0.222639    3.169552    0.652474
     10          7           0       -0.624213    5.201945    0.095867
     11          1           0       -0.396666    6.121863   -0.258505
     12          6           0       -1.886446    4.613230   -0.336801
     13          1           0       -2.219162    3.903797    0.423816
     14          1           0       -2.629416    5.410515   -0.419724
     15          6           0       -1.717746    3.967122   -1.719210
     16          8           0       -1.199113    4.607519   -2.634991
     17          7           0       -2.173873    2.698919   -1.856264
     18          1           0       -2.408170    2.171148   -1.026195
     19          6           0       -2.082165    1.975736   -3.126044
     20          1           0       -2.387430    2.652282   -3.929204
     21          1           0       -2.757143    1.120451   -3.093741
     22          6           0       -0.656474    1.451513   -3.360397
     23          8           0       -0.347782    0.277261   -3.161235
     24          7           0        0.229317    2.404910   -3.760716
     25          1           0       -0.071354    3.376394   -3.683861
     26          6           0        1.656394    2.114702   -3.801795
     27          1           0        1.818262    1.178800   -4.343022
     28          1           0        2.169653    2.928012   -4.315670
     29          6           0        2.170527    2.040054   -2.363161
     30          8           0        2.536684    3.067120   -1.777771
     31          7           0        2.129496    0.810661   -1.789113
     32          1           0        1.558480    0.135901   -2.296840
     33          6           0        2.169187    0.651187   -0.335935
     34          1           0        1.990440   -0.404839   -0.112254
     35          1           0        1.379069    1.235260    0.143810
     36          6           0        3.477211    1.049367    0.350070
     37          8           0        3.453340    1.404753    1.530940
     38          7           0        4.615810    0.965728   -0.373483
     39          1           0        4.545549    0.742460   -1.357358
     40          6           0        5.899616    1.347023    0.181816
     41          1           0        5.860480    1.157278    1.259162
     42          1           0        6.678816    0.711345   -0.248607
     43          6           0        6.227475    2.839359   -0.004599
     44          8           0        5.377402    3.729046    0.121475
     45          7           0        7.514749    3.104588   -0.269085
     46          1           0        8.217742    2.379790   -0.400056
     47          6           0        8.037774    4.449493   -0.380094
     48          1           0        7.530238    4.997508   -1.183763
     49          1           0        7.870736    5.009852    0.548415
     50          6           0        9.540462    4.325798   -0.675858
     51          8           0       10.073940    3.223981   -0.791205
     52          7           0       10.203594    5.492051   -0.796135
     53          1           0        9.743521    6.390041   -0.691085
     54          6           0       11.625337    5.534642   -1.070041
     55          1           0       12.197741    5.013277   -0.293434
     56          1           0       11.864979    5.039760   -2.018853
     57          6           0       12.059970    6.986155   -1.131859
     58          8           0       11.313715    7.928899   -0.973824
     59          8           0       13.373041    7.086338   -1.383498
     60          1           0       13.597487    8.036222   -1.411275
 ---------------------------------------------------------------------

 SCF Done:  E(RB3LYP) =  -1741.01395373     A.U. after    1 cycles

 Alpha  occ. eigenvalues --  -19.28387 -19.25189 -19.25069 -19.23323 -19.23116
 Alpha  occ. eigenvalues --  -19.22678 -19.22662 -19.22512 -19.21295 -14.53208
 Alpha  occ. eigenvalues --  -14.49273 -14.48326 -14.48059 -14.47766 -14.46618
 Alpha  occ. eigenvalues --  -14.46404 -14.45517 -10.42517 -10.41316 -10.41276
 Alpha  occ. eigenvalues --  -10.40555 -10.40265 -10.39848 -10.39383 -10.38619
 Alpha  occ. eigenvalues --  -10.37701 -10.34898 -10.33911 -10.33803 -10.33791
 Alpha  occ. eigenvalues --  -10.33535 -10.33049 -10.32306  -1.19536  -1.17487
 Alpha  occ. eigenvalues --   -1.16489  -1.15307  -1.14965  -1.14142  -1.13946
 Alpha  occ. eigenvalues --   -1.13163  -1.10756  -1.09094  -1.05295  -1.04731
 Alpha  occ. eigenvalues --   -1.04005  -1.03380  -1.02862  -1.02585  -1.01904
 Alpha  occ. eigenvalues --   -0.88783  -0.88004  -0.86641  -0.85314  -0.83816
 Alpha  occ. eigenvalues --   -0.82185  -0.80438  -0.79234  -0.72335  -0.71831
 Alpha  occ. eigenvalues --   -0.71039  -0.70291  -0.69925  -0.69885  -0.68938
 Alpha  occ. eigenvalues --   -0.68446  -0.68113  -0.67910  -0.65356  -0.64703
 Alpha  occ. eigenvalues --   -0.64454  -0.63649  -0.62256  -0.61483  -0.61360
 Alpha  occ. eigenvalues --   -0.59696  -0.59382  -0.58974  -0.58252  -0.58190
 Alpha  occ. eigenvalues --   -0.57786  -0.57315  -0.57080  -0.56713  -0.56175
 Alpha  occ. eigenvalues --   -0.55794  -0.55533  -0.54652  -0.54436  -0.54082
 Alpha  occ. eigenvalues --   -0.53942  -0.53086  -0.52723  -0.52035  -0.51909
 Alpha  occ. eigenvalues --   -0.51421  -0.51029  -0.50933  -0.50272  -0.49765
 Alpha  occ. eigenvalues --   -0.49545  -0.49514  -0.48715  -0.48396  -0.48169
 Alpha  occ. eigenvalues --   -0.47497  -0.47379  -0.46745  -0.45044  -0.40666
 Alpha  occ. eigenvalues --   -0.40211  -0.39941  -0.39391  -0.38956  -0.38918
 Alpha  occ. eigenvalues --   -0.38880  -0.37251  -0.36928  -0.36709  -0.36570
 Alpha  occ. eigenvalues --   -0.35806  -0.35673  -0.35090  -0.34760  -0.34708
 Alpha virt. eigenvalues --   -0.11866  -0.10668  -0.10081  -0.09777  -0.08484
 Alpha virt. eigenvalues --   -0.08295  -0.07770  -0.06475  -0.04225  -0.02952
 Alpha virt. eigenvalues --   -0.02127  -0.01324  -0.00251  -0.00019   0.00661

 Mulliken charges:
               1
     1  N   -0.795976
     2  H    0.428600
     3  H    0.420737
     4  H    0.456656
     5  C   -0.261443
     6  H    0.214451
     7  H    0.232913
     8  C    0.631380
     9  O   -0.512028
    10  N   -0.571555
    11  H    0.357442
    12  C   -0.242653
    13  H    0.196888
    14  H    0.211605
    15  C    0.625003
    16  O   -0.531768
    17  N   -0.576920
    18  H    0.358235
    19  C   -0.239220
    20  H    0.210057
    21  H    0.204772
    22  C    0.593209
    23  O   -0.519945
    24  N   -0.580571
    25  H    0.386469
    26  C   -0.228582
    27  H    0.199203
    28  H    0.198511
    29  C    0.590527
    30  O   -0.545278
    31  N   -0.592475
    32  H    0.385327
    33  C   -0.260152
    34  H    0.212082
    35  H    0.232230
    36  C    0.600969
    37  O   -0.549485
    38  N   -0.556605
    39  H    0.352289
    40  C   -0.249750
    41  H    0.230319
    42  H    0.181731
    43  C    0.638492
    44  O   -0.572474
    45  N   -0.599899
    46  H    0.369585
    47  C   -0.199036
    48  H    0.196993
    49  H    0.195381
    50  C    0.612659
    51  O   -0.520891
    52  N   -0.624118
    53  H    0.359946
    54  C   -0.180356
    55  H    0.217529
    56  H    0.216288
    57  C    0.570908
    58  O   -0.457533
    59  O   -0.550961
    60  H    0.430293
 Sum of Mulliken charges =   1.00000

 Dipole moment (field-independent basis, Debye):
    X=             15.4446    Y=             19.4625    Z=             -3.7620  Tot=             25.1292
 Quadrupole moment (field-independent basis, Debye-Ang):
   XX=            -11.4182   YY=            -80.9175   ZZ=           -174.1604
   XY=             85.3157   XZ=            -14.6272   YZ=             -4.1916

 Normal termination of Gaussian 16 at Mon Jul 18 21:46:47 2022.
