 Gaussian 16, Revision C.01,
 Gaussian 16:  ES64L-G16RevC.01  3-Jul-2019

 ----------------------------------------------------------------------
 # B3LYP/6-31G* empiricaldispersion=gd3 guess=read geom=check nosymm in
 tegral(ultrafinegrid)
 ----------------------------------------------------------------------

 ------------------------------------------------------
 Candidate Structure: Conf:123 Charge calc in gas phase
 ------------------------------------------------------
 Structure from the checkpoint file:  "conf-123.chk"
 Charge =  1 Multiplicity = 1

                          Input orientation:
 ---------------------------------------------------------------------
 Center     Atomic      Atomic             Coordinates (Angstroms)
 Number     Number       Type             X           Y           Z
 ---------------------------------------------------------------------
      1          7           0        3.188161    7.143533   -0.172041
      2          1           0        4.076812    7.613052   -0.362262
      3          1           0        2.579039    7.257732   -0.986664
      4          1           0        2.711166    7.571314    0.683423
      5          6           0        3.331872    5.707084    0.256029
      6          1           0        4.388815    5.458313    0.363911
      7          1           0        2.879610    5.026123   -0.467078
      8          6           0        2.579276    5.653204    1.606152
      9          8           0        2.146205    6.717396    2.060361
     10          7           0        2.483714    4.440413    2.161981
     11          1           0        2.739544    3.663992    1.538302
     12          6           0        1.416783    4.163669    3.118415
     13          1           0        1.747037    3.397749    3.825867
     14          1           0        1.194704    5.079754    3.670339
     15          6           0        0.182957    3.739636    2.298416
     16          8           0       -0.126654    4.380147    1.293463
     17          7           0       -0.464507    2.618881    2.697968
     18          1           0       -0.074226    2.065560    3.449567
     19          6           0       -1.444431    1.958027    1.824924
     20          1           0       -2.102144    2.719256    1.399900
     21          1           0       -2.027081    1.250213    2.413797
     22          6           0       -0.649621    1.190515    0.754461
     23          8           0       -0.346034    0.012980    0.889645
     24          7           0       -0.208068    1.972480   -0.280955
     25          1           0       -0.318587    2.976335   -0.165946
     26          6           0        0.929764    1.518415   -1.072289
     27          1           0        0.752786    0.489985   -1.392703
     28          1           0        1.031040    2.157749   -1.951150
     29          6           0        2.199774    1.643522   -0.224784
     30          8           0        2.767061    2.747579   -0.073430
     31          7           0        2.605894    0.533052    0.395997
     32          1           0        2.053006   -0.323642    0.365474
     33          6           0        3.754501    0.496617    1.274930
     34          1           0        3.593242    1.121108    2.165934
     35          1           0        4.637654    0.894076    0.761997
     36          6           0        3.970181   -0.963680    1.705968
     37          8           0        3.157084   -1.835860    1.414824
     38          7           0        5.088376   -1.184808    2.422732
     39          1           0        5.753266   -0.453554    2.660219
     40          6           0        5.423039   -2.491536    2.943372
     41          1           0        4.620494   -2.869584    3.589970
     42          1           0        5.542721   -3.218421    2.129368
     43          6           0        6.728752   -2.351310    3.737615
     44          8           0        7.286617   -1.263270    3.853349
     45          7           0        7.199903   -3.505871    4.269302
     46          1           0        6.670007   -4.362595    4.152422
     47          6           0        8.396901   -3.567210    5.102977
     48          1           0        8.990380   -2.671800    4.895524
     49          1           0        8.147891   -3.578132    6.167851
     50          6           0        9.198670   -4.840821    4.815520
     51          8           0        9.658546   -5.525210    5.712732
     52          7           0        9.343822   -5.135910    3.480044
     53          1           0        8.789504   -4.583484    2.838969
     54          6           0        9.627366   -6.494888    3.076413
     55          1           0       10.188492   -6.520832    2.137721
     56          1           0       10.250924   -6.957421    3.846377
     57          6           0        8.391725   -7.373749    2.902130
     58          8           0        8.421896   -8.508622    2.498838
     59          8           0        7.230692   -6.740170    3.248927
     60          1           0        6.525476   -7.404130    3.125086
 ---------------------------------------------------------------------

 SCF Done:  E(RB3LYP) =  -1740.95533928     A.U. after    2 cycles

 Alpha  occ. eigenvalues --  -19.27645 -19.27484 -19.24018 -19.23806 -19.21812
 Alpha  occ. eigenvalues --  -19.21330 -19.21270 -19.20965 -19.18676 -14.61086
 Alpha  occ. eigenvalues --  -14.49552 -14.49037 -14.47278 -14.45921 -14.45632
 Alpha  occ. eigenvalues --  -14.45480 -14.43225 -10.44248 -10.41340 -10.40426
 Alpha  occ. eigenvalues --  -10.40355 -10.39275 -10.38847 -10.38799 -10.38573
 Alpha  occ. eigenvalues --  -10.35985 -10.35731 -10.33945 -10.33581 -10.33249
 Alpha  occ. eigenvalues --  -10.32473 -10.30466 -10.30430  -1.20067  -1.17733
 Alpha  occ. eigenvalues --   -1.16168  -1.15111  -1.14597  -1.13680  -1.13498
 Alpha  occ. eigenvalues --   -1.12887  -1.10694  -1.08829  -1.06751  -1.04601
 Alpha  occ. eigenvalues --   -1.03537  -1.02235  -1.02090  -1.01793  -0.99489
 Alpha  occ. eigenvalues --   -0.90828  -0.87532  -0.86340  -0.84639  -0.83049
 Alpha  occ. eigenvalues --   -0.81395  -0.79667  -0.77578  -0.75020  -0.74491
 Alpha  occ. eigenvalues --   -0.72427  -0.71179  -0.70312  -0.69215  -0.68942
 Alpha  occ. eigenvalues --   -0.68137  -0.67707  -0.67197  -0.65963  -0.64920
 Alpha  occ. eigenvalues --   -0.64338  -0.63022  -0.62714  -0.61490  -0.60750
 Alpha  occ. eigenvalues --   -0.60065  -0.59640  -0.58872  -0.58566  -0.58228
 Alpha  occ. eigenvalues --   -0.57329  -0.57006  -0.56340  -0.56023  -0.55676
 Alpha  occ. eigenvalues --   -0.54886  -0.54518  -0.54181  -0.53940  -0.53452
 Alpha  occ. eigenvalues --   -0.52958  -0.52321  -0.52188  -0.51642  -0.50943
 Alpha  occ. eigenvalues --   -0.50708  -0.50440  -0.49637  -0.49346  -0.48800
 Alpha  occ. eigenvalues --   -0.48646  -0.48342  -0.47917  -0.47774  -0.47123
 Alpha  occ. eigenvalues --   -0.46644  -0.45768  -0.44891  -0.44154  -0.42584
 Alpha  occ. eigenvalues --   -0.40848  -0.39359  -0.39073  -0.39004  -0.37659
 Alpha  occ. eigenvalues --   -0.37375  -0.36355  -0.36139  -0.35793  -0.35643
 Alpha  occ. eigenvalues --   -0.34890  -0.34492  -0.34241  -0.32216  -0.31903
 Alpha virt. eigenvalues --   -0.13517  -0.12064  -0.10649  -0.09850  -0.08024
 Alpha virt. eigenvalues --   -0.07318  -0.06656  -0.06398  -0.06130  -0.05386
 Alpha virt. eigenvalues --   -0.04383  -0.03284  -0.01544  -0.01468  -0.00679

 Mulliken charges:
               1
     1  N   -0.750848
     2  H    0.419646
     3  H    0.423041
     4  H    0.436601
     5  C   -0.284556
     6  H    0.241981
     7  H    0.268197
     8  C    0.630001
     9  O   -0.515482
    10  N   -0.587782
    11  H    0.394895
    12  C   -0.260072
    13  H    0.179769
    14  H    0.239626
    15  C    0.616669
    16  O   -0.525932
    17  N   -0.577069
    18  H    0.352735
    19  C   -0.239281
    20  H    0.209301
    21  H    0.206727
    22  C    0.575983
    23  O   -0.492682
    24  N   -0.575170
    25  H    0.368107
    26  C   -0.219865
    27  H    0.205968
    28  H    0.182329
    29  C    0.593814
    30  O   -0.588558
    31  N   -0.568973
    32  H    0.393585
    33  C   -0.208706
    34  H    0.171428
    35  H    0.195103
    36  C    0.611658
    37  O   -0.511288
    38  N   -0.624017
    39  H    0.358763
    40  C   -0.196185
    41  H    0.199357
    42  H    0.195661
    43  C    0.597950
    44  O   -0.517362
    45  N   -0.632191
    46  H    0.356280
    47  C   -0.214632
    48  H    0.218581
    49  H    0.201601
    50  C    0.570654
    51  O   -0.482319
    52  N   -0.560665
    53  H    0.330239
    54  C   -0.246921
    55  H    0.204058
    56  H    0.242838
    57  C    0.585666
    58  O   -0.430528
    59  O   -0.589027
    60  H    0.421299
 Sum of Mulliken charges =   1.00000

 Dipole moment (field-independent basis, Debye):
    X=             14.8489    Y=             20.8502    Z=              2.5530  Tot=             25.7243
 Quadrupole moment (field-independent basis, Debye-Ang):
   XX=           -132.5172   YY=            -49.9202   ZZ=           -173.4941
   XY=             69.0211   XZ=            -10.6213   YZ=             -8.9331

 Normal termination of Gaussian 16 at Mon Jul 18 21:40:10 2022.
