 Gaussian 16, Revision C.01,
 Gaussian 16:  ES64L-G16RevC.01  3-Jul-2019

 ----------------------------------------------------------------------
 # B3LYP/6-31G* empiricaldispersion=gd3 guess=read geom=check nosymm in
 tegral(ultrafinegrid)
 ----------------------------------------------------------------------

 -----------------------------------------------------
 Candidate Structure: Conf:90 Charge calc in gas phase
 -----------------------------------------------------
 Structure from the checkpoint file:  "conf-90.chk"
 Charge =  1 Multiplicity = 1

                          Input orientation:
 ---------------------------------------------------------------------
 Center     Atomic      Atomic             Coordinates (Angstroms)
 Number     Number       Type             X           Y           Z
 ---------------------------------------------------------------------
      1          7           0       -1.219215   11.011295    2.884475
      2          1           0       -1.494660   11.989864    3.000210
      3          1           0       -0.365401   10.971886    2.319372
      4          1           0       -1.976343   10.452397    2.381772
      5          6           0       -1.085245   10.246238    4.172893
      6          1           0       -1.487323   10.841605    4.995244
      7          1           0       -0.036399   10.008602    4.352191
      8          6           0       -1.901392    8.959411    3.913247
      9          8           0       -2.574576    8.915696    2.882688
     10          7           0       -1.823240    7.983272    4.838514
     11          1           0       -1.110280    8.119782    5.547380
     12          6           0       -1.894704    6.614125    4.335583
     13          1           0       -1.955354    5.919788    5.176998
     14          1           0       -2.798756    6.504697    3.732267
     15          6           0       -0.635627    6.370730    3.458201
     16          8           0        0.084946    7.320082    3.134095
     17          7           0       -0.430596    5.100834    3.098879
     18          1           0       -1.040724    4.333098    3.380615
     19          6           0        0.661132    4.675976    2.245891
     20          1           0        1.628529    4.921898    2.700257
     21          1           0        0.617785    5.185402    1.275542
     22          6           0        0.514736    3.154273    2.068462
     23          8           0       -0.411530    2.548500    2.610413
     24          7           0        1.449485    2.575004    1.301584
     25          1           0        2.208871    3.090852    0.861466
     26          6           0        1.468586    1.154317    1.025861
     27          1           0        1.543976    0.577486    1.956079
     28          1           0        0.542137    0.841000    0.528540
     29          6           0        2.682718    0.886163    0.123437
     30          8           0        3.422958    1.805197   -0.231582
     31          7           0        2.858613   -0.397086   -0.232417
     32          1           0        2.241242   -1.147039    0.069797
     33          6           0        3.950890   -0.828129   -1.076599
     34          1           0        4.917576   -0.569954   -0.625802
     35          1           0        3.911046   -0.327865   -2.052653
     36          6           0        3.826127   -2.348589   -1.247897
     37          8           0        2.911217   -2.977098   -0.714883
     38          7           0        4.776450   -2.918691   -2.010819
     39          1           0        5.530314   -2.391548   -2.443470
     40          6           0        4.807419   -4.340288   -2.271294
     41          1           0        4.872605   -4.907252   -1.333708
     42          1           0        3.887537   -4.665406   -2.774361
     43          6           0        6.028336   -4.624216   -3.155189
     44          8           0        6.779026   -3.720300   -3.522287
     45          7           0        6.205616   -5.917279   -3.489172
     46          1           0        5.582496   -6.658346   -3.181164
     47          6           0        7.308172   -6.350426   -4.316447
     48          1           0        7.279146   -5.855673   -5.296181
     49          1           0        8.268985   -6.083787   -3.856937
     50          6           0        7.200210   -7.869910   -4.483637
     51          8           0        6.291801   -8.513840   -3.963585
     52          7           0        8.168262   -8.436313   -5.237192
     53          1           0        8.912445   -7.891459   -5.657857
     54          6           0        8.195282   -9.861924   -5.480040
     55          1           0        8.255382  -10.426788   -4.541590
     56          1           0        7.281672  -10.200042   -5.984534
     57          6           0        9.396997  -10.190705   -6.343362
     58          8           0       10.202457   -9.365299   -6.759129
     59          8           0        9.463483  -11.511486   -6.594531
     60          1           0       10.251274  -11.661665   -7.150779
 ---------------------------------------------------------------------

 SCF Done:  E(RB3LYP) =  -1740.94774695     A.U. after    1 cycles

 Alpha  occ. eigenvalues --  -19.28522 -19.26061 -19.22568 -19.20554 -19.19961
 Alpha  occ. eigenvalues --  -19.18508 -19.17711 -19.17665 -19.17396 -14.61923
 Alpha  occ. eigenvalues --  -14.50687 -14.46122 -14.43711 -14.42384 -14.42121
 Alpha  occ. eigenvalues --  -14.41676 -14.41512 -10.45297 -10.41956 -10.39682
 Alpha  occ. eigenvalues --  -10.38893 -10.37252 -10.35771 -10.35205 -10.34988
 Alpha  occ. eigenvalues --  -10.34939 -10.34662 -10.32134 -10.30179 -10.29557
 Alpha  occ. eigenvalues --  -10.29191 -10.28782 -10.28690  -1.21123  -1.16710
 Alpha  occ. eigenvalues --   -1.15629  -1.14219  -1.11937  -1.10501  -1.10024
 Alpha  occ. eigenvalues --   -1.09574  -1.08906  -1.07675  -1.07409  -1.02515
 Alpha  occ. eigenvalues --   -1.00207  -0.98886  -0.98630  -0.98203  -0.97829
 Alpha  occ. eigenvalues --   -0.91530  -0.86125  -0.83605  -0.82879  -0.81501
 Alpha  occ. eigenvalues --   -0.79636  -0.77333  -0.76005  -0.75277  -0.74595
 Alpha  occ. eigenvalues --   -0.72951  -0.69436  -0.68174  -0.67687  -0.66973
 Alpha  occ. eigenvalues --   -0.65891  -0.65332  -0.64663  -0.64398  -0.63958
 Alpha  occ. eigenvalues --   -0.63582  -0.62008  -0.60886  -0.59847  -0.58952
 Alpha  occ. eigenvalues --   -0.57397  -0.56756  -0.56136  -0.55260  -0.55030
 Alpha  occ. eigenvalues --   -0.54973  -0.54832  -0.54198  -0.54121  -0.53901
 Alpha  occ. eigenvalues --   -0.53500  -0.53280  -0.52963  -0.52488  -0.52247
 Alpha  occ. eigenvalues --   -0.52020  -0.51057  -0.50950  -0.50703  -0.50092
 Alpha  occ. eigenvalues --   -0.48922  -0.47689  -0.47471  -0.47359  -0.46162
 Alpha  occ. eigenvalues --   -0.45683  -0.45430  -0.45094  -0.44837  -0.44281
 Alpha  occ. eigenvalues --   -0.44067  -0.43429  -0.42820  -0.41615  -0.41042
 Alpha  occ. eigenvalues --   -0.40514  -0.38002  -0.36934  -0.36092  -0.34504
 Alpha  occ. eigenvalues --   -0.34487  -0.33646  -0.33053  -0.32528  -0.32460
 Alpha  occ. eigenvalues --   -0.32063  -0.31784  -0.31214  -0.30887  -0.30251
 Alpha virt. eigenvalues --   -0.14217  -0.12504  -0.08233  -0.07421  -0.06657
 Alpha virt. eigenvalues --   -0.05522  -0.05493  -0.04111  -0.03598  -0.03053
 Alpha virt. eigenvalues --   -0.02807  -0.02197  -0.01697  -0.00768   0.01072

 Mulliken charges:
               1
     1  N   -0.746879
     2  H    0.422474
     3  H    0.430562
     4  H    0.439683
     5  C   -0.278633
     6  H    0.246359
     7  H    0.253891
     8  C    0.641666
     9  O   -0.503949
    10  N   -0.541309
    11  H    0.351269
    12  C   -0.279838
    13  H    0.207345
    14  H    0.237680
    15  C    0.628396
    16  O   -0.554264
    17  N   -0.610819
    18  H    0.369643
    19  C   -0.199537
    20  H    0.197300
    21  H    0.196673
    22  C    0.611912
    23  O   -0.531607
    24  N   -0.621708
    25  H    0.361798
    26  C   -0.195938
    27  H    0.197464
    28  H    0.197599
    29  C    0.608768
    30  O   -0.535696
    31  N   -0.621912
    32  H    0.362257
    33  C   -0.193255
    34  H    0.194252
    35  H    0.194054
    36  C    0.607540
    37  O   -0.532466
    38  N   -0.622816
    39  H    0.360378
    40  C   -0.191821
    41  H    0.194402
    42  H    0.194216
    43  C    0.606812
    44  O   -0.532144
    45  N   -0.623357
    46  H    0.361069
    47  C   -0.191382
    48  H    0.194258
    49  H    0.194328
    50  C    0.607558
    51  O   -0.524545
    52  N   -0.625131
    53  H    0.359300
    54  C   -0.173641
    55  H    0.212527
    56  H    0.212287
    57  C    0.568038
    58  O   -0.464045
    59  O   -0.553966
    60  H    0.426901
 Sum of Mulliken charges =   1.00000

 Dipole moment (field-independent basis, Debye):
    X=              3.1984    Y=             33.7840    Z=             10.7143  Tot=             35.5863
 Quadrupole moment (field-independent basis, Debye-Ang):
   XX=           -127.0313   YY=            334.0444   ZZ=            -91.0177
   XY=           -120.2772   XZ=            -54.5678   YZ=            203.8473

 Normal termination of Gaussian 16 at Mon Jul 18 21:33:02 2022.
