 Gaussian 16, Revision C.01,
 Gaussian 16:  ES64L-G16RevC.01  3-Jul-2019

 ----------------------------------------------------------------------
 # B3LYP/6-31G* empiricaldispersion=gd3 guess=read geom=check nosymm in
 tegral(ultrafinegrid)
 ----------------------------------------------------------------------

 -----------------------------------------------------
 Candidate Structure: Conf:34 Charge calc in gas phase
 -----------------------------------------------------
 Structure from the checkpoint file:  "conf-34.chk"
 Charge =  1 Multiplicity = 1

                          Input orientation:
 ---------------------------------------------------------------------
 Center     Atomic      Atomic             Coordinates (Angstroms)
 Number     Number       Type             X           Y           Z
 ---------------------------------------------------------------------
      1          7           0       -3.631025    0.874511    2.961076
      2          1           0       -3.752262   -0.106669    3.220491
      3          1           0       -4.368889    1.186885    2.306869
      4          1           0       -2.707134    1.042430    2.453633
      5          6           0       -3.682156    1.814205    4.125938
      6          1           0       -2.743969    1.733883    4.677140
      7          1           0       -4.521360    1.542958    4.772239
      8          6           0       -3.896455    3.194357    3.475930
      9          8           0       -4.449778    3.234908    2.380801
     10          7           0       -3.411367    4.273827    4.119971
     11          1           0       -2.958808    4.168722    5.018520
     12          6           0       -3.319384    5.550592    3.403038
     13          1           0       -4.304589    5.861340    3.052880
     14          1           0       -2.934880    6.305564    4.093228
     15          6           0       -2.417067    5.449037    2.150590
     16          8           0       -2.654603    6.103841    1.154602
     17          7           0       -1.346019    4.600598    2.285231
     18          1           0       -1.323163    4.008699    3.103550
     19          6           0       -0.687085    4.030542    1.133184
     20          1           0        0.402988    4.132022    1.211452
     21          1           0       -0.998099    4.573096    0.237575
     22          6           0       -0.998349    2.534147    1.020623
     23          8           0       -1.413574    1.898966    2.018715
     24          7           0       -0.764510    1.987516   -0.174260
     25          1           0       -0.346488    2.607081   -0.888103
     26          6           0       -0.667089    0.559644   -0.372205
     27          1           0       -1.413069    0.048002    0.243340
     28          1           0       -0.884141    0.330330   -1.420311
     29          6           0        0.735527    0.049419    0.020691
     30          8           0        1.501098    0.727118    0.693808
     31          7           0        1.045185   -1.214305   -0.395480
     32          1           0        0.537686   -1.580603   -1.191026
     33          6           0        2.436092   -1.638586   -0.277150
     34          1           0        2.519812   -2.660931   -0.655387
     35          1           0        2.722627   -1.634441    0.777461
     36          6           0        3.324651   -0.708650   -1.119903
     37          8           0        2.939102   -0.341433   -2.231523
     38          7           0        4.502855   -0.326915   -0.570565
     39          1           0        4.632825   -0.476067    0.421984
     40          6           0        5.322277    0.724636   -1.184159
     41          1           0        6.329789    0.677941   -0.770880
     42          1           0        5.355301    0.546600   -2.261697
     43          6           0        4.708796    2.095499   -0.843154
     44          8           0        5.137795    2.801491    0.053853
     45          7           0        3.591033    2.394413   -1.588323
     46          1           0        3.216222    1.615838   -2.128503
     47          6           0        2.614319    3.329462   -1.049376
     48          1           0        2.036606    2.872819   -0.238736
     49          1           0        3.154446    4.188512   -0.637925
     50          6           0        1.641751    3.795013   -2.124303
     51          8           0        0.412862    3.820317   -1.933301
     52          7           0        2.189818    4.185984   -3.283849
     53          1           0        3.190672    4.098518   -3.434081
     54          6           0        1.394624    4.644508   -4.403094
     55          1           0        0.594676    3.931800   -4.634718
     56          1           0        0.905022    5.601173   -4.183721
     57          6           0        2.299922    4.808155   -5.609306
     58          8           0        3.491139    4.588835   -5.604150
     59          8           0        1.604481    5.230438   -6.676781
     60          1           0        2.232937    5.326211   -7.417944
 ---------------------------------------------------------------------

 SCF Done:  E(RB3LYP) =  -1740.97978405     A.U. after    1 cycles

 Alpha  occ. eigenvalues --  -19.28211 -19.26465 -19.25134 -19.23058 -19.22879
 Alpha  occ. eigenvalues --  -19.21861 -19.21603 -19.20940 -19.19548 -14.58701
 Alpha  occ. eigenvalues --  -14.50706 -14.47063 -14.47029 -14.46391 -14.45597
 Alpha  occ. eigenvalues --  -14.45580 -14.43450 -10.43917 -10.41202 -10.41115
 Alpha  occ. eigenvalues --  -10.40448 -10.39922 -10.38831 -10.38587 -10.38562
 Alpha  occ. eigenvalues --  -10.36546 -10.34757 -10.34199 -10.33347 -10.32692
 Alpha  occ. eigenvalues --  -10.32354 -10.31315 -10.30856  -1.19329  -1.19135
 Alpha  occ. eigenvalues --   -1.16139  -1.15005  -1.13431  -1.13343  -1.13259
 Alpha  occ. eigenvalues --   -1.12767  -1.11272  -1.10563  -1.06675  -1.04156
 Alpha  occ. eigenvalues --   -1.03087  -1.02227  -1.02094  -1.02002  -0.99763
 Alpha  occ. eigenvalues --   -0.90025  -0.87604  -0.85755  -0.84790  -0.83571
 Alpha  occ. eigenvalues --   -0.81488  -0.79602  -0.77907  -0.74274  -0.73435
 Alpha  occ. eigenvalues --   -0.72778  -0.71016  -0.70285  -0.69293  -0.68358
 Alpha  occ. eigenvalues --   -0.68118  -0.67636  -0.66302  -0.65883  -0.65385
 Alpha  occ. eigenvalues --   -0.63472  -0.62887  -0.62608  -0.61447  -0.61015
 Alpha  occ. eigenvalues --   -0.59950  -0.59169  -0.59047  -0.58600  -0.57523
 Alpha  occ. eigenvalues --   -0.57402  -0.57313  -0.56531  -0.56173  -0.55385
 Alpha  occ. eigenvalues --   -0.55068  -0.54739  -0.54565  -0.54396  -0.53707
 Alpha  occ. eigenvalues --   -0.53296  -0.53095  -0.52506  -0.51873  -0.51254
 Alpha  occ. eigenvalues --   -0.50656  -0.50383  -0.50277  -0.49457  -0.49106
 Alpha  occ. eigenvalues --   -0.48734  -0.48002  -0.47602  -0.47437  -0.47371
 Alpha  occ. eigenvalues --   -0.46222  -0.46040  -0.45836  -0.44363  -0.41080
 Alpha  occ. eigenvalues --   -0.40510  -0.40467  -0.39747  -0.38559  -0.37914
 Alpha  occ. eigenvalues --   -0.37069  -0.37030  -0.36399  -0.35720  -0.35529
 Alpha  occ. eigenvalues --   -0.35254  -0.35003  -0.34362  -0.33869  -0.31977
 Alpha virt. eigenvalues --   -0.13091  -0.10269  -0.09649  -0.08940  -0.08353
 Alpha virt. eigenvalues --   -0.07925  -0.07685  -0.07211  -0.05962  -0.05612
 Alpha virt. eigenvalues --   -0.03451  -0.02210  -0.01716  -0.01001  -0.00707

 Mulliken charges:
               1
     1  N   -0.754797
     2  H    0.403547
     3  H    0.417342
     4  H    0.450527
     5  C   -0.278022
     6  H    0.224399
     7  H    0.239383
     8  C    0.644931
     9  O   -0.497304
    10  N   -0.608803
    11  H    0.353596
    12  C   -0.235724
    13  H    0.232322
    14  H    0.205772
    15  C    0.596715
    16  O   -0.470649
    17  N   -0.568825
    18  H    0.319341
    19  C   -0.252615
    20  H    0.208290
    21  H    0.242181
    22  C    0.632316
    23  O   -0.619852
    24  N   -0.582385
    25  H    0.422646
    26  C   -0.257870
    27  H    0.179020
    28  H    0.193778
    29  C    0.613345
    30  O   -0.500140
    31  N   -0.563974
    32  H    0.346590
    33  C   -0.238184
    34  H    0.201038
    35  H    0.187364
    36  C    0.625472
    37  O   -0.541914
    38  N   -0.570246
    39  H    0.352302
    40  C   -0.246467
    41  H    0.198245
    42  H    0.204496
    43  C    0.593130
    44  O   -0.486489
    45  N   -0.626176
    46  H    0.369616
    47  C   -0.226825
    48  H    0.190482
    49  H    0.214541
    50  C    0.594831
    51  O   -0.568072
    52  N   -0.578151
    53  H    0.375364
    54  C   -0.183776
    55  H    0.210108
    56  H    0.216827
    57  C    0.570540
    58  O   -0.449742
    59  O   -0.553655
    60  H    0.430262
 Sum of Mulliken charges =   1.00000

 Dipole moment (field-independent basis, Debye):
    X=             -7.6164    Y=              3.3016    Z=              8.7175  Tot=             12.0376
 Quadrupole moment (field-independent basis, Debye-Ang):
   XX=           -144.6934   YY=           -160.0832   ZZ=            -91.5149
   XY=            -10.4744   XZ=            -60.2778   YZ=              8.2017

 Normal termination of Gaussian 16 at Mon Jul 18 21:33:10 2022.
