 Gaussian 16, Revision C.01,
 Gaussian 16:  ES64L-G16RevC.01  3-Jul-2019

 ----------------------------------------------------------------------
 # B3LYP/6-31G* empiricaldispersion=gd3 guess=read geom=check nosymm in
 tegral(ultrafinegrid)
 ----------------------------------------------------------------------

 ------------------------------------------------------
 Candidate Structure: Conf:394 Charge calc in gas phase
 ------------------------------------------------------
 Structure from the checkpoint file:  "conf-394.chk"
 Charge =  1 Multiplicity = 1

                          Input orientation:
 ---------------------------------------------------------------------
 Center     Atomic      Atomic             Coordinates (Angstroms)
 Number     Number       Type             X           Y           Z
 ---------------------------------------------------------------------
      1          7           0       -3.753520    0.193719   -0.057522
      2          1           0       -3.862815   -0.794060   -0.297907
      3          1           0       -3.369518    0.734234   -0.850538
      4          1           0       -3.065251    0.334136    0.742981
      5          6           0       -5.037266    0.863374    0.327418
      6          1           0       -5.321055    0.520707    1.323686
      7          1           0       -5.813191    0.596679   -0.395340
      8          6           0       -4.703496    2.365862    0.267708
      9          8           0       -3.792381    2.724933   -0.472455
     10          7           0       -5.391035    3.194579    1.077876
     11          1           0       -6.138219    2.837835    1.658950
     12          6           0       -4.922057    4.573517    1.253849
     13          1           0       -4.900825    5.095552    0.296158
     14          1           0       -5.614525    5.089052    1.923915
     15          6           0       -3.483135    4.623197    1.816014
     16          8           0       -2.701722    5.486756    1.470733
     17          7           0       -3.193550    3.642620    2.737618
     18          1           0       -3.862533    2.891257    2.835128
     19          6           0       -1.827236    3.242788    2.985256
     20          1           0       -1.632941    3.152636    4.061891
     21          1           0       -1.168385    4.021202    2.590493
     22          6           0       -1.540844    1.885288    2.330716
     23          8           0       -2.485030    1.105596    2.057609
     24          7           0       -0.263438    1.584278    2.128858
     25          1           0        0.493207    2.222697    2.384095
     26          6           0        0.219015    0.304516    1.650207
     27          1           0       -0.219747   -0.514585    2.231707
     28          1           0       -0.048998    0.151501    0.596529
     29          6           0        1.754728    0.329278    1.799958
     30          8           0        2.318082    1.340437    2.216841
     31          7           0        2.380088   -0.800101    1.442735
     32          1           0        1.894956   -1.626151    1.096961
     33          6           0        3.818052   -0.959337    1.506826
     34          1           0        4.180641   -0.816146    2.532106
     35          1           0        4.320993   -0.213336    0.879112
     36          6           0        4.129484   -2.380708    1.011547
     37          8           0        3.225187   -3.126661    0.629829
     38          7           0        5.427538   -2.723313    1.033043
     39          1           0        6.152003   -2.099829    1.377539
     40          6           0        5.894907   -4.030713    0.621810
     41          1           0        5.257942   -4.811888    1.050801
     42          1           0        5.870316   -4.132858   -0.470516
     43          6           0        7.347000   -4.173725    1.072457
     44          8           0        7.979547   -3.204425    1.499764
     45          7           0        7.871696   -5.418309    0.966525
     46          1           0        7.358764   -6.100654    0.421302
     47          6           0        9.314284   -5.643156    1.096132
     48          1           0        9.676301   -5.048124    1.937582
     49          1           0        9.492388   -6.701416    1.288084
     50          6           0        9.988386   -5.259431   -0.228218
     51          8           0       10.239842   -6.087194   -1.090060
     52          7           0       10.192607   -3.909523   -0.383259
     53          1           0        9.728705   -3.311660    0.294754
     54          6           0       10.317672   -3.393071   -1.724768
     55          1           0       10.751681   -2.388476   -1.713850
     56          1           0       10.985036   -4.037345   -2.302658
     57          6           0        8.966517   -3.343214   -2.434648
     58          8           0        7.900186   -3.644528   -1.940322
     59          8           0        9.105112   -2.907355   -3.700698
     60          1           0        8.218257   -2.907620   -4.107711
 ---------------------------------------------------------------------

 SCF Done:  E(RB3LYP) =  -1740.96878536     A.U. after    2 cycles

 Alpha  occ. eigenvalues --  -19.27112 -19.26433 -19.26294 -19.22075 -19.21966
 Alpha  occ. eigenvalues --  -19.21118 -19.20378 -19.20345 -19.17532 -14.59490
 Alpha  occ. eigenvalues --  -14.51402 -14.49025 -14.46613 -14.45798 -14.44468
 Alpha  occ. eigenvalues --  -14.44275 -14.41491 -10.44596 -10.42500 -10.41114
 Alpha  occ. eigenvalues --  -10.39517 -10.39478 -10.38962 -10.37621 -10.37394
 Alpha  occ. eigenvalues --  -10.35088 -10.34968 -10.34588 -10.34315 -10.32036
 Alpha  occ. eigenvalues --  -10.30685 -10.29518 -10.29511  -1.19811  -1.17420
 Alpha  occ. eigenvalues --   -1.17232  -1.14244  -1.14160  -1.13647  -1.12553
 Alpha  occ. eigenvalues --   -1.11840  -1.09503  -1.08402  -1.07357  -1.05367
 Alpha  occ. eigenvalues --   -1.03059  -1.02315  -1.00769  -1.00423  -0.98217
 Alpha  occ. eigenvalues --   -0.90756  -0.88141  -0.85526  -0.84348  -0.82635
 Alpha  occ. eigenvalues --   -0.81093  -0.79380  -0.76617  -0.74979  -0.74159
 Alpha  occ. eigenvalues --   -0.73536  -0.71410  -0.69419  -0.69041  -0.68810
 Alpha  occ. eigenvalues --   -0.67353  -0.67055  -0.66418  -0.66100  -0.63885
 Alpha  occ. eigenvalues --   -0.63663  -0.63113  -0.61457  -0.61219  -0.60004
 Alpha  occ. eigenvalues --   -0.59831  -0.59185  -0.58580  -0.58131  -0.57140
 Alpha  occ. eigenvalues --   -0.56908  -0.56461  -0.56322  -0.55667  -0.55330
 Alpha  occ. eigenvalues --   -0.55067  -0.54922  -0.54272  -0.54064  -0.53583
 Alpha  occ. eigenvalues --   -0.53354  -0.52488  -0.52330  -0.51549  -0.51412
 Alpha  occ. eigenvalues --   -0.50399  -0.49788  -0.49305  -0.48662  -0.47834
 Alpha  occ. eigenvalues --   -0.47318  -0.47132  -0.46945  -0.46730  -0.46424
 Alpha  occ. eigenvalues --   -0.45604  -0.44452  -0.43690  -0.43061  -0.41721
 Alpha  occ. eigenvalues --   -0.41217  -0.40748  -0.39417  -0.38741  -0.36744
 Alpha  occ. eigenvalues --   -0.36331  -0.35873  -0.35472  -0.35342  -0.35114
 Alpha  occ. eigenvalues --   -0.34775  -0.33972  -0.33464  -0.32043  -0.30226
 Alpha virt. eigenvalues --   -0.13729  -0.11145  -0.09834  -0.08651  -0.07632
 Alpha virt. eigenvalues --   -0.06639  -0.06573  -0.05594  -0.05528  -0.03942
 Alpha virt. eigenvalues --   -0.03701  -0.02510  -0.01649  -0.00961  -0.00302

 Mulliken charges:
               1
     1  N   -0.750980
     2  H    0.406773
     3  H    0.417906
     4  H    0.446361
     5  C   -0.279201
     6  H    0.225369
     7  H    0.242057
     8  C    0.647550
     9  O   -0.498272
    10  N   -0.611219
    11  H    0.355246
    12  C   -0.234501
    13  H    0.234035
    14  H    0.208157
    15  C    0.597124
    16  O   -0.466557
    17  N   -0.564114
    18  H    0.321804
    19  C   -0.244871
    20  H    0.209862
    21  H    0.228687
    22  C    0.641253
    23  O   -0.616375
    24  N   -0.583526
    25  H    0.384988
    26  C   -0.212709
    27  H    0.198339
    28  H    0.178435
    29  C    0.619203
    30  O   -0.519522
    31  N   -0.622338
    32  H    0.359034
    33  C   -0.198205
    34  H    0.201730
    35  H    0.201818
    36  C    0.610750
    37  O   -0.537605
    38  N   -0.620999
    39  H    0.362164
    40  C   -0.200755
    41  H    0.193662
    42  H    0.223025
    43  C    0.625144
    44  O   -0.547384
    45  N   -0.582439
    46  H    0.350800
    47  C   -0.243482
    48  H    0.199334
    49  H    0.192910
    50  C    0.586398
    51  O   -0.494701
    52  N   -0.568828
    53  H    0.362784
    54  C   -0.240696
    55  H    0.197507
    56  H    0.230093
    57  C    0.588967
    58  O   -0.477978
    59  O   -0.549329
    60  H    0.417318
 Sum of Mulliken charges =   1.00000

 Dipole moment (field-independent basis, Debye):
    X=            -11.6253    Y=             -1.3003    Z=              4.0172  Tot=             12.3684
 Quadrupole moment (field-independent basis, Debye-Ang):
   XX=            -48.0729   YY=           -186.4864   ZZ=           -167.6464
   XY=            -31.7026   XZ=            -14.9340   YZ=              3.5629

 Normal termination of Gaussian 16 at Mon Jul 18 21:40:04 2022.
