 Gaussian 16, Revision C.01,
 Gaussian 16:  ES64L-G16RevC.01  3-Jul-2019

 ----------------------------------------------------------------------
 # B3LYP/6-31G* empiricaldispersion=gd3 guess=read geom=check nosymm in
 tegral(ultrafinegrid)
 ----------------------------------------------------------------------

 ------------------------------------------------------
 Candidate Structure: Conf:607 Charge calc in gas phase
 ------------------------------------------------------
 Structure from the checkpoint file:  "conf-607.chk"
 Charge =  1 Multiplicity = 1

                          Input orientation:
 ---------------------------------------------------------------------
 Center     Atomic      Atomic             Coordinates (Angstroms)
 Number     Number       Type             X           Y           Z
 ---------------------------------------------------------------------
      1          7           0       -2.382278    1.228777   -2.689556
      2          1           0       -1.681788    0.755114   -2.065923
      3          1           0       -3.023573    1.782389   -2.110260
      4          1           0       -2.845267    0.450062   -3.188621
      5          6           0       -1.728938    2.114339   -3.699881
      6          1           0       -2.497584    2.435109   -4.408343
      7          1           0       -0.985453    1.529265   -4.230809
      8          6           0       -1.164336    3.341938   -2.983735
      9          8           0       -1.788250    3.839455   -2.054436
     10          7           0       -0.011197    3.821896   -3.516003
     11          1           0        0.523928    3.199270   -4.114940
     12          6           0        0.658437    4.969680   -2.939186
     13          1           0        1.253518    5.468474   -3.710536
     14          1           0       -0.106966    5.670659   -2.588560
     15          6           0        1.512729    4.572535   -1.726007
     16          8           0        1.246915    3.581166   -1.061250
     17          7           0        2.583790    5.363894   -1.418030
     18          1           0        2.697181    6.254752   -1.885123
     19          6           0        3.243117    5.168551   -0.122645
     20          1           0        2.558040    5.361034    0.707570
     21          1           0        4.085676    5.863499   -0.061062
     22          6           0        3.744281    3.728638    0.065648
     23          8           0        3.546169    3.107242    1.103356
     24          7           0        4.451696    3.203930   -0.979407
     25          1           0        4.425710    3.689353   -1.867204
     26          6           0        4.799354    1.786123   -0.991691
     27          1           0        5.634408    1.615896   -1.671446
     28          1           0        5.081856    1.495423    0.022876
     29          6           0        3.590992    0.995142   -1.496571
     30          8           0        3.554957    0.589784   -2.662341
     31          7           0        2.552830    0.872945   -0.622068
     32          1           0        2.677967    1.374997    0.256597
     33          6           0        1.180905    0.803982   -1.109216
     34          1           0        1.135672    1.207116   -2.126577
     35          1           0        0.567226    1.462434   -0.495386
     36          6           0        0.482861   -0.539393   -1.134764
     37          8           0       -0.750083   -0.547520   -1.336069
     38          7           0        1.198350   -1.656743   -0.970736
     39          1           0        2.196608   -1.560850   -0.835968
     40          6           0        0.603923   -2.995423   -1.002148
     41          1           0        1.391808   -3.717816   -0.788857
     42          1           0       -0.165296   -3.067150   -0.226328
     43          6           0        0.031065   -3.323692   -2.394200
     44          8           0        0.737620   -3.752837   -3.298719
     45          7           0       -1.308619   -3.090118   -2.520009
     46          1           0       -1.699644   -2.446686   -1.841567
     47          6           0       -1.933275   -3.094026   -3.838670
     48          1           0       -1.608906   -3.987564   -4.376253
     49          1           0       -3.017577   -3.116852   -3.720901
     50          6           0       -1.546624   -1.811401   -4.582866
     51          8           0       -2.222851   -0.775860   -4.498994
     52          7           0       -0.389813   -1.885394   -5.279447
     53          1           0        0.206398   -2.687764   -5.086998
     54          6           0        0.225451   -0.699202   -5.849365
     55          1           0        0.856293   -0.998455   -6.692945
     56          1           0       -0.551002   -0.028214   -6.215067
     57          6           0        1.100868    0.048410   -4.843427
     58          8           0        1.088556    1.266997   -4.714751
     59          8           0        1.856633   -0.772209   -4.138522
     60          1           0        2.470834   -0.245677   -3.539721
 ---------------------------------------------------------------------

 SCF Done:  E(RB3LYP) =  -1741.03223862     A.U. after    2 cycles

 Alpha  occ. eigenvalues --  -19.28988 -19.25820 -19.25571 -19.25435 -19.24134
 Alpha  occ. eigenvalues --  -19.23897 -19.23633 -19.22897 -19.22545 -14.55465
 Alpha  occ. eigenvalues --  -14.49855 -14.48809 -14.48236 -14.48010 -14.47582
 Alpha  occ. eigenvalues --  -14.47553 -14.47099 -10.43425 -10.42271 -10.41688
 Alpha  occ. eigenvalues --  -10.41117 -10.40982 -10.40778 -10.40073 -10.39987
 Alpha  occ. eigenvalues --  -10.36261 -10.35000 -10.34826 -10.34544 -10.34228
 Alpha  occ. eigenvalues --  -10.34223 -10.34131 -10.33710  -1.21133  -1.17302
 Alpha  occ. eigenvalues --   -1.16801  -1.16529  -1.15651  -1.15539  -1.14477
 Alpha  occ. eigenvalues --   -1.14404  -1.12178  -1.10255  -1.05951  -1.04675
 Alpha  occ. eigenvalues --   -1.04493  -1.04355  -1.04125  -1.03247  -1.02912
 Alpha  occ. eigenvalues --   -0.89140  -0.88360  -0.87107  -0.85973  -0.84396
 Alpha  occ. eigenvalues --   -0.82570  -0.80958  -0.80089  -0.73609  -0.72391
 Alpha  occ. eigenvalues --   -0.72113  -0.71373  -0.70551  -0.70289  -0.70071
 Alpha  occ. eigenvalues --   -0.69359  -0.68529  -0.68487  -0.65802  -0.65454
 Alpha  occ. eigenvalues --   -0.65141  -0.64289  -0.63327  -0.62911  -0.62205
 Alpha  occ. eigenvalues --   -0.61113  -0.60506  -0.60127  -0.59937  -0.59610
 Alpha  occ. eigenvalues --   -0.58845  -0.58400  -0.57847  -0.57725  -0.56835
 Alpha  occ. eigenvalues --   -0.56446  -0.56255  -0.55848  -0.54976  -0.54189
 Alpha  occ. eigenvalues --   -0.53911  -0.53090  -0.52871  -0.52566  -0.52098
 Alpha  occ. eigenvalues --   -0.52015  -0.51680  -0.51314  -0.50862  -0.50749
 Alpha  occ. eigenvalues --   -0.49964  -0.49806  -0.49631  -0.49283  -0.48837
 Alpha  occ. eigenvalues --   -0.48294  -0.47910  -0.47779  -0.47304  -0.42606
 Alpha  occ. eigenvalues --   -0.41635  -0.40879  -0.40422  -0.40181  -0.39657
 Alpha  occ. eigenvalues --   -0.39463  -0.38672  -0.38191  -0.37896  -0.36710
 Alpha  occ. eigenvalues --   -0.36346  -0.36338  -0.36253  -0.35889  -0.35111
 Alpha virt. eigenvalues --   -0.11872  -0.11297  -0.11038  -0.10695  -0.10202
 Alpha virt. eigenvalues --   -0.09662  -0.09254  -0.08802  -0.04849  -0.03429
 Alpha virt. eigenvalues --   -0.02246  -0.01258  -0.00885  -0.00158   0.00548

 Mulliken charges:
               1
     1  N   -0.761118
     2  H    0.431732
     3  H    0.402616
     4  H    0.424932
     5  C   -0.300771
     6  H    0.229978
     7  H    0.238292
     8  C    0.626320
     9  O   -0.508610
    10  N   -0.598649
    11  H    0.389838
    12  C   -0.258583
    13  H    0.183947
    14  H    0.231405
    15  C    0.619666
    16  O   -0.498439
    17  N   -0.615762
    18  H    0.351192
    19  C   -0.222837
    20  H    0.215674
    21  H    0.197928
    22  C    0.620816
    23  O   -0.517615
    24  N   -0.566021
    25  H    0.345128
    26  C   -0.234597
    27  H    0.203351
    28  H    0.215617
    29  C    0.587132
    30  O   -0.528131
    31  N   -0.595111
    32  H    0.390351
    33  C   -0.262299
    34  H    0.202551
    35  H    0.233194
    36  C    0.644650
    37  O   -0.587597
    38  N   -0.566772
    39  H    0.369671
    40  C   -0.235821
    41  H    0.210775
    42  H    0.197913
    43  C    0.598526
    44  O   -0.500110
    45  N   -0.556794
    46  H    0.355622
    47  C   -0.239811
    48  H    0.209697
    49  H    0.195710
    50  C    0.602525
    51  O   -0.569418
    52  N   -0.559484
    53  H    0.388916
    54  C   -0.231156
    55  H    0.214019
    56  H    0.206398
    57  C    0.601502
    58  O   -0.512053
    59  O   -0.581209
    60  H    0.471184
 Sum of Mulliken charges =   1.00000

 Dipole moment (field-independent basis, Debye):
    X=              3.1520    Y=              7.4275    Z=            -12.9014  Tot=             15.2167
 Quadrupole moment (field-independent basis, Debye-Ang):
   XX=           -142.9494   YY=           -116.3656   ZZ=           -141.8738
   XY=             33.9395   XZ=              2.6344   YZ=            -25.6816

 Normal termination of Gaussian 16 at Mon Jul 18 21:54:25 2022.
