 Gaussian 16, Revision C.01,
 Gaussian 16:  ES64L-G16RevC.01  3-Jul-2019

 ----------------------------------------------------------------------
 # B3LYP/6-31G* empiricaldispersion=gd3 guess=read geom=check nosymm in
 tegral(ultrafinegrid)
 ----------------------------------------------------------------------

 ------------------------------------------------------
 Candidate Structure: Conf:474 Charge calc in gas phase
 ------------------------------------------------------
 Structure from the checkpoint file:  "conf-474.chk"
 Charge =  1 Multiplicity = 1

                          Input orientation:
 ---------------------------------------------------------------------
 Center     Atomic      Atomic             Coordinates (Angstroms)
 Number     Number       Type             X           Y           Z
 ---------------------------------------------------------------------
      1          7           0       -4.534452    0.766696   -1.796367
      2          1           0       -3.757053    0.121601   -2.179034
      3          1           0       -5.287686    0.129580   -1.477934
      4          1           0       -4.875022    1.394686   -2.527003
      5          6           0       -4.063506    1.475154   -0.568229
      6          1           0       -4.718254    2.327909   -0.369561
      7          1           0       -3.043063    1.832016   -0.717254
      8          6           0       -4.192158    0.437262    0.566566
      9          8           0       -5.022571   -0.458093    0.432296
     10          7           0       -3.394537    0.634424    1.632140
     11          1           0       -2.598638    1.268439    1.539358
     12          6           0       -3.235730   -0.403226    2.659979
     13          1           0       -3.401186    0.023001    3.654903
     14          1           0       -3.964763   -1.190690    2.472210
     15          6           0       -1.812674   -0.930191    2.442250
     16          8           0       -1.566445   -1.710875    1.534677
     17          7           0       -0.849484   -0.331184    3.211846
     18          1           0       -1.167072    0.381783    3.856732
     19          6           0        0.466661   -0.115319    2.649104
     20          1           0        0.696994   -0.948753    1.974728
     21          1           0        1.225280   -0.088709    3.437202
     22          6           0        0.475565    1.184495    1.819141
     23          8           0       -0.569696    1.690304    1.388354
     24          7           0        1.699700    1.704298    1.592162
     25          1           0        2.521839    1.165128    1.845805
     26          6           0        1.948623    2.773580    0.640447
     27          1           0        0.997965    3.046484    0.177019
     28          1           0        2.346790    3.659691    1.150940
     29          6           0        2.984256    2.274193   -0.372902
     30          8           0        3.838153    1.457947   -0.025928
     31          7           0        2.903111    2.780140   -1.629168
     32          1           0        2.076144    3.301115   -1.889337
     33          6           0        3.687463    2.194729   -2.723705
     34          1           0        4.718931    2.070900   -2.387565
     35          1           0        3.656768    2.866895   -3.581119
     36          6           0        3.010642    0.867894   -3.095175
     37          8           0        2.084840    0.832544   -3.907607
     38          7           0        3.415803   -0.196610   -2.355802
     39          1           0        4.008652    0.009432   -1.557343
     40          6           0        2.625106   -1.421117   -2.288748
     41          1           0        2.310301   -1.704933   -3.296796
     42          1           0        3.234827   -2.219328   -1.865716
     43          6           0        1.384777   -1.259776   -1.399671
     44          8           0        1.232980   -1.887934   -0.351053
     45          7           0        0.471838   -0.356180   -1.857823
     46          1           0        0.613960    0.007986   -2.798380
     47          6           0       -0.830668   -0.211935   -1.226651
     48          1           0       -0.719867   -0.275661   -0.145921
     49          1           0       -1.237307    0.765712   -1.490607
     50          6           0       -1.785882   -1.302171   -1.715529
     51          8           0       -2.753592   -1.050661   -2.467871
     52          7           0       -1.460941   -2.540557   -1.333994
     53          1           0       -0.655453   -2.627477   -0.715863
     54          6           0       -1.919567   -3.716985   -2.033040
     55          1           0       -2.020687   -4.559548   -1.343198
     56          1           0       -2.900368   -3.524534   -2.474477
     57          6           0       -0.930509   -4.078096   -3.142628
     58          8           0        0.055806   -3.434168   -3.423614
     59          8           0       -1.309138   -5.207115   -3.763342
     60          1           0       -0.653878   -5.397350   -4.461846
 ---------------------------------------------------------------------

 SCF Done:  E(RB3LYP) =  -1741.00011639     A.U. after    1 cycles

 Alpha  occ. eigenvalues --  -19.28919 -19.25376 -19.24527 -19.24279 -19.23629
 Alpha  occ. eigenvalues --  -19.23584 -19.22705 -19.22082 -19.21694 -14.56863
 Alpha  occ. eigenvalues --  -14.49058 -14.48340 -14.48074 -14.47250 -14.46697
 Alpha  occ. eigenvalues --  -14.46130 -14.45799 -10.42784 -10.41688 -10.41033
 Alpha  occ. eigenvalues --  -10.40792 -10.40665 -10.39999 -10.39212 -10.38931
 Alpha  occ. eigenvalues --  -10.38763 -10.34592 -10.34133 -10.33766 -10.33627
 Alpha  occ. eigenvalues --  -10.33298 -10.33273 -10.31891  -1.19946  -1.17774
 Alpha  occ. eigenvalues --   -1.16105  -1.15645  -1.15441  -1.14530  -1.13912
 Alpha  occ. eigenvalues --   -1.13122  -1.11464  -1.11125  -1.05470  -1.04313
 Alpha  occ. eigenvalues --   -1.04035  -1.03904  -1.03508  -1.02568  -1.01664
 Alpha  occ. eigenvalues --   -0.89322  -0.87905  -0.87079  -0.85297  -0.83869
 Alpha  occ. eigenvalues --   -0.82352  -0.80248  -0.78801  -0.72977  -0.72440
 Alpha  occ. eigenvalues --   -0.71781  -0.71146  -0.70916  -0.69989  -0.69683
 Alpha  occ. eigenvalues --   -0.68787  -0.68019  -0.67509  -0.66312  -0.64748
 Alpha  occ. eigenvalues --   -0.64025  -0.63234  -0.62335  -0.61703  -0.60989
 Alpha  occ. eigenvalues --   -0.60853  -0.60226  -0.60007  -0.59164  -0.59071
 Alpha  occ. eigenvalues --   -0.58194  -0.57793  -0.57356  -0.57075  -0.56468
 Alpha  occ. eigenvalues --   -0.56208  -0.55785  -0.55484  -0.54271  -0.54008
 Alpha  occ. eigenvalues --   -0.53111  -0.52871  -0.52338  -0.52111  -0.51554
 Alpha  occ. eigenvalues --   -0.51354  -0.51195  -0.51060  -0.50606  -0.49834
 Alpha  occ. eigenvalues --   -0.49488  -0.49004  -0.48605  -0.48426  -0.48043
 Alpha  occ. eigenvalues --   -0.47772  -0.47449  -0.46947  -0.46720  -0.41197
 Alpha  occ. eigenvalues --   -0.40231  -0.39855  -0.39579  -0.39052  -0.38973
 Alpha  occ. eigenvalues --   -0.38469  -0.37978  -0.37775  -0.37010  -0.36770
 Alpha  occ. eigenvalues --   -0.36523  -0.35614  -0.35346  -0.34680  -0.33819
 Alpha virt. eigenvalues --   -0.12546  -0.11045  -0.10410  -0.09719  -0.08817
 Alpha virt. eigenvalues --   -0.08572  -0.08173  -0.07412  -0.06800  -0.04293
 Alpha virt. eigenvalues --   -0.02854  -0.02731  -0.01809  -0.01040  -0.00729

 Mulliken charges:
               1
     1  N   -0.764880
     2  H    0.453052
     3  H    0.417356
     4  H    0.400810
     5  C   -0.287173
     6  H    0.238225
     7  H    0.218634
     8  C    0.631429
     9  O   -0.502919
    10  N   -0.606364
    11  H    0.384501
    12  C   -0.233897
    13  H    0.181793
    14  H    0.233611
    15  C    0.574593
    16  O   -0.489691
    17  N   -0.541486
    18  H    0.338060
    19  C   -0.284156
    20  H    0.263261
    21  H    0.191966
    22  C    0.618471
    23  O   -0.561085
    24  N   -0.576748
    25  H    0.366463
    26  C   -0.227965
    27  H    0.187526
    28  H    0.212827
    29  C    0.618736
    30  O   -0.527923
    31  N   -0.578877
    32  H    0.346083
    33  C   -0.237302
    34  H    0.207455
    35  H    0.202111
    36  C    0.590018
    37  O   -0.529486
    38  N   -0.565222
    39  H    0.374368
    40  C   -0.246665
    41  H    0.225909
    42  H    0.198272
    43  C    0.600632
    44  O   -0.529712
    45  N   -0.591865
    46  H    0.381195
    47  C   -0.259479
    48  H    0.229254
    49  H    0.142548
    50  C    0.632105
    51  O   -0.594874
    52  N   -0.532146
    53  H    0.401314
    54  C   -0.247559
    55  H    0.217578
    56  H    0.225532
    57  C    0.589189
    58  O   -0.458283
    59  O   -0.547667
    60  H    0.428549
 Sum of Mulliken charges =   1.00000

 Dipole moment (field-independent basis, Debye):
    X=             -6.9685    Y=              5.6732    Z=             -2.7584  Tot=              9.3997
 Quadrupole moment (field-independent basis, Debye-Ang):
   XX=           -126.2683   YY=           -147.9470   ZZ=           -152.6029
   XY=             -8.2818   XZ=             10.2554   YZ=              7.3378

 Normal termination of Gaussian 16 at Mon Jul 18 21:40:04 2022.
