 Gaussian 16, Revision C.01,
 Gaussian 16:  ES64L-G16RevC.01  3-Jul-2019

 ----------------------------------------------------------------------
 # B3LYP/6-31G* empiricaldispersion=gd3 guess=read geom=check nosymm in
 tegral(ultrafinegrid)
 ----------------------------------------------------------------------

 ------------------------------------------------------
 Candidate Structure: Conf:137 Charge calc in gas phase
 ------------------------------------------------------
 Structure from the checkpoint file:  "conf-137.chk"
 Charge =  1 Multiplicity = 1

                          Input orientation:
 ---------------------------------------------------------------------
 Center     Atomic      Atomic             Coordinates (Angstroms)
 Number     Number       Type             X           Y           Z
 ---------------------------------------------------------------------
      1          7           0       -0.667910    1.605235   -8.192613
      2          1           0        0.155610    1.336325   -7.576823
      3          1           0       -1.010255    0.816517   -8.745782
      4          1           0       -0.331359    2.372459   -8.794620
      5          6           0       -1.696159    2.196067   -7.276701
      6          1           0       -1.908563    1.474056   -6.486930
      7          1           0       -2.603499    2.413864   -7.846016
      8          6           0       -1.026174    3.484047   -6.759475
      9          8           0       -0.192627    4.025825   -7.490288
     10          7           0       -1.388897    3.890626   -5.540152
     11          1           0       -2.017340    3.329472   -4.972109
     12          6           0       -0.622724    4.879129   -4.782120
     13          1           0        0.295161    5.106347   -5.325677
     14          1           0       -1.204339    5.798074   -4.651194
     15          6           0       -0.380220    4.243010   -3.408272
     16          8           0       -1.311667    3.726493   -2.794064
     17          7           0        0.894690    4.251620   -2.961437
     18          1           0        1.639072    4.582435   -3.574773
     19          6           0        1.213436    3.621646   -1.702958
     20          1           0        0.712961    4.139519   -0.876425
     21          1           0        2.294856    3.675721   -1.548186
     22          6           0        0.860333    2.133277   -1.660343
     23          8           0        0.817029    1.413850   -2.679743
     24          7           0        0.670756    1.618966   -0.437078
     25          1           0        0.786681    2.225991    0.364136
     26          6           0        0.667918    0.174204   -0.185718
     27          1           0        0.263776   -0.006698    0.809807
     28          1           0        0.033364   -0.307514   -0.933373
     29          6           0        2.119545   -0.337045   -0.230971
     30          8           0        2.787440   -0.481811    0.778487
     31          7           0        2.585873   -0.552181   -1.505385
     32          1           0        2.000649   -0.190568   -2.250760
     33          6           0        4.004761   -0.583084   -1.750421
     34          1           0        4.230811   -1.246867   -2.593238
     35          1           0        4.488831   -0.993752   -0.858193
     36          6           0        4.583312    0.819703   -2.009166
     37          8           0        3.972627    1.859322   -1.757716
     38          7           0        5.846065    0.824087   -2.507088
     39          1           0        6.301197   -0.047871   -2.737548
     40          6           0        6.593799    2.062495   -2.648664
     41          1           0        6.518206    2.636702   -1.720056
     42          1           0        7.642722    1.814752   -2.822716
     43          6           0        6.126452    2.889386   -3.853431
     44          8           0        6.411108    2.564279   -5.006741
     45          7           0        5.428265    4.013013   -3.544948
     46          1           0        4.988286    4.046352   -2.633990
     47          6           0        5.007009    4.960768   -4.569808
     48          1           0        4.772625    5.915077   -4.096612
     49          1           0        5.841095    5.098517   -5.264417
     50          6           0        3.758747    4.489429   -5.323565
     51          8           0        2.646639    4.984811   -5.113738
     52          7           0        3.969795    3.483187   -6.204584
     53          1           0        4.880825    3.023906   -6.153582
     54          6           0        2.848631    2.785904   -6.788757
     55          1           0        2.154034    3.503454   -7.240460
     56          1           0        3.204751    2.116546   -7.576873
     57          6           0        2.014122    1.981172   -5.794832
     58          8           0        1.009623    1.351260   -6.149617
     59          8           0        2.431435    2.049135   -4.561929
     60          1           0        1.730461    1.737878   -3.886371
 ---------------------------------------------------------------------

 SCF Done:  E(RB3LYP) =  -1741.01697113     A.U. after    2 cycles

 Alpha  occ. eigenvalues --  -19.29313 -19.26548 -19.25235 -19.24486 -19.22861
 Alpha  occ. eigenvalues --  -19.22557 -19.22411 -19.21603 -19.20243 -14.58422
 Alpha  occ. eigenvalues --  -14.49090 -14.48110 -14.47036 -14.47007 -14.46333
 Alpha  occ. eigenvalues --  -14.45970 -14.44357 -10.44332 -10.42852 -10.41075
 Alpha  occ. eigenvalues --  -10.39613 -10.39479 -10.39375 -10.39300 -10.38833
 Alpha  occ. eigenvalues --  -10.37460 -10.34355 -10.33738 -10.33305 -10.33171
 Alpha  occ. eigenvalues --  -10.33108 -10.32565 -10.32356  -1.21802  -1.17809
 Alpha  occ. eigenvalues --   -1.16047  -1.14797  -1.14285  -1.13658  -1.13622
 Alpha  occ. eigenvalues --   -1.13180  -1.12213  -1.12046  -1.05282  -1.04055
 Alpha  occ. eigenvalues --   -1.03420  -1.03023  -1.02614  -1.02409  -1.01088
 Alpha  occ. eigenvalues --   -0.89280  -0.87563  -0.86853  -0.85366  -0.83615
 Alpha  occ. eigenvalues --   -0.82027  -0.80148  -0.78156  -0.74422  -0.73643
 Alpha  occ. eigenvalues --   -0.72240  -0.71456  -0.70747  -0.70466  -0.69317
 Alpha  occ. eigenvalues --   -0.68570  -0.68062  -0.66932  -0.65831  -0.64574
 Alpha  occ. eigenvalues --   -0.64283  -0.63746  -0.62634  -0.62423  -0.61105
 Alpha  occ. eigenvalues --   -0.60473  -0.60120  -0.59537  -0.59072  -0.58873
 Alpha  occ. eigenvalues --   -0.58400  -0.58206  -0.57705  -0.57055  -0.56849
 Alpha  occ. eigenvalues --   -0.56016  -0.55431  -0.54646  -0.54543  -0.53663
 Alpha  occ. eigenvalues --   -0.53189  -0.52960  -0.52392  -0.51839  -0.51430
 Alpha  occ. eigenvalues --   -0.50878  -0.50566  -0.50306  -0.49614  -0.49552
 Alpha  occ. eigenvalues --   -0.49189  -0.48869  -0.48256  -0.48065  -0.47844
 Alpha  occ. eigenvalues --   -0.47620  -0.46335  -0.46023  -0.45796  -0.43265
 Alpha  occ. eigenvalues --   -0.41528  -0.39853  -0.39365  -0.39111  -0.38615
 Alpha  occ. eigenvalues --   -0.38517  -0.38110  -0.37023  -0.36438  -0.35739
 Alpha  occ. eigenvalues --   -0.35299  -0.35044  -0.34638  -0.34357  -0.33086
 Alpha virt. eigenvalues --   -0.12041  -0.10843  -0.10064  -0.09882  -0.08781
 Alpha virt. eigenvalues --   -0.08562  -0.07902  -0.07651  -0.06548  -0.03664
 Alpha virt. eigenvalues --   -0.02883  -0.02402  -0.01417  -0.01214  -0.00805

 Mulliken charges:
               1
     1  N   -0.747135
     2  H    0.440009
     3  H    0.405812
     4  H    0.412951
     5  C   -0.279142
     6  H    0.232006
     7  H    0.239089
     8  C    0.644873
     9  O   -0.526580
    10  N   -0.583989
    11  H    0.364319
    12  C   -0.248162
    13  H    0.237645
    14  H    0.208243
    15  C    0.593800
    16  O   -0.524599
    17  N   -0.617744
    18  H    0.398460
    19  C   -0.252403
    20  H    0.192658
    21  H    0.218244
    22  C    0.701244
    23  O   -0.603699
    24  N   -0.564732
    25  H    0.360828
    26  C   -0.244943
    27  H    0.204071
    28  H    0.201299
    29  C    0.588217
    30  O   -0.483178
    31  N   -0.570780
    32  H    0.356194
    33  C   -0.257954
    34  H    0.175104
    35  H    0.230790
    36  C    0.622521
    37  O   -0.546997
    38  N   -0.577461
    39  H    0.352121
    40  C   -0.229893
    41  H    0.188457
    42  H    0.201971
    43  C    0.618542
    44  O   -0.524300
    45  N   -0.568851
    46  H    0.356778
    47  C   -0.248098
    48  H    0.195720
    49  H    0.209061
    50  C    0.617348
    51  O   -0.540684
    52  N   -0.568070
    53  H    0.387903
    54  C   -0.273676
    55  H    0.240650
    56  H    0.193412
    57  C    0.638186
    58  O   -0.549837
    59  O   -0.575667
    60  H    0.480050
 Sum of Mulliken charges =   1.00000

 Dipole moment (field-independent basis, Debye):
    X=              6.1701    Y=              9.2695    Z=            -27.2616  Tot=             29.4480
 Quadrupole moment (field-independent basis, Debye-Ang):
   XX=           -123.4496   YY=           -153.8660   ZZ=             12.1841
   XY=             17.1621   XZ=             -2.1941   YZ=            -35.4631

 Normal termination of Gaussian 16 at Mon Jul 18 21:33:15 2022.
