 Gaussian 16, Revision C.01,
 Gaussian 16:  ES64L-G16RevC.01  3-Jul-2019

 ----------------------------------------------------------------------
 # B3LYP/6-31G* empiricaldispersion=gd3 guess=read geom=check nosymm in
 tegral(ultrafinegrid)
 ----------------------------------------------------------------------

 ------------------------------------------------------
 Candidate Structure: Conf:197 Charge calc in gas phase
 ------------------------------------------------------
 Structure from the checkpoint file:  "conf-197.chk"
 Charge =  1 Multiplicity = 1

                          Input orientation:
 ---------------------------------------------------------------------
 Center     Atomic      Atomic             Coordinates (Angstroms)
 Number     Number       Type             X           Y           Z
 ---------------------------------------------------------------------
      1          7           0       -1.629410    9.398170   -2.440934
      2          1           0       -1.390513   10.097845   -1.731893
      3          1           0       -1.427331    8.410280   -2.104635
      4          1           0       -1.043887    9.540596   -3.273725
      5          6           0       -3.083336    9.432882   -2.867204
      6          1           0       -3.264900   10.344484   -3.437262
      7          1           0       -3.699485    9.412445   -1.966501
      8          6           0       -3.152781    8.176609   -3.750129
      9          8           0       -2.463066    8.152641   -4.756601
     10          7           0       -3.804576    7.101088   -3.223370
     11          1           0       -4.243616    7.231072   -2.320193
     12          6           0       -3.182372    5.804157   -3.423469
     13          1           0       -3.882392    5.008578   -3.155728
     14          1           0       -2.928283    5.694139   -4.480715
     15          6           0       -1.889286    5.717901   -2.572642
     16          8           0       -1.397862    6.717960   -2.010455
     17          7           0       -1.344438    4.509399   -2.488489
     18          1           0       -1.762355    3.682155   -2.918941
     19          6           0       -0.123814    4.212721   -1.762130
     20          1           0       -0.210809    4.531459   -0.717017
     21          1           0        0.728675    4.745317   -2.200360
     22          6           0        0.078998    2.689690   -1.858566
     23          8           0       -0.715387    1.995222   -2.492564
     24          7           0        1.155151    2.210100   -1.215668
     25          1           0        1.777934    2.796175   -0.665642
     26          6           0        1.464169    0.795870   -1.171695
     27          1           0        0.566356    0.220328   -0.916455
     28          1           0        1.809357    0.437183   -2.150295
     29          6           0        2.564415    0.595228   -0.123806
     30          8           0        3.111523    1.567492    0.406950
     31          7           0        2.891530   -0.683933    0.145936
     32          1           0        2.327571   -1.430284   -0.238985
     33          6           0        3.925097   -1.040110    1.121020
     34          1           0        4.759589   -0.342667    1.001501
     35          1           0        4.267621   -2.052870    0.909328
     36          6           0        3.394853   -1.020418    2.568396
     37          8           0        3.196263   -2.052124    3.191476
     38          7           0        3.168574    0.236105    3.054537
     39          1           0        3.326876    1.020749    2.430875
     40          6           0        2.632219    0.480105    4.381399
     41          1           0        1.755597    1.133446    4.335632
     42          1           0        2.315069   -0.483781    4.790076
     43          6           0        3.617097    1.116790    5.372783
     44          8           0        3.212693    1.693021    6.376192
     45          7           0        4.926168    0.961639    5.068929
     46          1           0        5.226264    0.504712    4.215989
     47          6           0        5.975908    1.463152    5.918213
     48          1           0        5.831092    2.532320    6.123698
     49          1           0        5.973530    0.956721    6.893490
     50          6           0        7.312841    1.234475    5.207309
     51          8           0        7.378086    0.741709    4.082354
     52          7           0        8.407668    1.613933    5.905399
     53          1           0        8.342309    1.992335    6.843494
     54          6           0        9.739028    1.431216    5.372885
     55          1           0        9.927759    0.380547    5.119355
     56          1           0        9.883557    2.000901    4.446364
     57          6           0       10.750694    1.888568    6.403426
     58          8           0       10.469841    2.333987    7.495056
     59          8           0       12.006904    1.736640    5.948394
     60          1           0       12.608385    2.041949    6.653990
 ---------------------------------------------------------------------

 SCF Done:  E(RB3LYP) =  -1740.94850737     A.U. after    1 cycles

 Alpha  occ. eigenvalues --  -19.27334 -19.26907 -19.26186 -19.22738 -19.22307
 Alpha  occ. eigenvalues --  -19.20812 -19.17732 -19.17685 -19.15263 -14.61187
 Alpha  occ. eigenvalues --  -14.51198 -14.49480 -14.46629 -14.46461 -14.42177
 Alpha  occ. eigenvalues --  -14.42142 -14.40282 -10.44829 -10.43358 -10.41634
 Alpha  occ. eigenvalues --  -10.40073 -10.39387 -10.38971 -10.37028 -10.35172
 Alpha  occ. eigenvalues --  -10.35055 -10.34911 -10.33264 -10.32920 -10.30690
 Alpha  occ. eigenvalues --  -10.29714 -10.28272 -10.27865  -1.20238  -1.17742
 Alpha  occ. eigenvalues --   -1.17259  -1.15173  -1.14878  -1.13924  -1.09771
 Alpha  occ. eigenvalues --   -1.09641  -1.08409  -1.07722  -1.07299  -1.05845
 Alpha  occ. eigenvalues --   -1.03108  -1.02259  -0.98684  -0.98536  -0.96430
 Alpha  occ. eigenvalues --   -0.91425  -0.88472  -0.85645  -0.83168  -0.82470
 Alpha  occ. eigenvalues --   -0.80415  -0.78170  -0.76132  -0.75296  -0.74403
 Alpha  occ. eigenvalues --   -0.73661  -0.71898  -0.69989  -0.68649  -0.68128
 Alpha  occ. eigenvalues --   -0.68023  -0.66348  -0.65333  -0.64882  -0.64096
 Alpha  occ. eigenvalues --   -0.63319  -0.63015  -0.61594  -0.60627  -0.60237
 Alpha  occ. eigenvalues --   -0.60161  -0.58777  -0.58074  -0.57927  -0.57131
 Alpha  occ. eigenvalues --   -0.56978  -0.56418  -0.55464  -0.55269  -0.55153
 Alpha  occ. eigenvalues --   -0.54966  -0.54644  -0.54003  -0.53346  -0.52400
 Alpha  occ. eigenvalues --   -0.51871  -0.51672  -0.51340  -0.50740  -0.50646
 Alpha  occ. eigenvalues --   -0.49538  -0.49393  -0.48393  -0.48146  -0.47625
 Alpha  occ. eigenvalues --   -0.47322  -0.46397  -0.45890  -0.45718  -0.45219
 Alpha  occ. eigenvalues --   -0.44122  -0.43401  -0.42508  -0.42460  -0.41310
 Alpha  occ. eigenvalues --   -0.40117  -0.39769  -0.39600  -0.38442  -0.37552
 Alpha  occ. eigenvalues --   -0.37055  -0.36326  -0.35563  -0.34825  -0.33091
 Alpha  occ. eigenvalues --   -0.31948  -0.31673  -0.30998  -0.29692  -0.28553
 Alpha virt. eigenvalues --   -0.15550  -0.11910  -0.10482  -0.08480  -0.07589
 Alpha virt. eigenvalues --   -0.06930  -0.05436  -0.05392  -0.04444  -0.03258
 Alpha virt. eigenvalues --   -0.02894  -0.01722  -0.01353  -0.00936  -0.00713

 Mulliken charges:
               1
     1  N   -0.755673
     2  H    0.416437
     3  H    0.457288
     4  H    0.424650
     5  C   -0.266032
     6  H    0.249610
     7  H    0.218934
     8  C    0.581503
     9  O   -0.467124
    10  N   -0.534136
    11  H    0.347640
    12  C   -0.270601
    13  H    0.213218
    14  H    0.248432
    15  C    0.643898
    16  O   -0.589172
    17  N   -0.597114
    18  H    0.379805
    19  C   -0.205113
    20  H    0.203418
    21  H    0.203649
    22  C    0.615460
    23  O   -0.523399
    24  N   -0.621257
    25  H    0.364270
    26  C   -0.197291
    27  H    0.203193
    28  H    0.207466
    29  C    0.613140
    30  O   -0.543202
    31  N   -0.587527
    32  H    0.353299
    33  C   -0.246383
    34  H    0.205575
    35  H    0.198798
    36  C    0.583050
    37  O   -0.486004
    38  N   -0.617895
    39  H    0.364020
    40  C   -0.226989
    41  H    0.173600
    42  H    0.221816
    43  C    0.595182
    44  O   -0.522954
    45  N   -0.607068
    46  H    0.355047
    47  C   -0.186615
    48  H    0.189825
    49  H    0.190620
    50  C    0.603751
    51  O   -0.531695
    52  N   -0.623798
    53  H    0.358762
    54  C   -0.173658
    55  H    0.211118
    56  H    0.205680
    57  C    0.566359
    58  O   -0.455899
    59  O   -0.557041
    60  H    0.425129
 Sum of Mulliken charges =   1.00000

 Dipole moment (field-independent basis, Debye):
    X=             -2.3449    Y=             34.9141    Z=             -9.9263  Tot=             36.3734
 Quadrupole moment (field-independent basis, Debye-Ang):
   XX=            -74.4178   YY=            124.2521   ZZ=           -187.6013
   XY=            -65.7814   XZ=             48.9663   YZ=            -65.2802

 Normal termination of Gaussian 16 at Mon Jul 18 21:32:55 2022.
