 Gaussian 16, Revision C.01,
 Gaussian 16:  ES64L-G16RevC.01  3-Jul-2019

 ----------------------------------------------------------------------
 # B3LYP/6-31G* empiricaldispersion=gd3 guess=read geom=check nosymm in
 tegral(ultrafinegrid)
 ----------------------------------------------------------------------

 -----------------------------------------------------
 Candidate Structure: Conf:84 Charge calc in gas phase
 -----------------------------------------------------
 Structure from the checkpoint file:  "conf-84.chk"
 Charge =  1 Multiplicity = 1

                          Input orientation:
 ---------------------------------------------------------------------
 Center     Atomic      Atomic             Coordinates (Angstroms)
 Number     Number       Type             X           Y           Z
 ---------------------------------------------------------------------
      1          7           0       -2.435324    2.287099   -3.978279
      2          1           0       -2.941513    1.402946   -4.064718
      3          1           0       -1.650139    2.338374   -4.648369
      4          1           0       -1.995756    2.401580   -3.014075
      5          6           0       -3.286933    3.493436   -4.230947
      6          1           0       -3.946170    3.636906   -3.373427
      7          1           0       -3.879268    3.333049   -5.135928
      8          6           0       -2.268496    4.633612   -4.418551
      9          8           0       -1.141779    4.341969   -4.808718
     10          7           0       -2.654624    5.881194   -4.085978
     11          1           0       -3.601612    6.057714   -3.777407
     12          6           0       -1.644252    6.940463   -3.988779
     13          1           0       -1.130276    7.067516   -4.942638
     14          1           0       -2.149596    7.874432   -3.730646
     15          6           0       -0.557081    6.603239   -2.943054
     16          8           0        0.601795    6.924722   -3.113827
     17          7           0       -1.021155    5.950181   -1.823564
     18          1           0       -1.968621    5.599457   -1.856472
     19          6           0       -0.130937    5.145963   -1.017385
     20          1           0       -0.288874    5.337319    0.051878
     21          1           0        0.897000    5.428980   -1.260092
     22          6           0       -0.376268    3.654665   -1.279420
     23          8           0       -1.479427    3.269948   -1.737719
     24          7           0        0.606726    2.825214   -0.951257
     25          1           0        1.491473    3.154998   -0.558861
     26          6           0        0.519386    1.379733   -1.001746
     27          1           0       -0.375468    1.028744   -0.474795
     28          1           0        0.460939    1.025159   -2.039205
     29          6           0        1.802274    0.837787   -0.336534
     30          8           0        2.662931    1.617577    0.069547
     31          7           0        1.880859   -0.496615   -0.257977
     32          1           0        1.157036   -1.123581   -0.605394
     33          6           0        3.015054   -1.190556    0.316162
     34          1           0        3.147899   -0.917244    1.370168
     35          1           0        3.941165   -0.921973   -0.206560
     36          6           0        2.728714   -2.694601    0.177582
     37          8           0        1.686666   -3.091068   -0.349778
     38          7           0        3.679271   -3.506526    0.664384
     39          1           0        4.532899   -3.163908    1.099985
     40          6           0        3.571936   -4.948679    0.621698
     41          1           0        2.674363   -5.288628    1.153603
     42          1           0        3.483892   -5.303091   -0.413128
     43          6           0        4.836316   -5.519799    1.279554
     44          8           0        5.712968   -4.778174    1.723280
     45          7           0        4.901310   -6.862847    1.327286
     46          1           0        4.171393   -7.466603    0.958684
     47          6           0        6.024475   -7.558759    1.913950
     48          1           0        6.958202   -7.294969    1.400554
     49          1           0        6.151344   -7.276426    2.967127
     50          6           0        5.753543   -9.062870    1.792082
     51          8           0        4.727251   -9.491110    1.267594
     52          7           0        6.715244   -9.864103    2.297853
     53          1           0        7.555769   -9.493499    2.727255
     54          6           0        6.596855  -11.305391    2.254192
     55          1           0        5.700256  -11.649816    2.784054
     56          1           0        6.504750  -11.668581    1.223241
     57          6           0        7.826383  -11.916602    2.895324
     58          8           0        8.746081  -11.279584    3.361943
     59          8           0        7.763480  -13.258272    2.878811
     60          1           0        8.576905  -13.593015    3.302269
 ---------------------------------------------------------------------

 SCF Done:  E(RB3LYP) =  -1740.96696525     A.U. after    3 cycles

 Alpha  occ. eigenvalues --  -19.26910 -19.26561 -19.26072 -19.21779 -19.21741
 Alpha  occ. eigenvalues --  -19.21221 -19.19910 -19.18765 -19.18668 -14.59259
 Alpha  occ. eigenvalues --  -14.51212 -14.48800 -14.46409 -14.45433 -14.43687
 Alpha  occ. eigenvalues --  -14.43020 -14.42798 -10.44399 -10.42270 -10.40910
 Alpha  occ. eigenvalues --  -10.39398 -10.39325 -10.39146 -10.37146 -10.36049
 Alpha  occ. eigenvalues --  -10.35950 -10.34820 -10.34787 -10.34105 -10.31602
 Alpha  occ. eigenvalues --  -10.30367 -10.30248 -10.29851  -1.19606  -1.17663
 Alpha  occ. eigenvalues --   -1.17010  -1.14039  -1.13831  -1.13424  -1.11858
 Alpha  occ. eigenvalues --   -1.11001  -1.10278  -1.08840  -1.07163  -1.05128
 Alpha  occ. eigenvalues --   -1.02857  -1.01957  -1.00188  -0.99573  -0.99131
 Alpha  occ. eigenvalues --   -0.90552  -0.87873  -0.85245  -0.84190  -0.83033
 Alpha  occ. eigenvalues --   -0.81259  -0.79376  -0.76478  -0.74756  -0.73960
 Alpha  occ. eigenvalues --   -0.73313  -0.71178  -0.69231  -0.68829  -0.68574
 Alpha  occ. eigenvalues --   -0.67040  -0.66834  -0.66171  -0.66122  -0.65278
 Alpha  occ. eigenvalues --   -0.63584  -0.62923  -0.61283  -0.60997  -0.59830
 Alpha  occ. eigenvalues --   -0.59646  -0.59014  -0.58304  -0.57080  -0.56438
 Alpha  occ. eigenvalues --   -0.56159  -0.55911  -0.55711  -0.55653  -0.55103
 Alpha  occ. eigenvalues --   -0.54937  -0.54414  -0.54265  -0.53922  -0.53666
 Alpha  occ. eigenvalues --   -0.53104  -0.52681  -0.52412  -0.52070  -0.51193
 Alpha  occ. eigenvalues --   -0.50480  -0.50199  -0.49275  -0.49080  -0.48337
 Alpha  occ. eigenvalues --   -0.47491  -0.47266  -0.46809  -0.46593  -0.45780
 Alpha  occ. eigenvalues --   -0.45517  -0.45090  -0.43466  -0.41921  -0.41524
 Alpha  occ. eigenvalues --   -0.41020  -0.40542  -0.39186  -0.38822  -0.36445
 Alpha  occ. eigenvalues --   -0.36096  -0.35326  -0.35284  -0.35146  -0.34427
 Alpha  occ. eigenvalues --   -0.33710  -0.33360  -0.32864  -0.32258  -0.31640
 Alpha virt. eigenvalues --   -0.13527  -0.10925  -0.09647  -0.08474  -0.07299
 Alpha virt. eigenvalues --   -0.06443  -0.05856  -0.05434  -0.04508  -0.03750
 Alpha virt. eigenvalues --   -0.03536  -0.02306  -0.01463  -0.00674  -0.00039

 Mulliken charges:
               1
     1  N   -0.751394
     2  H    0.406618
     3  H    0.417766
     4  H    0.446740
     5  C   -0.279003
     6  H    0.225165
     7  H    0.241642
     8  C    0.647635
     9  O   -0.498342
    10  N   -0.611176
    11  H    0.354968
    12  C   -0.234548
    13  H    0.233838
    14  H    0.207736
    15  C    0.597123
    16  O   -0.466417
    17  N   -0.563936
    18  H    0.321859
    19  C   -0.245002
    20  H    0.209766
    21  H    0.228402
    22  C    0.642162
    23  O   -0.617191
    24  N   -0.583435
    25  H    0.385194
    26  C   -0.212808
    27  H    0.198546
    28  H    0.177002
    29  C    0.619422
    30  O   -0.519552
    31  N   -0.622218
    32  H    0.358649
    33  C   -0.198303
    34  H    0.202160
    35  H    0.202617
    36  C    0.610812
    37  O   -0.539315
    38  N   -0.621168
    39  H    0.364743
    40  C   -0.194558
    41  H    0.195840
    42  H    0.195099
    43  C    0.609085
    44  O   -0.530261
    45  N   -0.623415
    46  H    0.361332
    47  C   -0.193141
    48  H    0.196350
    49  H    0.196421
    50  C    0.608666
    51  O   -0.525781
    52  N   -0.624943
    53  H    0.360181
    54  C   -0.176412
    55  H    0.212337
    56  H    0.212264
    57  C    0.568145
    58  O   -0.456003
    59  O   -0.554885
    60  H    0.426925
 Sum of Mulliken charges =   1.00000

 Dipole moment (field-independent basis, Debye):
    X=             -6.7712    Y=              2.3744    Z=            -10.6321  Tot=             12.8269
 Quadrupole moment (field-independent basis, Debye-Ang):
   XX=           -107.2051   YY=            -25.1582   ZZ=           -129.1451
   XY=           -134.1309   XZ=             66.4968   YZ=            -66.1896

 Normal termination of Gaussian 16 at Mon Jul 18 21:33:19 2022.
