 Gaussian 16, Revision C.01,
 Gaussian 16:  ES64L-G16RevC.01  3-Jul-2019

 ----------------------------------------------------------------------
 # B3LYP/6-31G* empiricaldispersion=gd3 guess=read geom=check nosymm in
 tegral(ultrafinegrid)
 ----------------------------------------------------------------------

 -----------------------------------------------------
 Candidate Structure: Conf:60 Charge calc in gas phase
 -----------------------------------------------------
 Structure from the checkpoint file:  "conf-60.chk"
 Charge =  1 Multiplicity = 1

                          Input orientation:
 ---------------------------------------------------------------------
 Center     Atomic      Atomic             Coordinates (Angstroms)
 Number     Number       Type             X           Y           Z
 ---------------------------------------------------------------------
      1          7           0       -2.589347   -1.004960    0.928237
      2          1           0       -3.441447   -1.569291    0.925283
      3          1           0       -2.087310   -1.112692   -0.009562
      4          1           0       -1.950260   -1.304589    1.684906
      5          6           0       -2.845496    0.453107    1.136416
      6          1           0       -3.727827    0.586116    1.767276
      7          1           0       -2.999123    0.919275    0.160921
      8          6           0       -1.587861    1.009383    1.835817
      9          8           0       -0.793645    0.216612    2.345008
     10          7           0       -1.503047    2.351972    1.844975
     11          1           0       -2.093840    2.815436    1.158900
     12          6           0       -0.254407    3.066613    2.160357
     13          1           0       -0.493731    3.978603    2.716064
     14          1           0        0.399353    2.427768    2.757551
     15          6           0        0.382718    3.340531    0.794185
     16          8           0        1.139600    2.540810    0.260069
     17          7           0       -0.108138    4.423943    0.107199
     18          1           0       -0.838004    4.974845    0.539054
     19          6           0       -0.138698    4.314363   -1.343421
     20          1           0        0.880962    4.296743   -1.736716
     21          1           0       -0.653950    5.186472   -1.755326
     22          6           0       -0.902638    3.028078   -1.718857
     23          8           0       -1.861048    2.640462   -1.045710
     24          7           0       -0.454520    2.322351   -2.785132
     25          1           0        0.373591    2.627875   -3.278328
     26          6           0       -1.000166    0.994624   -3.038209
     27          1           0       -2.085331    1.043514   -3.138891
     28          1           0       -0.577017    0.611213   -3.970790
     29          6           0       -0.703612    0.016882   -1.885666
     30          8           0       -1.597604   -0.761531   -1.494724
     31          7           0        0.526051    0.060336   -1.378958
     32          1           0        1.203541    0.734332   -1.721560
     33          6           0        0.993539   -0.719081   -0.240813
     34          1           0        1.208663   -1.749924   -0.547267
     35          1           0        0.237006   -0.736048    0.542123
     36          6           0        2.294672   -0.061281    0.234986
     37          8           0        3.127743    0.294907   -0.591792
     38          7           0        2.435106    0.068242    1.573444
     39          1           0        1.602006    0.074779    2.157639
     40          6           0        3.550254    0.843153    2.086077
     41          1           0        4.459845    0.233351    2.133397
     42          1           0        3.755597    1.677150    1.401940
     43          6           0        3.188826    1.403211    3.460909
     44          8           0        2.014849    1.534216    3.823301
     45          7           0        4.233806    1.765696    4.224496
     46          1           0        5.200278    1.611723    3.947815
     47          6           0        4.070974    2.348048    5.537658
     48          1           0        3.543991    3.309466    5.478711
     49          1           0        3.467450    1.693360    6.179034
     50          6           0        5.471689    2.545102    6.132638
     51          8           0        6.482586    2.238951    5.504379
     52          7           0        5.501031    3.073179    7.374119
     53          1           0        4.655446    3.314592    7.879037
     54          6           0        6.750025    3.315412    8.064312
     55          1           0        7.322557    2.388876    8.194334
     56          1           0        7.393495    3.999799    7.498237
     57          6           0        6.446018    3.915142    9.422693
     58          8           0        5.329182    4.141953    9.836992
     59          8           0        7.574805    4.161198   10.105641
     60          1           0        7.319283    4.542500   10.967295
 ---------------------------------------------------------------------

 SCF Done:  E(RB3LYP) =  -1740.99385057     A.U. after    3 cycles

 Alpha  occ. eigenvalues --  -19.27515 -19.26348 -19.24799 -19.24760 -19.23575
 Alpha  occ. eigenvalues --  -19.22213 -19.20309 -19.20085 -19.19843 -14.57135
 Alpha  occ. eigenvalues --  -14.49568 -14.49317 -14.48075 -14.47984 -14.44329
 Alpha  occ. eigenvalues --  -14.44184 -14.44121 -10.43344 -10.41675 -10.41487
 Alpha  occ. eigenvalues --  -10.40481 -10.40394 -10.38540 -10.37533 -10.37508
 Alpha  occ. eigenvalues --  -10.37159 -10.35164 -10.35051 -10.33815 -10.33010
 Alpha  occ. eigenvalues --  -10.31315 -10.31255 -10.30817  -1.18640  -1.18355
 Alpha  occ. eigenvalues --   -1.17017  -1.15932  -1.15203  -1.12611  -1.12105
 Alpha  occ. eigenvalues --   -1.11742  -1.11504  -1.09830  -1.06204  -1.05545
 Alpha  occ. eigenvalues --   -1.03974  -1.03679  -1.00887  -1.00594  -1.00438
 Alpha  occ. eigenvalues --   -0.89349  -0.88069  -0.85665  -0.84800  -0.83357
 Alpha  occ. eigenvalues --   -0.81745  -0.80354  -0.77492  -0.73000  -0.72443
 Alpha  occ. eigenvalues --   -0.71672  -0.71140  -0.70413  -0.70186  -0.69983
 Alpha  occ. eigenvalues --   -0.67972  -0.67026  -0.66533  -0.66171  -0.65306
 Alpha  occ. eigenvalues --   -0.64128  -0.62511  -0.62074  -0.61293  -0.60827
 Alpha  occ. eigenvalues --   -0.59975  -0.58827  -0.58441  -0.57917  -0.57266
 Alpha  occ. eigenvalues --   -0.56981  -0.56828  -0.56749  -0.56076  -0.55693
 Alpha  occ. eigenvalues --   -0.55353  -0.55029  -0.54986  -0.53949  -0.53506
 Alpha  occ. eigenvalues --   -0.53481  -0.53211  -0.52967  -0.52429  -0.52209
 Alpha  occ. eigenvalues --   -0.51621  -0.50638  -0.50246  -0.49625  -0.49355
 Alpha  occ. eigenvalues --   -0.48883  -0.48142  -0.47758  -0.47502  -0.46831
 Alpha  occ. eigenvalues --   -0.46562  -0.46435  -0.44353  -0.43151  -0.41261
 Alpha  occ. eigenvalues --   -0.40759  -0.40446  -0.39790  -0.39377  -0.38373
 Alpha  occ. eigenvalues --   -0.37599  -0.37159  -0.36303  -0.36094  -0.35025
 Alpha  occ. eigenvalues --   -0.34774  -0.34313  -0.33754  -0.33484  -0.33069
 Alpha virt. eigenvalues --   -0.13212  -0.11311  -0.09945  -0.09156  -0.07923
 Alpha virt. eigenvalues --   -0.06853  -0.06352  -0.06114  -0.04965  -0.04589
 Alpha virt. eigenvalues --   -0.03754  -0.02428  -0.00756   0.00060   0.00555

 Mulliken charges:
               1
     1  N   -0.765920
     2  H    0.406301
     3  H    0.456972
     4  H    0.410872
     5  C   -0.297762
     6  H    0.232872
     7  H    0.261141
     8  C    0.632972
     9  O   -0.509105
    10  N   -0.573325
    11  H    0.359913
    12  C   -0.284246
    13  H    0.182288
    14  H    0.280138
    15  C    0.590478
    16  O   -0.500373
    17  N   -0.553739
    18  H    0.341771
    19  C   -0.242794
    20  H    0.202243
    21  H    0.206918
    22  C    0.636083
    23  O   -0.550936
    24  N   -0.592734
    25  H    0.356568
    26  C   -0.225409
    27  H    0.215575
    28  H    0.207707
    29  C    0.627447
    30  O   -0.595583
    31  N   -0.554054
    32  H    0.366479
    33  C   -0.204687
    34  H    0.202998
    35  H    0.157909
    36  C    0.615805
    37  O   -0.523227
    38  N   -0.615973
    39  H    0.376014
    40  C   -0.197893
    41  H    0.185565
    42  H    0.212049
    43  C    0.598305
    44  O   -0.541009
    45  N   -0.611436
    46  H    0.366636
    47  C   -0.194251
    48  H    0.187500
    49  H    0.197166
    50  C    0.609930
    51  O   -0.521102
    52  N   -0.625180
    53  H    0.358473
    54  C   -0.177895
    55  H    0.214898
    56  H    0.214315
    57  C    0.568972
    58  O   -0.458124
    59  O   -0.552660
    60  H    0.428143
 Sum of Mulliken charges =   1.00000

 Dipole moment (field-independent basis, Debye):
    X=             -3.7791    Y=              8.7795    Z=              6.5871  Tot=             11.6083
 Quadrupole moment (field-independent basis, Debye-Ang):
   XX=           -138.6501   YY=           -130.0123   ZZ=            -94.2176
   XY=             21.9788   XZ=             43.4768   YZ=             20.2829

 Normal termination of Gaussian 16 at Mon Jul 18 21:33:34 2022.
