 Gaussian 16, Revision C.01,
 Gaussian 16:  ES64L-G16RevC.01  3-Jul-2019

 ----------------------------------------------------------------------
 # B3LYP/6-31G* empiricaldispersion=gd3 guess=read geom=check nosymm in
 tegral(ultrafinegrid)
 ----------------------------------------------------------------------

 ------------------------------------------------------
 Candidate Structure: Conf:549 Charge calc in gas phase
 ------------------------------------------------------
 Structure from the checkpoint file:  "conf-549.chk"
 Charge =  1 Multiplicity = 1

                          Input orientation:
 ---------------------------------------------------------------------
 Center     Atomic      Atomic             Coordinates (Angstroms)
 Number     Number       Type             X           Y           Z
 ---------------------------------------------------------------------
      1          7           0       -0.738410    1.750474   -4.744840
      2          1           0       -1.191267    1.541208   -5.636808
      3          1           0        0.290401    1.526869   -4.831940
      4          1           0       -1.061382    1.097456   -4.002722
      5          6           0       -1.026736    3.121892   -4.228496
      6          1           0       -2.007527    3.445509   -4.587004
      7          1           0       -0.251742    3.807662   -4.570404
      8          6           0       -1.003976    2.981956   -2.694864
      9          8           0       -0.979273    1.840694   -2.223670
     10          7           0       -1.038474    4.111726   -1.974214
     11          1           0       -0.982980    4.979122   -2.493268
     12          6           0       -0.496852    4.180604   -0.605732
     13          1           0        0.493881    3.711927   -0.605091
     14          1           0       -0.376546    5.234144   -0.353419
     15          6           0       -1.257168    3.540738    0.556012
     16          8           0       -0.960606    3.911723    1.691276
     17          7           0       -2.142367    2.547417    0.288905
     18          1           0       -2.054883    2.105888   -0.621041
     19          6           0       -2.570936    1.654762    1.368007
     20          1           0       -3.491566    1.149168    1.075965
     21          1           0       -2.744583    2.253605    2.264638
     22          6           0       -1.480638    0.594361    1.582825
     23          8           0       -1.591436   -0.551391    1.173497
     24          7           0       -0.356192    1.078978    2.203498
     25          1           0       -0.319897    2.075845    2.397862
     26          6           0        0.867029    0.329351    2.186390
     27          1           0        1.327622    0.312352    3.182227
     28          1           0        0.610288   -0.702085    1.915639
     29          6           0        1.886512    0.833504    1.155990
     30          8           0        1.568992    1.541110    0.192135
     31          7           0        3.157964    0.442198    1.422177
     32          1           0        3.283993   -0.229097    2.169185
     33          6           0        4.263917    0.610852    0.510652
     34          1           0        5.190897    0.699986    1.086824
     35          1           0        4.126978    1.545315   -0.040154
     36          6           0        4.354841   -0.544038   -0.502032
     37          8           0        3.390925   -1.256129   -0.764889
     38          7           0        5.577504   -0.712090   -1.071521
     39          1           0        6.315521   -0.043732   -0.897036
     40          6           0        5.798358   -1.740873   -2.082344
     41          1           0        6.871792   -1.889184   -2.205440
     42          1           0        5.339253   -2.671614   -1.739024
     43          6           0        5.230021   -1.292111   -3.431282
     44          8           0        5.900643   -0.614703   -4.215194
     45          7           0        3.943015   -1.651685   -3.671055
     46          1           0        3.386388   -1.937562   -2.869764
     47          6           0        3.266189   -1.257056   -4.900311
     48          1           0        3.968294   -1.380759   -5.730887
     49          1           0        2.402776   -1.903377   -5.058951
     50          6           0        2.770707    0.190550   -4.851460
     51          8           0        1.557236    0.454121   -4.911997
     52          7           0        3.721925    1.126567   -4.700064
     53          1           0        4.686889    0.799666   -4.617926
     54          6           0        3.365660    2.483765   -4.347241
     55          1           0        4.286636    3.053715   -4.192573
     56          1           0        2.803036    2.972045   -5.147536
     57          6           0        2.517664    2.572570   -3.073528
     58          8           0        1.644096    3.415419   -2.948427
     59          8           0        2.857887    1.673326   -2.164131
     60          1           0        2.279524    1.705713   -1.341461
 ---------------------------------------------------------------------

 SCF Done:  E(RB3LYP) =  -1741.00773001     A.U. after    1 cycles

 Alpha  occ. eigenvalues --  -19.29458 -19.26529 -19.25412 -19.25293 -19.23855
 Alpha  occ. eigenvalues --  -19.23092 -19.22922 -19.20439 -19.19096 -14.57552
 Alpha  occ. eigenvalues --  -14.49571 -14.47960 -14.47812 -14.47780 -14.47216
 Alpha  occ. eigenvalues --  -14.44539 -14.43351 -10.43638 -10.43574 -10.41453
 Alpha  occ. eigenvalues --  -10.40327 -10.40196 -10.39846 -10.39397 -10.38044
 Alpha  occ. eigenvalues --  -10.36217 -10.35123 -10.34505 -10.34071 -10.33687
 Alpha  occ. eigenvalues --  -10.33257 -10.31924 -10.30388  -1.21093  -1.18805
 Alpha  occ. eigenvalues --   -1.16520  -1.15512  -1.14822  -1.14270  -1.12631
 Alpha  occ. eigenvalues --   -1.12415  -1.12123  -1.10859  -1.05834  -1.04789
 Alpha  occ. eigenvalues --   -1.04088  -1.03836  -1.03049  -1.01055  -0.99878
 Alpha  occ. eigenvalues --   -0.89299  -0.88486  -0.86955  -0.84759  -0.83869
 Alpha  occ. eigenvalues --   -0.81940  -0.80247  -0.77693  -0.74167  -0.73096
 Alpha  occ. eigenvalues --   -0.72158  -0.71582  -0.71013  -0.70160  -0.69767
 Alpha  occ. eigenvalues --   -0.68817  -0.67287  -0.66066  -0.65812  -0.65334
 Alpha  occ. eigenvalues --   -0.65082  -0.63596  -0.62539  -0.62311  -0.61661
 Alpha  occ. eigenvalues --   -0.61180  -0.60078  -0.59798  -0.59096  -0.58503
 Alpha  occ. eigenvalues --   -0.58468  -0.58165  -0.57413  -0.57017  -0.56601
 Alpha  occ. eigenvalues --   -0.55099  -0.54859  -0.54307  -0.54181  -0.53489
 Alpha  occ. eigenvalues --   -0.53068  -0.53031  -0.52796  -0.52243  -0.51983
 Alpha  occ. eigenvalues --   -0.51714  -0.51189  -0.50898  -0.49750  -0.49448
 Alpha  occ. eigenvalues --   -0.49254  -0.48752  -0.48611  -0.48378  -0.47623
 Alpha  occ. eigenvalues --   -0.47357  -0.46253  -0.45060  -0.44852  -0.42731
 Alpha  occ. eigenvalues --   -0.41089  -0.40427  -0.40418  -0.39706  -0.39136
 Alpha  occ. eigenvalues --   -0.38392  -0.38052  -0.37279  -0.36594  -0.36058
 Alpha  occ. eigenvalues --   -0.35983  -0.35265  -0.34090  -0.33328  -0.31861
 Alpha virt. eigenvalues --   -0.12707  -0.11331  -0.10193  -0.09472  -0.09164
 Alpha virt. eigenvalues --   -0.08330  -0.08230  -0.07653  -0.05174  -0.04609
 Alpha virt. eigenvalues --   -0.03106  -0.02580  -0.01997  -0.01389   0.00424

 Mulliken charges:
               1
     1  N   -0.760609
     2  H    0.404247
     3  H    0.447310
     4  H    0.421665
     5  C   -0.271524
     6  H    0.228770
     7  H    0.239299
     8  C    0.652953
     9  O   -0.530282
    10  N   -0.572094
    11  H    0.355611
    12  C   -0.251823
    13  H    0.234088
    14  H    0.200335
    15  C    0.611873
    16  O   -0.524623
    17  N   -0.586199
    18  H    0.374466
    19  C   -0.243518
    20  H    0.189509
    21  H    0.204441
    22  C    0.585889
    23  O   -0.497006
    24  N   -0.582328
    25  H    0.369743
    26  C   -0.252530
    27  H    0.177827
    28  H    0.236295
    29  C    0.641704
    30  O   -0.555991
    31  N   -0.557605
    32  H    0.354417
    33  C   -0.265863
    34  H    0.187115
    35  H    0.210337
    36  C    0.632931
    37  O   -0.518332
    38  N   -0.587680
    39  H    0.350244
    40  C   -0.229686
    41  H    0.203617
    42  H    0.202168
    43  C    0.599704
    44  O   -0.528226
    45  N   -0.567623
    46  H    0.379573
    47  C   -0.245207
    48  H    0.217022
    49  H    0.198055
    50  C    0.627531
    51  O   -0.582368
    52  N   -0.568693
    53  H    0.396947
    54  C   -0.220769
    55  H    0.209367
    56  H    0.186942
    57  C    0.594564
    58  O   -0.509944
    59  O   -0.591692
    60  H    0.475654
 Sum of Mulliken charges =   1.00000

 Dipole moment (field-independent basis, Debye):
    X=              8.8704    Y=              8.4316    Z=            -15.3401  Tot=             19.6238
 Quadrupole moment (field-independent basis, Debye-Ang):
   XX=           -118.2615   YY=           -152.7860   ZZ=            -96.7004
   XY=            -12.8688   XZ=             11.8238   YZ=            -37.8965

 Normal termination of Gaussian 16 at Mon Jul 18 21:40:05 2022.
