 Gaussian 16, Revision C.01,
 Gaussian 16:  ES64L-G16RevC.01  3-Jul-2019

 ----------------------------------------------------------------------
 # B3LYP/6-31G* empiricaldispersion=gd3 guess=read geom=check nosymm in
 tegral(ultrafinegrid)
 ----------------------------------------------------------------------

 ------------------------------------------------------
 Candidate Structure: Conf:962 Charge calc in gas phase
 ------------------------------------------------------
 Structure from the checkpoint file:  "conf-962.chk"
 Charge =  1 Multiplicity = 1

                          Input orientation:
 ---------------------------------------------------------------------
 Center     Atomic      Atomic             Coordinates (Angstroms)
 Number     Number       Type             X           Y           Z
 ---------------------------------------------------------------------
      1          7           0        1.689385    3.823375   -0.508158
      2          1           0        2.610973    3.375171   -0.650652
      3          1           0        1.820482    4.583577    0.183650
      4          1           0        1.064300    3.119331   -0.076977
      5          6           0        1.038654    4.361065   -1.735557
      6          1           0        0.943695    3.557237   -2.467419
      7          1           0        1.662338    5.161571   -2.140973
      8          6           0       -0.312794    4.905308   -1.252644
      9          8           0       -0.351345    5.487519   -0.171101
     10          7           0       -1.397454    4.658100   -2.022555
     11          1           0       -1.299756    3.984937   -2.772902
     12          6           0       -2.736839    4.730764   -1.416906
     13          1           0       -2.790224    5.630722   -0.802219
     14          1           0       -3.486616    4.771293   -2.206408
     15          6           0       -2.913418    3.432491   -0.613424
     16          8           0       -3.437357    2.438949   -1.095787
     17          7           0       -2.308385    3.426112    0.618159
     18          1           0       -1.708402    4.209534    0.854852
     19          6           0       -1.976656    2.144712    1.190210
     20          1           0       -2.885740    1.552447    1.332422
     21          1           0       -1.495983    2.305957    2.157261
     22          6           0       -0.994830    1.371770    0.297440
     23          8           0       -0.307821    1.916130   -0.580407
     24          7           0       -0.888174    0.044177    0.527618
     25          1           0       -1.538123   -0.403082    1.160496
     26          6           0       -0.120395   -0.799797   -0.381794
     27          1           0       -0.333009   -1.842604   -0.141843
     28          1           0       -0.430775   -0.602165   -1.413218
     29          6           0        1.395593   -0.619620   -0.217215
     30          8           0        2.016736   -1.189121    0.683906
     31          7           0        2.010842    0.162618   -1.137753
     32          1           0        1.428667    0.745053   -1.723990
     33          6           0        3.463373    0.262744   -1.204824
     34          1           0        3.728172    0.815745   -2.107862
     35          1           0        3.884725   -0.744560   -1.282321
     36          6           0        4.063531    1.016498   -0.005667
     37          8           0        4.031377    2.259274    0.034103
     38          7           0        4.600298    0.232792    0.947836
     39          1           0        4.413808   -0.758931    0.855984
     40          6           0        5.059755    0.700847    2.249582
     41          1           0        5.742606   -0.042008    2.669082
     42          1           0        5.621192    1.628728    2.130167
     43          6           0        3.949356    1.002298    3.271501
     44          8           0        4.229315    1.575514    4.318216
     45          7           0        2.684812    0.653240    2.919804
     46          1           0        2.504583    0.099887    2.088475
     47          6           0        1.543289    1.195730    3.645762
     48          1           0        0.645609    0.666103    3.324161
     49          1           0        1.682607    1.067150    4.722525
     50          6           0        1.429853    2.671281    3.240769
     51          8           0        0.847939    3.016376    2.203315
     52          7           0        2.108609    3.539961    4.029228
     53          1           0        2.796534    3.118350    4.649683
     54          6           0        2.407637    4.869888    3.516747
     55          1           0        1.489144    5.411728    3.288170
     56          1           0        2.965645    5.422530    4.277560
     57          6           0        3.224321    4.789346    2.228564
     58          8           0        3.017305    5.471713    1.239666
     59          8           0        4.160376    3.840833    2.289102
     60          1           0        4.461196    3.615986    1.380993
 ---------------------------------------------------------------------

 SCF Done:  E(RB3LYP) =  -1741.02591011     A.U. after    1 cycles

 Alpha  occ. eigenvalues --  -19.30127 -19.27254 -19.25867 -19.25866 -19.25380
 Alpha  occ. eigenvalues --  -19.24752 -19.24115 -19.22370 -19.21852 -14.54554
 Alpha  occ. eigenvalues --  -14.50654 -14.50516 -14.50227 -14.49137 -14.47369
 Alpha  occ. eigenvalues --  -14.47185 -14.45904 -10.43760 -10.43672 -10.42997
 Alpha  occ. eigenvalues --  -10.42446 -10.42268 -10.40667 -10.40038 -10.38891
 Alpha  occ. eigenvalues --  -10.38054 -10.37226 -10.36350 -10.34995 -10.34287
 Alpha  occ. eigenvalues --  -10.34164 -10.34103 -10.33602  -1.21804  -1.18489
 Alpha  occ. eigenvalues --   -1.17798  -1.17330  -1.16950  -1.15635  -1.14329
 Alpha  occ. eigenvalues --   -1.13750  -1.12821  -1.10007  -1.06934  -1.06442
 Alpha  occ. eigenvalues --   -1.05890  -1.05084  -1.03991  -1.03114  -1.02503
 Alpha  occ. eigenvalues --   -0.90353  -0.88435  -0.87801  -0.86689  -0.84662
 Alpha  occ. eigenvalues --   -0.83236  -0.81432  -0.80319  -0.74475  -0.73700
 Alpha  occ. eigenvalues --   -0.72753  -0.71697  -0.71525  -0.70594  -0.69831
 Alpha  occ. eigenvalues --   -0.69432  -0.68933  -0.68806  -0.67199  -0.66387
 Alpha  occ. eigenvalues --   -0.65145  -0.64656  -0.63951  -0.63112  -0.62605
 Alpha  occ. eigenvalues --   -0.61888  -0.61601  -0.61128  -0.60723  -0.60184
 Alpha  occ. eigenvalues --   -0.59296  -0.58931  -0.58458  -0.57646  -0.57271
 Alpha  occ. eigenvalues --   -0.56436  -0.56353  -0.55741  -0.55316  -0.54947
 Alpha  occ. eigenvalues --   -0.54606  -0.54281  -0.53777  -0.53135  -0.53073
 Alpha  occ. eigenvalues --   -0.52789  -0.52174  -0.51928  -0.51703  -0.51306
 Alpha  occ. eigenvalues --   -0.50836  -0.50422  -0.50043  -0.49923  -0.49048
 Alpha  occ. eigenvalues --   -0.48823  -0.48315  -0.47216  -0.47098  -0.43384
 Alpha  occ. eigenvalues --   -0.42597  -0.42336  -0.41249  -0.40646  -0.40570
 Alpha  occ. eigenvalues --   -0.39677  -0.39019  -0.38957  -0.38592  -0.38039
 Alpha  occ. eigenvalues --   -0.37018  -0.36322  -0.35886  -0.35465  -0.34724
 Alpha virt. eigenvalues --   -0.13528  -0.12734  -0.12250  -0.11677  -0.11239
 Alpha virt. eigenvalues --   -0.10401  -0.08407  -0.07797  -0.07231  -0.04376
 Alpha virt. eigenvalues --   -0.03968  -0.02595  -0.02148  -0.00296   0.00290

 Mulliken charges:
               1
     1  N   -0.812869
     2  H    0.410190
     3  H    0.452364
     4  H    0.444970
     5  C   -0.252606
     6  H    0.188225
     7  H    0.237985
     8  C    0.629856
     9  O   -0.508209
    10  N   -0.564846
    11  H    0.351016
    12  C   -0.247210
    13  H    0.214106
    14  H    0.207085
    15  C    0.588044
    16  O   -0.499285
    17  N   -0.574714
    18  H    0.373130
    19  C   -0.242245
    20  H    0.200454
    21  H    0.209484
    22  C    0.666411
    23  O   -0.598091
    24  N   -0.582727
    25  H    0.361608
    26  C   -0.226822
    27  H    0.212257
    28  H    0.195778
    29  C    0.605355
    30  O   -0.526911
    31  N   -0.565681
    32  H    0.357323
    33  C   -0.241440
    34  H    0.200424
    35  H    0.203999
    36  C    0.622461
    37  O   -0.565000
    38  N   -0.564073
    39  H    0.371291
    40  C   -0.250757
    41  H    0.218282
    42  H    0.220818
    43  C    0.631407
    44  O   -0.520045
    45  N   -0.627522
    46  H    0.396507
    47  C   -0.228561
    48  H    0.171520
    49  H    0.204902
    50  C    0.596249
    51  O   -0.567549
    52  N   -0.551775
    53  H    0.384732
    54  C   -0.224150
    55  H    0.220175
    56  H    0.214939
    57  C    0.590780
    58  O   -0.496754
    59  O   -0.554161
    60  H    0.439875
 Sum of Mulliken charges =   1.00000

 Dipole moment (field-independent basis, Debye):
    X=              7.3670    Y=              7.7203    Z=             -0.6611  Tot=             10.6917
 Quadrupole moment (field-independent basis, Debye-Ang):
   XX=           -152.7042   YY=           -150.6103   ZZ=           -156.4869
   XY=              4.3964   XZ=             -4.9473   YZ=             -4.7962

 Normal termination of Gaussian 16 at Mon Jul 18 21:46:54 2022.
