 Gaussian 16, Revision C.01,
 Gaussian 16:  ES64L-G16RevC.01  3-Jul-2019

 ----------------------------------------------------------------------
 # B3LYP/6-31G* empiricaldispersion=gd3 guess=read geom=check nosymm in
 tegral(ultrafinegrid)
 ----------------------------------------------------------------------

 ------------------------------------------------------
 Candidate Structure: Conf:315 Charge calc in gas phase
 ------------------------------------------------------
 Structure from the checkpoint file:  "conf-315.chk"
 Charge =  1 Multiplicity = 1

                          Input orientation:
 ---------------------------------------------------------------------
 Center     Atomic      Atomic             Coordinates (Angstroms)
 Number     Number       Type             X           Y           Z
 ---------------------------------------------------------------------
      1          7           0       -6.352908   -1.626671    2.685958
      2          1           0       -7.373774   -1.704283    2.727365
      3          1           0       -6.059875   -1.338748    1.702861
      4          1           0       -5.951990   -2.540684    2.916777
      5          6           0       -5.804786   -0.498478    3.519938
      6          1           0       -5.051327   -0.887871    4.207841
      7          1           0       -6.611649   -0.037509    4.092578
      8          6           0       -5.186464    0.472462    2.481192
      9          8           0       -5.223104    0.124013    1.292421
     10          7           0       -4.675311    1.611909    2.937145
     11          1           0       -4.617666    1.772724    3.935969
     12          6           0       -4.011339    2.584326    2.052663
     13          1           0       -4.565482    2.613760    1.110820
     14          1           0       -4.055431    3.562426    2.530439
     15          6           0       -2.525997    2.230480    1.831889
     16          8           0       -1.643999    2.872829    2.388579
     17          7           0       -2.310210    1.154741    1.035043
     18          1           0       -3.084356    0.791366    0.493180
     19          6           0       -0.960425    0.700816    0.696552
     20          1           0       -1.001865   -0.352105    0.416054
     21          1           0       -0.314776    0.816142    1.570874
     22          6           0       -0.326679    1.459923   -0.477405
     23          8           0        0.006966    0.874214   -1.504600
     24          7           0       -0.186848    2.799914   -0.283832
     25          1           0       -0.255847    3.129690    0.674407
     26          6           0        0.646766    3.592928   -1.190519
     27          1           0        0.438796    3.274772   -2.214715
     28          1           0        0.402287    4.648965   -1.071503
     29          6           0        2.115006    3.377461   -0.798482
     30          8           0        2.714439    4.156229   -0.071313
     31          7           0        2.649671    2.194688   -1.244681
     32          1           0        1.983742    1.525848   -1.621805
     33          6           0        3.757827    1.646924   -0.496139
     34          1           0        4.552723    2.394829   -0.429447
     35          1           0        4.153799    0.774816   -1.026947
     36          6           0        3.317652    1.219079    0.919172
     37          8           0        2.140133    1.010700    1.212876
     38          7           0        4.327763    1.057107    1.802421
     39          1           0        5.286165    1.305990    1.581153
     40          6           0        4.083985    0.686436    3.174941
     41          1           0        3.413675    1.408737    3.660980
     42          1           0        3.586630   -0.291609    3.229380
     43          6           0        5.423267    0.634077    3.912781
     44          8           0        6.481761    0.918263    3.347681
     45          7           0        5.355896    0.271490    5.214360
     46          1           0        4.475833   -0.054808    5.589561
     47          6           0        6.541208    0.178480    6.064856
     48          1           0        7.204307    1.011318    5.810130
     49          1           0        6.234588    0.269858    7.107096
     50          6           0        7.298538   -1.154785    5.924592
     51          8           0        7.400473   -1.934370    6.861011
     52          7           0        7.808090   -1.377473    4.677465
     53          1           0        7.779290   -0.609520    4.014388
     54          6           0        8.683293   -2.496151    4.419485
     55          1           0        8.472124   -3.269980    5.163311
     56          1           0        8.492170   -2.924285    3.430620
     57          6           0       10.177738   -2.198377    4.498623
     58          8           0       11.027491   -2.989120    4.162183
     59          8           0       10.445038   -0.967305    4.989216
     60          1           0       11.417694   -0.891038    5.019347
 ---------------------------------------------------------------------

 SCF Done:  E(RB3LYP) =  -1740.92865476     A.U. after    2 cycles

 Alpha  occ. eigenvalues --  -19.31832 -19.24334 -19.23220 -19.20180 -19.19321
 Alpha  occ. eigenvalues --  -19.18147 -19.18142 -19.17026 -19.16716 -14.65035
 Alpha  occ. eigenvalues --  -14.55011 -14.47611 -14.44609 -14.43163 -14.42549
 Alpha  occ. eigenvalues --  -14.40883 -14.40706 -10.48690 -10.45509 -10.40687
 Alpha  occ. eigenvalues --  -10.37277 -10.37127 -10.36576 -10.36440 -10.35128
 Alpha  occ. eigenvalues --  -10.34002 -10.33950 -10.31464 -10.30647 -10.29378
 Alpha  occ. eigenvalues --  -10.28883 -10.28716 -10.28214  -1.24201  -1.18685
 Alpha  occ. eigenvalues --   -1.15207  -1.15021  -1.12086  -1.11166  -1.10877
 Alpha  occ. eigenvalues --   -1.09950  -1.08624  -1.08545  -1.05994  -1.03444
 Alpha  occ. eigenvalues --   -1.00475  -0.99366  -0.98973  -0.97395  -0.97357
 Alpha  occ. eigenvalues --   -0.94787  -0.88020  -0.83779  -0.82987  -0.80845
 Alpha  occ. eigenvalues --   -0.79144  -0.78762  -0.78653  -0.77245  -0.76565
 Alpha  occ. eigenvalues --   -0.74613  -0.71325  -0.69751  -0.67750  -0.67378
 Alpha  occ. eigenvalues --   -0.66461  -0.66178  -0.65707  -0.65244  -0.64496
 Alpha  occ. eigenvalues --   -0.63781  -0.63313  -0.62386  -0.61072  -0.60732
 Alpha  occ. eigenvalues --   -0.58930  -0.58761  -0.57830  -0.57373  -0.56577
 Alpha  occ. eigenvalues --   -0.55706  -0.55386  -0.54439  -0.54065  -0.53826
 Alpha  occ. eigenvalues --   -0.53445  -0.52993  -0.52430  -0.51855  -0.51422
 Alpha  occ. eigenvalues --   -0.50813  -0.50562  -0.49878  -0.49521  -0.48856
 Alpha  occ. eigenvalues --   -0.48086  -0.48038  -0.47071  -0.46785  -0.46559
 Alpha  occ. eigenvalues --   -0.46387  -0.46232  -0.45334  -0.44901  -0.44544
 Alpha  occ. eigenvalues --   -0.44375  -0.44345  -0.43304  -0.42697  -0.42415
 Alpha  occ. eigenvalues --   -0.41596  -0.38088  -0.36607  -0.36075  -0.35253
 Alpha  occ. eigenvalues --   -0.34569  -0.34317  -0.33671  -0.32751  -0.32364
 Alpha  occ. eigenvalues --   -0.32228  -0.30939  -0.29953  -0.29627  -0.29479
 Alpha virt. eigenvalues --   -0.17028  -0.15758  -0.11249  -0.10329  -0.09181
 Alpha virt. eigenvalues --   -0.06350  -0.06129  -0.05895  -0.04864  -0.03972
 Alpha virt. eigenvalues --   -0.03856  -0.03378  -0.03005  -0.02967  -0.00689

 Mulliken charges:
               1
     1  N   -0.747488
     2  H    0.431620
     3  H    0.444247
     4  H    0.431149
     5  C   -0.278758
     6  H    0.256248
     7  H    0.255172
     8  C    0.642763
     9  O   -0.527016
    10  N   -0.570322
    11  H    0.371569
    12  C   -0.258455
    13  H    0.218379
    14  H    0.221921
    15  C    0.603597
    16  O   -0.493100
    17  N   -0.585552
    18  H    0.355063
    19  C   -0.256836
    20  H    0.179845
    21  H    0.232930
    22  C    0.621537
    23  O   -0.523826
    24  N   -0.583512
    25  H    0.369030
    26  C   -0.241678
    27  H    0.192468
    28  H    0.183420
    29  C    0.588688
    30  O   -0.504172
    31  N   -0.567659
    32  H    0.365143
    33  C   -0.253096
    34  H    0.198588
    35  H    0.185324
    36  C    0.632527
    37  O   -0.554135
    38  N   -0.610176
    39  H    0.361416
    40  C   -0.185804
    41  H    0.193724
    42  H    0.181163
    43  C    0.610753
    44  O   -0.537660
    45  N   -0.588758
    46  H    0.341627
    47  C   -0.244649
    48  H    0.205768
    49  H    0.188420
    50  C    0.593376
    51  O   -0.497981
    52  N   -0.588483
    53  H    0.366319
    54  C   -0.235036
    55  H    0.227009
    56  H    0.190376
    57  C    0.581368
    58  O   -0.448560
    59  O   -0.557662
    60  H    0.417827
 Sum of Mulliken charges =   1.00000

 Dipole moment (field-independent basis, Debye):
    X=            -29.0100    Y=             -3.3178    Z=             16.2081  Tot=             33.3960
 Quadrupole moment (field-independent basis, Debye-Ang):
   XX=            -10.6707   YY=           -188.8399   ZZ=           -137.1046
   XY=             42.8651   XZ=            -97.0581   YZ=              0.1851

 Normal termination of Gaussian 16 at Mon Jul 18 21:40:13 2022.
