 Gaussian 16, Revision C.01,
 Gaussian 16:  ES64L-G16RevC.01  3-Jul-2019

 ----------------------------------------------------------------------
 # B3LYP/6-31G* empiricaldispersion=gd3 guess=read geom=check nosymm in
 tegral(ultrafinegrid)
 ----------------------------------------------------------------------

 -----------------------------------------------------
 Candidate Structure: Conf:64 Charge calc in gas phase
 -----------------------------------------------------
 Structure from the checkpoint file:  "conf-64.chk"
 Charge =  1 Multiplicity = 1

                          Input orientation:
 ---------------------------------------------------------------------
 Center     Atomic      Atomic             Coordinates (Angstroms)
 Number     Number       Type             X           Y           Z
 ---------------------------------------------------------------------
      1          7           0       -8.383183    8.163559    0.275718
      2          1           0       -8.789062    8.562419   -0.575200
      3          1           0       -8.773447    7.176148    0.441961
      4          1           0       -8.621871    8.771918    1.063654
      5          6           0       -6.911268    7.870395    0.163150
      6          1           0       -6.365629    8.409706    0.939395
      7          1           0       -6.545392    8.182160   -0.816689
      8          6           0       -6.832640    6.331069    0.354321
      9          8           0       -7.904033    5.733984    0.539701
     10          7           0       -5.630613    5.786295    0.303454
     11          1           0       -4.766431    6.316506    0.149258
     12          6           0       -5.371820    4.363421    0.463291
     13          1           0       -5.727370    4.013492    1.438813
     14          1           0       -5.891934    3.786869   -0.309795
     15          6           0       -3.842865    4.208500    0.338873
     16          8           0       -3.141633    5.203581    0.138911
     17          7           0       -3.376151    2.961764    0.461640
     18          1           0       -3.974268    2.154906    0.633286
     19          6           0       -1.965645    2.640146    0.377924
     20          1           0       -1.395764    3.196809    1.131861
     21          1           0       -1.560750    2.916886   -0.603350
     22          6           0       -1.838404    1.126789    0.607050
     23          8           0       -2.834615    0.429782    0.797110
     24          7           0       -0.582775    0.643069    0.582621
     25          1           0        0.232377    1.233284    0.445134
     26          6           0       -0.300476   -0.759023    0.799974
     27          1           0       -0.794437   -1.109813    1.714781
     28          1           0       -0.687945   -1.371247   -0.025282
     29          6           0        1.217027   -0.926899    0.905027
     30          8           0        1.977130    0.028372    0.715588
     31          7           0        1.651417   -2.171778    1.193038
     32          1           0        0.980745   -2.888358    1.437443
     33          6           0        3.074813   -2.499032    1.291242
     34          1           0        3.598633   -1.971666    0.488122
     35          1           0        3.194984   -3.574030    1.157425
     36          6           0        3.664896   -2.132434    2.666642
     37          8           0        3.940086   -2.986390    3.494177
     38          7           0        3.838441   -0.786007    2.853605
     39          1           0        3.460526   -0.164959    2.143446
     40          6           0        4.224632   -0.231839    4.138904
     41          1           0        3.442497    0.417706    4.545933
     42          1           0        4.356023   -1.068718    4.831613
     43          6           0        5.518180    0.584701    4.135574
     44          8           0        5.767978    1.345228    5.071657
     45          7           0        6.345171    0.398359    3.080394
     46          1           0        6.114986   -0.330838    2.419424
     47          6           0        7.628400    1.082005    2.963651
     48          1           0        7.931279    1.092945    1.916117
     49          1           0        7.491977    2.111938    3.310776
     50          6           0        8.771271    0.427446    3.761770
     51          8           0        9.784290    0.019265    3.211099
     52          7           0        8.538223    0.348325    5.104103
     53          1           0        7.727452    0.840062    5.469995
     54          6           0        9.567811   -0.094825    6.011960
     55          1           0        9.141598   -0.682752    6.830575
     56          1           0       10.253573   -0.743737    5.459016
     57          6           0       10.413673    1.006655    6.643094
     58          8           0       11.205339    0.806256    7.534769
     59          8           0       10.192955    2.223924    6.096255
     60          1           0       10.798714    2.837736    6.553108
 ---------------------------------------------------------------------

 SCF Done:  E(RB3LYP) =  -1740.94041856     A.U. after    3 cycles

 Alpha  occ. eigenvalues --  -19.29313 -19.23713 -19.23132 -19.22426 -19.21751
 Alpha  occ. eigenvalues --  -19.18602 -19.17273 -19.16935 -19.15076 -14.62774
 Alpha  occ. eigenvalues --  -14.51751 -14.47269 -14.46655 -14.45842 -14.42946
 Alpha  occ. eigenvalues --  -14.42362 -14.39162 -10.46143 -10.43214 -10.40976
 Alpha  occ. eigenvalues --  -10.39483 -10.39051 -10.36277 -10.35960 -10.35327
 Alpha  occ. eigenvalues --  -10.34714 -10.33437 -10.32964 -10.32348 -10.31279
 Alpha  occ. eigenvalues --  -10.28954 -10.27690 -10.26764  -1.21786  -1.16428
 Alpha  occ. eigenvalues --   -1.15677  -1.14402  -1.13818  -1.13504  -1.10537
 Alpha  occ. eigenvalues --   -1.09247  -1.08275  -1.06869  -1.04751  -1.03775
 Alpha  occ. eigenvalues --   -1.02549  -1.02205  -0.99568  -0.97731  -0.95719
 Alpha  occ. eigenvalues --   -0.92719  -0.87769  -0.85744  -0.83189  -0.81164
 Alpha  occ. eigenvalues --   -0.79380  -0.77499  -0.76643  -0.76519  -0.74885
 Alpha  occ. eigenvalues --   -0.74301  -0.70843  -0.69424  -0.68819  -0.68386
 Alpha  occ. eigenvalues --   -0.65923  -0.65726  -0.65344  -0.64372  -0.64040
 Alpha  occ. eigenvalues --   -0.63197  -0.62071  -0.61539  -0.60737  -0.60179
 Alpha  occ. eigenvalues --   -0.59891  -0.58547  -0.58112  -0.57832  -0.56994
 Alpha  occ. eigenvalues --   -0.56708  -0.56525  -0.55844  -0.55321  -0.54386
 Alpha  occ. eigenvalues --   -0.53667  -0.53464  -0.52357  -0.51350  -0.51247
 Alpha  occ. eigenvalues --   -0.50743  -0.50511  -0.50000  -0.49454  -0.48932
 Alpha  occ. eigenvalues --   -0.48886  -0.48822  -0.48269  -0.47666  -0.46973
 Alpha  occ. eigenvalues --   -0.46203  -0.45543  -0.45317  -0.44698  -0.44388
 Alpha  occ. eigenvalues --   -0.44197  -0.43026  -0.42296  -0.41639  -0.41587
 Alpha  occ. eigenvalues --   -0.40742  -0.38369  -0.37411  -0.37186  -0.36725
 Alpha  occ. eigenvalues --   -0.35644  -0.35016  -0.34866  -0.33962  -0.32828
 Alpha  occ. eigenvalues --   -0.32332  -0.31793  -0.30372  -0.28419  -0.27868
 Alpha virt. eigenvalues --   -0.14350  -0.13894  -0.09234  -0.08382  -0.08233
 Alpha virt. eigenvalues --   -0.06941  -0.06904  -0.05239  -0.03836  -0.03444
 Alpha virt. eigenvalues --   -0.02521  -0.02090  -0.01258  -0.01079  -0.00620

 Mulliken charges:
               1
     1  N   -0.750164
     2  H    0.425196
     3  H    0.441179
     4  H    0.425249
     5  C   -0.277249
     6  H    0.250998
     7  H    0.250976
     8  C    0.640284
     9  O   -0.521694
    10  N   -0.604632
    11  H    0.381261
    12  C   -0.211662
    13  H    0.216814
    14  H    0.217013
    15  C    0.620528
    16  O   -0.531182
    17  N   -0.621646
    18  H    0.369245
    19  C   -0.199482
    20  H    0.203182
    21  H    0.204274
    22  C    0.612625
    23  O   -0.526409
    24  N   -0.623753
    25  H    0.364206
    26  C   -0.192804
    27  H    0.202082
    28  H    0.205176
    29  C    0.610022
    30  O   -0.542632
    31  N   -0.588478
    32  H    0.354540
    33  C   -0.241360
    34  H    0.196656
    35  H    0.200389
    36  C    0.581062
    37  O   -0.479998
    38  N   -0.626662
    39  H    0.368537
    40  C   -0.226794
    41  H    0.184216
    42  H    0.227765
    43  C    0.601667
    44  O   -0.536759
    45  N   -0.574267
    46  H    0.344357
    47  C   -0.242550
    48  H    0.181844
    49  H    0.197836
    50  C    0.594923
    51  O   -0.502192
    52  N   -0.589931
    53  H    0.369234
    54  C   -0.233589
    55  H    0.191520
    56  H    0.225834
    57  C    0.580726
    58  O   -0.452500
    59  O   -0.556994
    60  H    0.413967
 Sum of Mulliken charges =   1.00000

 Dipole moment (field-independent basis, Debye):
    X=            -34.5783    Y=             31.2448    Z=             -1.6545  Tot=             46.6329
 Quadrupole moment (field-independent basis, Debye-Ang):
   XX=            -17.7561   YY=             83.2759   ZZ=           -208.6774
   XY=           -243.3654   XZ=            -38.5980   YZ=             14.3753

 Normal termination of Gaussian 16 at Mon Jul 18 21:33:18 2022.
