 Gaussian 16, Revision C.01,
 Gaussian 16:  ES64L-G16RevC.01  3-Jul-2019

 ----------------------------------------------------------------------
 # B3LYP/6-31G* empiricaldispersion=gd3 guess=read geom=check nosymm in
 tegral(ultrafinegrid)
 ----------------------------------------------------------------------

 ------------------------------------------------------
 Candidate Structure: Conf:771 Charge calc in gas phase
 ------------------------------------------------------
 Structure from the checkpoint file:  "conf-771.chk"
 Charge =  1 Multiplicity = 1

                          Input orientation:
 ---------------------------------------------------------------------
 Center     Atomic      Atomic             Coordinates (Angstroms)
 Number     Number       Type             X           Y           Z
 ---------------------------------------------------------------------
      1          7           0        3.154257    2.882444    4.313403
      2          1           0        3.535682    2.652421    5.247428
      3          1           0        2.662627    2.029690    3.951827
      4          1           0        4.001303    3.013137    3.715283
      5          6           0        2.297545    4.102880    4.275814
      6          1           0        2.888278    4.941858    4.652425
      7          1           0        1.428913    3.947510    4.915141
      8          6           0        1.782545    4.382422    2.853631
      9          8           0        0.581550    4.268179    2.599105
     10          7           0        2.696090    4.795686    1.945346
     11          1           0        3.685587    4.591523    2.085156
     12          6           0        2.259580    5.137221    0.596047
     13          1           0        1.473457    5.894791    0.658894
     14          1           0        3.112654    5.563417    0.063390
     15          6           0        1.797792    3.884472   -0.153235
     16          8           0        2.556394    2.923786   -0.293628
     17          7           0        0.520845    3.868039   -0.598763
     18          1           0       -0.097315    4.628872   -0.351646
     19          6           0       -0.036114    2.644516   -1.159951
     20          1           0        0.530086    2.336357   -2.041363
     21          1           0       -1.068880    2.833594   -1.464237
     22          6           0        0.004834    1.459238   -0.184592
     23          8           0        0.050266    0.304637   -0.608060
     24          7           0       -0.015077    1.764373    1.136840
     25          1           0        0.028255    2.729578    1.451022
     26          6           0        0.134572    0.728785    2.145864
     27          1           0       -0.135913    1.147138    3.115939
     28          1           0       -0.537162   -0.103900    1.914576
     29          6           0        1.580563    0.219282    2.238758
     30          8           0        2.339409    0.534626    3.175437
     31          7           0        1.983983   -0.583007    1.238951
     32          1           0        1.334562   -0.712132    0.461372
     33          6           0        3.291896   -1.219725    1.234055
     34          1           0        3.329870   -1.910820    0.387419
     35          1           0        3.438135   -1.804894    2.145973
     36          6           0        4.505106   -0.290717    1.141009
     37          8           0        5.608755   -0.709128    1.513905
     38          7           0        4.318292    0.945815    0.637211
     39          1           0        3.402916    1.278499    0.349416
     40          6           0        5.408936    1.911933    0.561207
     41          1           0        6.279163    1.461633    0.074655
     42          1           0        5.054883    2.763006   -0.017837
     43          6           0        5.738393    2.374442    1.982125
     44          8           0        5.158306    3.350184    2.508374
     45          7           0        6.615798    1.609690    2.648817
     46          1           0        6.861304    0.734068    2.191010
     47          6           0        6.809049    1.724895    4.088665
     48          1           0        7.759114    1.250146    4.349886
     49          1           0        6.855276    2.778287    4.364296
     50          6           0        5.666147    1.092703    4.909146
     51          8           0        5.132471    1.731513    5.826391
     52          7           0        5.298934   -0.161503    4.583171
     53          1           0        5.641258   -0.610654    3.737657
     54          6           0        4.252325   -0.839594    5.337778
     55          1           0        4.366679   -0.617095    6.400236
     56          1           0        3.261936   -0.484288    5.026671
     57          6           0        4.247485   -2.346306    5.167007
     58          8           0        3.698435   -3.100446    5.928775
     59          8           0        4.872809   -2.740211    4.028199
     60          1           0        4.826601   -3.715283    3.994297
 ---------------------------------------------------------------------

 SCF Done:  E(RB3LYP) =  -1741.04009811     A.U. after    1 cycles

 Alpha  occ. eigenvalues --  -19.30230 -19.26675 -19.26257 -19.26146 -19.25211
 Alpha  occ. eigenvalues --  -19.23875 -19.23840 -19.23818 -19.23391 -14.55099
 Alpha  occ. eigenvalues --  -14.49869 -14.49758 -14.49672 -14.48972 -14.48266
 Alpha  occ. eigenvalues --  -14.48014 -14.47833 -10.43556 -10.42950 -10.42486
 Alpha  occ. eigenvalues --  -10.42411 -10.42254 -10.41216 -10.41097 -10.40721
 Alpha  occ. eigenvalues --  -10.38406 -10.36186 -10.35133 -10.35106 -10.35100
 Alpha  occ. eigenvalues --  -10.34878 -10.34853 -10.33788  -1.20769  -1.18330
 Alpha  occ. eigenvalues --   -1.17878  -1.17376  -1.17002  -1.15561  -1.15500
 Alpha  occ. eigenvalues --   -1.15164  -1.11857  -1.10880  -1.06282  -1.05981
 Alpha  occ. eigenvalues --   -1.05938  -1.05651  -1.04198  -1.03774  -1.03611
 Alpha  occ. eigenvalues --   -0.89852  -0.89317  -0.88096  -0.86466  -0.85193
 Alpha  occ. eigenvalues --   -0.83470  -0.82090  -0.80994  -0.74163  -0.73025
 Alpha  occ. eigenvalues --   -0.72787  -0.72563  -0.71780  -0.70813  -0.70538
 Alpha  occ. eigenvalues --   -0.70165  -0.69609  -0.69416  -0.66433  -0.66240
 Alpha  occ. eigenvalues --   -0.66015  -0.65663  -0.64669  -0.63654  -0.62785
 Alpha  occ. eigenvalues --   -0.62041  -0.61816  -0.61386  -0.60663  -0.59637
 Alpha  occ. eigenvalues --   -0.59287  -0.58529  -0.57950  -0.57650  -0.57310
 Alpha  occ. eigenvalues --   -0.56456  -0.56202  -0.55770  -0.55657  -0.55331
 Alpha  occ. eigenvalues --   -0.54804  -0.54262  -0.53813  -0.53673  -0.53422
 Alpha  occ. eigenvalues --   -0.52807  -0.52534  -0.52210  -0.52031  -0.51863
 Alpha  occ. eigenvalues --   -0.51594  -0.50912  -0.50459  -0.50231  -0.49836
 Alpha  occ. eigenvalues --   -0.49484  -0.48211  -0.48070  -0.47684  -0.42178
 Alpha  occ. eigenvalues --   -0.41915  -0.41771  -0.41244  -0.41019  -0.40801
 Alpha  occ. eigenvalues --   -0.40526  -0.39748  -0.38514  -0.38232  -0.37395
 Alpha  occ. eigenvalues --   -0.37090  -0.36921  -0.36692  -0.36510  -0.36456
 Alpha virt. eigenvalues --   -0.13931  -0.13026  -0.12255  -0.11835  -0.10735
 Alpha virt. eigenvalues --   -0.09959  -0.09326  -0.08866  -0.05013  -0.03671
 Alpha virt. eigenvalues --   -0.02728  -0.01452  -0.00748  -0.00386   0.00411

 Mulliken charges:
               1
     1  N   -0.833291
     2  H    0.431869
     3  H    0.431554
     4  H    0.436561
     5  C   -0.254828
     6  H    0.228875
     7  H    0.233102
     8  C    0.590167
     9  O   -0.522858
    10  N   -0.577616
    11  H    0.390339
    12  C   -0.239556
    13  H    0.194743
    14  H    0.208642
    15  C    0.613906
    16  O   -0.537411
    17  N   -0.584202
    18  H    0.361309
    19  C   -0.225637
    20  H    0.223440
    21  H    0.210427
    22  C    0.617016
    23  O   -0.533244
    24  N   -0.612074
    25  H    0.395921
    26  C   -0.235359
    27  H    0.189893
    28  H    0.214045
    29  C    0.598508
    30  O   -0.569028
    31  N   -0.587478
    32  H    0.400845
    33  C   -0.235313
    34  H    0.214241
    35  H    0.212491
    36  C    0.631792
    37  O   -0.555936
    38  N   -0.602862
    39  H    0.396897
    40  C   -0.222341
    41  H    0.202862
    42  H    0.204277
    43  C    0.600866
    44  O   -0.579609
    45  N   -0.547755
    46  H    0.383243
    47  C   -0.248063
    48  H    0.213938
    49  H    0.214742
    50  C    0.599361
    51  O   -0.558375
    52  N   -0.601910
    53  H    0.390124
    54  C   -0.220539
    55  H    0.227866
    56  H    0.212521
    57  C    0.572809
    58  O   -0.425775
    59  O   -0.569226
    60  H    0.431094
 Sum of Mulliken charges =   1.00000

 Dipole moment (field-independent basis, Debye):
    X=             14.6689    Y=             12.2580    Z=              9.1156  Tot=             21.1785
 Quadrupole moment (field-independent basis, Debye-Ang):
   XX=           -107.9505   YY=           -123.2316   ZZ=           -158.4871
   XY=             21.7430   XZ=             38.9003   YZ=             21.2363

 Normal termination of Gaussian 16 at Mon Jul 18 21:46:57 2022.
