 Gaussian 16, Revision C.01,
 Gaussian 16:  ES64L-G16RevC.01  3-Jul-2019

 ----------------------------------------------------------------------
 # B3LYP/6-31G* empiricaldispersion=gd3 guess=read geom=check nosymm in
 tegral(ultrafinegrid)
 ----------------------------------------------------------------------

 ------------------------------------------------------
 Candidate Structure: Conf:302 Charge calc in gas phase
 ------------------------------------------------------
 Structure from the checkpoint file:  "conf-302.chk"
 Charge =  1 Multiplicity = 1

                          Input orientation:
 ---------------------------------------------------------------------
 Center     Atomic      Atomic             Coordinates (Angstroms)
 Number     Number       Type             X           Y           Z
 ---------------------------------------------------------------------
      1          7           0        5.324041    5.976508   -3.986833
      2          1           0        5.687606    5.331381   -3.234306
      3          1           0        5.563759    5.467563   -4.870096
      4          1           0        5.845600    6.855891   -3.968954
      5          6           0        3.860984    6.180832   -3.809491
      6          1           0        3.519943    6.931788   -4.528124
      7          1           0        3.679873    6.548645   -2.796998
      8          6           0        3.150791    4.850151   -4.096044
      9          8           0        3.632947    4.070327   -4.921546
     10          7           0        1.999639    4.670374   -3.439469
     11          1           0        1.728810    5.265734   -2.659777
     12          6           0        1.209806    3.458864   -3.553652
     13          1           0        0.496821    3.527718   -4.384998
     14          1           0        1.865991    2.602603   -3.725640
     15          6           0        0.457091    3.269258   -2.235026
     16          8           0        0.456377    4.159288   -1.378310
     17          7           0       -0.201917    2.095707   -2.107085
     18          1           0        0.130669    1.328142   -2.681209
     19          6           0       -0.823015    1.720622   -0.834726
     20          1           0       -1.573515    0.951168   -1.016380
     21          1           0       -1.299309    2.607886   -0.411918
     22          6           0        0.245031    1.141227    0.101231
     23          8           0        0.355295   -0.070071    0.289171
     24          7           0        1.098767    2.060842    0.626732
     25          1           0        1.022979    3.020188    0.301101
     26          6           0        2.327049    1.642048    1.291935
     27          1           0        2.756694    2.494596    1.817808
     28          1           0        2.090641    0.851502    2.009320
     29          6           0        3.342697    1.156571    0.251802
     30          8           0        4.228856    1.919926   -0.158833
     31          7           0        3.162662   -0.114173   -0.170023
     32          1           0        2.265522   -0.530579    0.082730
     33          6           0        3.845451   -0.640499   -1.326822
     34          1           0        3.770679   -1.732429   -1.314258
     35          1           0        4.909315   -0.387451   -1.278453
     36          6           0        3.254507   -0.100857   -2.644680
     37          8           0        2.311215    0.689793   -2.656072
     38          7           0        3.846190   -0.580746   -3.763649
     39          1           0        4.703858   -1.116437   -3.685091
     40          6           0        3.574186   -0.045973   -5.088166
     41          1           0        3.261108   -0.848205   -5.767289
     42          1           0        2.758021    0.672910   -5.008445
     43          6           0        4.862449    0.564907   -5.635816
     44          8           0        5.930445   -0.039551   -5.491226
     45          7           0        4.757143    1.758025   -6.265202
     46          1           0        3.955266    2.346668   -6.061167
     47          6           0        5.943632    2.445380   -6.772248
     48          1           0        6.603083    1.702041   -7.228497
     49          1           0        5.642388    3.175182   -7.523410
     50          6           0        6.667297    3.193785   -5.646375
     51          8           0        6.741872    4.429383   -5.620775
     52          7           0        7.175013    2.400167   -4.676522
     53          1           0        7.039970    1.393237   -4.774217
     54          6           0        7.613418    2.932196   -3.395348
     55          1           0        8.388726    2.284181   -2.981003
     56          1           0        8.012539    3.935257   -3.545914
     57          6           0        6.422211    2.990680   -2.435486
     58          8           0        5.790227    4.020462   -2.198306
     59          8           0        6.117405    1.814967   -1.935997
     60          1           0        5.336460    1.877303   -1.283863
 ---------------------------------------------------------------------

 SCF Done:  E(RB3LYP) =  -1741.04252243     A.U. after    1 cycles

 Alpha  occ. eigenvalues --  -19.29493 -19.26454 -19.25735 -19.24163 -19.24118
 Alpha  occ. eigenvalues --  -19.24036 -19.23858 -19.23759 -19.22015 -14.55883
 Alpha  occ. eigenvalues --  -14.49404 -14.48061 -14.47973 -14.47886 -14.47516
 Alpha  occ. eigenvalues --  -14.46771 -14.46170 -10.44251 -10.43243 -10.41104
 Alpha  occ. eigenvalues --  -10.40953 -10.40897 -10.40823 -10.40261 -10.38949
 Alpha  occ. eigenvalues --  -10.38885 -10.34688 -10.34541 -10.34496 -10.34339
 Alpha  occ. eigenvalues --  -10.34013 -10.32950 -10.32919  -1.21665  -1.17754
 Alpha  occ. eigenvalues --   -1.16213  -1.15976  -1.15707  -1.15264  -1.14853
 Alpha  occ. eigenvalues --   -1.13607  -1.12890  -1.10949  -1.05813  -1.04725
 Alpha  occ. eigenvalues --   -1.04216  -1.03885  -1.03735  -1.03648  -1.02137
 Alpha  occ. eigenvalues --   -0.89636  -0.88683  -0.87227  -0.85950  -0.84592
 Alpha  occ. eigenvalues --   -0.82647  -0.80796  -0.79114  -0.73806  -0.72717
 Alpha  occ. eigenvalues --   -0.71666  -0.71487  -0.70723  -0.70215  -0.69779
 Alpha  occ. eigenvalues --   -0.69429  -0.69142  -0.67976  -0.66257  -0.65719
 Alpha  occ. eigenvalues --   -0.64752  -0.63847  -0.63226  -0.62384  -0.61960
 Alpha  occ. eigenvalues --   -0.61112  -0.60752  -0.60181  -0.59821  -0.59468
 Alpha  occ. eigenvalues --   -0.58921  -0.58690  -0.58519  -0.57589  -0.57231
 Alpha  occ. eigenvalues --   -0.56716  -0.56182  -0.55908  -0.54946  -0.54402
 Alpha  occ. eigenvalues --   -0.53754  -0.53627  -0.53320  -0.52729  -0.52243
 Alpha  occ. eigenvalues --   -0.51843  -0.51595  -0.51237  -0.50841  -0.50627
 Alpha  occ. eigenvalues --   -0.50359  -0.49577  -0.49341  -0.49068  -0.48337
 Alpha  occ. eigenvalues --   -0.48272  -0.47843  -0.47485  -0.47179  -0.43193
 Alpha  occ. eigenvalues --   -0.41564  -0.40447  -0.39826  -0.39531  -0.39270
 Alpha  occ. eigenvalues --   -0.39068  -0.38682  -0.38633  -0.37739  -0.37020
 Alpha  occ. eigenvalues --   -0.36867  -0.36648  -0.36247  -0.35093  -0.34677
 Alpha virt. eigenvalues --   -0.12517  -0.12014  -0.10751  -0.10345  -0.09605
 Alpha virt. eigenvalues --   -0.09391  -0.08836  -0.07624  -0.06689  -0.03122
 Alpha virt. eigenvalues --   -0.02673  -0.01678  -0.00194   0.00363   0.01034

 Mulliken charges:
               1
     1  N   -0.779688
     2  H    0.440806
     3  H    0.448583
     4  H    0.399025
     5  C   -0.272518
     6  H    0.235993
     7  H    0.216902
     8  C    0.647258
     9  O   -0.546454
    10  N   -0.594473
    11  H    0.369850
    12  C   -0.234830
    13  H    0.205897
    14  H    0.229553
    15  C    0.615994
    16  O   -0.543743
    17  N   -0.573611
    18  H    0.365857
    19  C   -0.244415
    20  H    0.204134
    21  H    0.210120
    22  C    0.605410
    23  O   -0.523203
    24  N   -0.580278
    25  H    0.375185
    26  C   -0.237888
    27  H    0.198283
    28  H    0.207490
    29  C    0.614006
    30  O   -0.555778
    31  N   -0.553988
    32  H    0.390745
    33  C   -0.274151
    34  H    0.209488
    35  H    0.209665
    36  C    0.614458
    37  O   -0.538015
    38  N   -0.574675
    39  H    0.359947
    40  C   -0.230161
    41  H    0.212883
    42  H    0.190319
    43  C    0.609622
    44  O   -0.537875
    45  N   -0.581412
    46  H    0.374328
    47  C   -0.243597
    48  H    0.218693
    49  H    0.201100
    50  C    0.618945
    51  O   -0.569855
    52  N   -0.579679
    53  H    0.393017
    54  C   -0.215286
    55  H    0.208087
    56  H    0.197566
    57  C    0.611230
    58  O   -0.516541
    59  O   -0.586508
    60  H    0.478185
 Sum of Mulliken charges =   1.00000

 Dipole moment (field-independent basis, Debye):
    X=             18.7113    Y=             16.5390    Z=            -16.5736  Tot=             29.9723
 Quadrupole moment (field-independent basis, Debye-Ang):
   XX=            -85.6715   YY=            -82.6325   ZZ=           -108.5554
   XY=             71.3927   XZ=            -67.2756   YZ=            -62.5175

 Normal termination of Gaussian 16 at Mon Jul 18 21:40:06 2022.
