 Gaussian 16, Revision C.01,
 Gaussian 16:  ES64L-G16RevC.01  3-Jul-2019

 ----------------------------------------------------------------------
 # B3LYP/6-31G* empiricaldispersion=gd3 guess=read geom=check nosymm in
 tegral(ultrafinegrid)
 ----------------------------------------------------------------------

 ------------------------------------------------------
 Candidate Structure: Conf:510 Charge calc in gas phase
 ------------------------------------------------------
 Structure from the checkpoint file:  "conf-510.chk"
 Charge =  1 Multiplicity = 1

                          Input orientation:
 ---------------------------------------------------------------------
 Center     Atomic      Atomic             Coordinates (Angstroms)
 Number     Number       Type             X           Y           Z
 ---------------------------------------------------------------------
      1          7           0        1.787107    0.027291   -3.851305
      2          1           0        1.781297   -0.819789   -4.496422
      3          1           0        1.805213   -0.267141   -2.863011
      4          1           0        0.904685    0.565788   -3.932067
      5          6           0        2.955706    0.912273   -4.164537
      6          1           0        2.871519    1.222070   -5.208797
      7          1           0        3.873543    0.339554   -4.045155
      8          6           0        2.861165    2.066639   -3.163735
      9          8           0        3.328091    1.968761   -2.034448
     10          7           0        2.085100    3.113984   -3.583246
     11          1           0        1.712881    3.015222   -4.520804
     12          6           0        1.129680    3.712066   -2.667328
     13          1           0        1.524768    3.622106   -1.652083
     14          1           0        0.989506    4.775650   -2.888416
     15          6           0       -0.202087    2.937064   -2.798153
     16          8           0       -0.307793    1.981028   -3.567492
     17          7           0       -1.235667    3.339076   -2.022521
     18          1           0       -1.172149    4.205378   -1.504126
     19          6           0       -2.498961    2.596536   -2.061059
     20          1           0       -2.851639    2.492527   -3.088516
     21          1           0       -3.240652    3.152687   -1.481036
     22          6           0       -2.351433    1.167849   -1.497963
     23          8           0       -2.863620    0.206986   -2.038169
     24          7           0       -1.645012    1.100046   -0.318633
     25          1           0       -1.141998    1.937382   -0.055046
     26          6           0       -1.071662   -0.151568    0.134061
     27          1           0       -1.257185   -0.303577    1.203262
     28          1           0       -1.569910   -0.952649   -0.421120
     29          6           0        0.423735   -0.156551   -0.192986
     30          8           0        0.830837    0.236056   -1.293243
     31          7           0        1.282219   -0.514590    0.782721
     32          1           0        0.943865   -0.910860    1.648176
     33          6           0        2.710478   -0.372416    0.561334
     34          1           0        3.227580   -0.574379    1.503335
     35          1           0        2.922117    0.658075    0.260001
     36          6           0        3.249175   -1.361239   -0.477021
     37          8           0        2.947260   -2.554286   -0.450775
     38          7           0        4.119772   -0.827511   -1.370129
     39          1           0        4.166509    0.184724   -1.468559
     40          6           0        4.973263   -1.660713   -2.208188
     41          1           0        5.839879   -1.076880   -2.520908
     42          1           0        5.320830   -2.509931   -1.608021
     43          6           0        4.321688   -2.214496   -3.485290
     44          8           0        4.826725   -2.044169   -4.590005
     45          7           0        3.155089   -2.901201   -3.302826
     46          1           0        2.893126   -3.114644   -2.339225
     47          6           0        2.650150   -3.743740   -4.373506
     48          1           0        3.321908   -4.593458   -4.551707
     49          1           0        1.680170   -4.142744   -4.059577
     50          6           0        2.426195   -2.976152   -5.677966
     51          8           0        1.903088   -1.848811   -5.716616
     52          7           0        2.740419   -3.634813   -6.797808
     53          1           0        3.233001   -4.521889   -6.776008
     54          6           0        2.560073   -3.051669   -8.111811
     55          1           0        1.502339   -2.851927   -8.316906
     56          1           0        3.087222   -2.093617   -8.192171
     57          6           0        3.108284   -4.020889   -9.143265
     58          8           0        3.624971   -5.082037   -8.869809
     59          8           0        2.946123   -3.543060  -10.384886
     60          1           0        3.316802   -4.199075  -11.006261
 ---------------------------------------------------------------------

 SCF Done:  E(RB3LYP) =  -1741.00813764     A.U. after    3 cycles

 Alpha  occ. eigenvalues --  -19.29228 -19.26066 -19.25219 -19.24173 -19.23940
 Alpha  occ. eigenvalues --  -19.23646 -19.23068 -19.22489 -19.21400 -14.52778
 Alpha  occ. eigenvalues --  -14.49481 -14.49162 -14.48876 -14.47371 -14.47232
 Alpha  occ. eigenvalues --  -14.46353 -14.46343 -10.42859 -10.42186 -10.42105
 Alpha  occ. eigenvalues --  -10.41077 -10.40632 -10.40188 -10.39294 -10.38823
 Alpha  occ. eigenvalues --  -10.36968 -10.35979 -10.34482 -10.34157 -10.33934
 Alpha  occ. eigenvalues --  -10.33786 -10.33614 -10.33519  -1.20380  -1.17929
 Alpha  occ. eigenvalues --   -1.16827  -1.16237  -1.15502  -1.14815  -1.13897
 Alpha  occ. eigenvalues --   -1.13365  -1.11654  -1.08702  -1.05802  -1.05243
 Alpha  occ. eigenvalues --   -1.04548  -1.03650  -1.03558  -1.02502  -1.02456
 Alpha  occ. eigenvalues --   -0.88789  -0.88158  -0.87100  -0.85621  -0.84124
 Alpha  occ. eigenvalues --   -0.82351  -0.80871  -0.79365  -0.72967  -0.72620
 Alpha  occ. eigenvalues --   -0.72062  -0.71524  -0.70487  -0.69719  -0.68862
 Alpha  occ. eigenvalues --   -0.68503  -0.68333  -0.67590  -0.65749  -0.65379
 Alpha  occ. eigenvalues --   -0.64115  -0.63093  -0.62954  -0.61594  -0.61186
 Alpha  occ. eigenvalues --   -0.60326  -0.60138  -0.59703  -0.58964  -0.58880
 Alpha  occ. eigenvalues --   -0.58648  -0.58229  -0.57955  -0.57359  -0.56290
 Alpha  occ. eigenvalues --   -0.55812  -0.55704  -0.55064  -0.54737  -0.54251
 Alpha  occ. eigenvalues --   -0.54078  -0.53717  -0.52894  -0.52412  -0.52197
 Alpha  occ. eigenvalues --   -0.51797  -0.51598  -0.51216  -0.51114  -0.50372
 Alpha  occ. eigenvalues --   -0.50213  -0.49835  -0.48990  -0.48603  -0.48408
 Alpha  occ. eigenvalues --   -0.48130  -0.47381  -0.46631  -0.46065  -0.41478
 Alpha  occ. eigenvalues --   -0.40449  -0.39918  -0.39619  -0.39199  -0.38932
 Alpha  occ. eigenvalues --   -0.38800  -0.38506  -0.38475  -0.37604  -0.36999
 Alpha  occ. eigenvalues --   -0.36699  -0.36200  -0.35624  -0.34749  -0.34594
 Alpha virt. eigenvalues --   -0.13154  -0.11124  -0.10716  -0.09948  -0.09160
 Alpha virt. eigenvalues --   -0.08795  -0.08229  -0.07719  -0.04655  -0.04208
 Alpha virt. eigenvalues --   -0.03003  -0.01355  -0.00791  -0.00330   0.00091

 Mulliken charges:
               1
     1  N   -0.817192
     2  H    0.458856
     3  H    0.423893
     4  H    0.432403
     5  C   -0.273121
     6  H    0.210658
     7  H    0.228436
     8  C    0.601082
     9  O   -0.490183
    10  N   -0.533725
    11  H    0.346073
    12  C   -0.264604
    13  H    0.222888
    14  H    0.206469
    15  C    0.634892
    16  O   -0.527692
    17  N   -0.614791
    18  H    0.351819
    19  C   -0.235721
    20  H    0.222807
    21  H    0.198492
    22  C    0.608643
    23  O   -0.476070
    24  N   -0.559946
    25  H    0.322580
    26  C   -0.231920
    27  H    0.173187
    28  H    0.234227
    29  C    0.607113
    30  O   -0.561848
    31  N   -0.562851
    32  H    0.358139
    33  C   -0.247261
    34  H    0.205132
    35  H    0.202766
    36  C    0.614891
    37  O   -0.527437
    38  N   -0.618661
    39  H    0.384880
    40  C   -0.244315
    41  H    0.199907
    42  H    0.211817
    43  C    0.573467
    44  O   -0.504456
    45  N   -0.614347
    46  H    0.385610
    47  C   -0.229171
    48  H    0.185010
    49  H    0.203794
    50  C    0.683599
    51  O   -0.585085
    52  N   -0.599394
    53  H    0.371428
    54  C   -0.184236
    55  H    0.216823
    56  H    0.215937
    57  C    0.574705
    58  O   -0.449247
    59  O   -0.552483
    60  H    0.433333
 Sum of Mulliken charges =   1.00000

 Dipole moment (field-independent basis, Debye):
    X=              7.7660    Y=              3.3167    Z=            -12.9870  Tot=             15.4910
 Quadrupole moment (field-independent basis, Debye-Ang):
   XX=           -167.2289   YY=           -133.0031   ZZ=            -74.0593
   XY=            -18.9074   XZ=            -36.5184   YZ=             16.3977

 Normal termination of Gaussian 16 at Mon Jul 18 21:40:24 2022.
