 Gaussian 16, Revision C.01,
 Gaussian 16:  ES64L-G16RevC.01  3-Jul-2019

 ----------------------------------------------------------------------
 # B3LYP/6-31G* empiricaldispersion=gd3 guess=read geom=check nosymm in
 tegral(ultrafinegrid)
 ----------------------------------------------------------------------

 ------------------------------------------------------
 Candidate Structure: Conf:472 Charge calc in gas phase
 ------------------------------------------------------
 Structure from the checkpoint file:  "conf-472.chk"
 Charge =  1 Multiplicity = 1

                          Input orientation:
 ---------------------------------------------------------------------
 Center     Atomic      Atomic             Coordinates (Angstroms)
 Number     Number       Type             X           Y           Z
 ---------------------------------------------------------------------
      1          7           0       -1.936157    8.850177    1.482605
      2          1           0       -2.664159    9.294157    0.913718
      3          1           0       -1.329115    8.193810    0.871608
      4          1           0       -2.399569    8.249955    2.174524
      5          6           0       -1.046213    9.857833    2.192650
      6          1           0       -1.590735   10.292962    3.029957
      7          1           0       -0.774466   10.629908    1.469499
      8          6           0        0.131499    8.995198    2.668024
      9          8           0        0.065728    8.423540    3.749331
     10          7           0        1.057558    8.766294    1.704272
     11          1           0        0.998597    9.326764    0.863082
     12          6           0        1.612626    7.439964    1.523184
     13          1           0        2.664349    7.491933    1.238822
     14          1           0        1.563090    6.893971    2.463086
     15          6           0        0.764645    6.683804    0.490363
     16          8           0       -0.369764    7.093618    0.154367
     17          7           0        1.323722    5.581738   -0.015663
     18          1           0        2.212908    5.291450    0.380568
     19          6           0        0.700080    4.739002   -1.028520
     20          1           0        1.300768    4.751856   -1.942841
     21          1           0       -0.274868    5.168146   -1.267454
     22          6           0        0.493991    3.263216   -0.669731
     23          8           0        0.157696    2.495788   -1.557721
     24          7           0        0.643812    2.888946    0.638092
     25          1           0        1.155046    3.498198    1.272855
     26          6           0        0.666082    1.470449    0.924318
     27          1           0        0.369865    1.299221    1.966051
     28          1           0       -0.063771    0.975455    0.279073
     29          6           0        2.066548    0.871406    0.713808
     30          8           0        3.059477    1.601222    0.600712
     31          7           0        2.157372   -0.475209    0.738987
     32          1           0        1.335210   -1.026760    0.946517
     33          6           0        3.460440   -1.144996    0.771261
     34          1           0        4.082288   -0.736576   -0.029415
     35          1           0        3.302282   -2.209527    0.595080
     36          6           0        4.088643   -0.974794    2.167608
     37          8           0        3.683985   -1.617128    3.123037
     38          7           0        5.063548   -0.013354    2.253811
     39          1           0        5.206399    0.575577    1.443101
     40          6           0        5.514901    0.474126    3.545196
     41          1           0        5.517013   -0.363277    4.247973
     42          1           0        6.537403    0.853732    3.472414
     43          6           0        4.636078    1.570217    4.168060
     44          8           0        4.945252    2.115861    5.226086
     45          7           0        3.488856    1.853052    3.492281
     46          1           0        3.434937    1.632231    2.503621
     47          6           0        2.551051    2.833812    3.999008
     48          1           0        1.559080    2.635809    3.588057
     49          1           0        2.507644    2.741425    5.087231
     50          6           0        2.967539    4.241806    3.584194
     51          8           0        2.491160    4.793042    2.576747
     52          7           0        3.908100    4.797896    4.369665
     53          1           0        4.320713    4.203971    5.085838
     54          6           0        4.439570    6.122692    4.127381
     55          1           0        5.199213    6.334980    4.885102
     56          1           0        4.922420    6.191708    3.147172
     57          6           0        3.398037    7.239924    4.168587
     58          8           0        3.564396    8.299785    3.602825
     59          8           0        2.294552    6.917186    4.859685
     60          1           0        1.633395    7.632895    4.727925
 ---------------------------------------------------------------------

 SCF Done:  E(RB3LYP) =  -1740.97661110     A.U. after    1 cycles

 Alpha  occ. eigenvalues --  -19.28375 -19.28106 -19.27138 -19.23300 -19.22991
 Alpha  occ. eigenvalues --  -19.22357 -19.20638 -19.20432 -19.19598 -14.61092
 Alpha  occ. eigenvalues --  -14.51244 -14.49728 -14.46905 -14.46588 -14.45481
 Alpha  occ. eigenvalues --  -14.44790 -14.44651 -10.45290 -10.43325 -10.41708
 Alpha  occ. eigenvalues --  -10.41545 -10.39566 -10.39362 -10.38462 -10.37553
 Alpha  occ. eigenvalues --  -10.37056 -10.35729 -10.33676 -10.33466 -10.32912
 Alpha  occ. eigenvalues --  -10.32553 -10.32071 -10.31011  -1.20273  -1.19540
 Alpha  occ. eigenvalues --   -1.17909  -1.15155  -1.14474  -1.14290  -1.12853
 Alpha  occ. eigenvalues --   -1.12279  -1.11525  -1.10640  -1.07892  -1.06050
 Alpha  occ. eigenvalues --   -1.03148  -1.02602  -1.01949  -1.01594  -1.00069
 Alpha  occ. eigenvalues --   -0.91609  -0.87929  -0.86374  -0.85354  -0.83417
 Alpha  occ. eigenvalues --   -0.82012  -0.79949  -0.77850  -0.75905  -0.74271
 Alpha  occ. eigenvalues --   -0.73648  -0.72264  -0.71646  -0.70020  -0.68734
 Alpha  occ. eigenvalues --   -0.68214  -0.67685  -0.67464  -0.66660  -0.66157
 Alpha  occ. eigenvalues --   -0.64287  -0.64032  -0.63313  -0.62370  -0.62291
 Alpha  occ. eigenvalues --   -0.61528  -0.60204  -0.59970  -0.58958  -0.58412
 Alpha  occ. eigenvalues --   -0.57727  -0.57430  -0.56900  -0.56789  -0.56515
 Alpha  occ. eigenvalues --   -0.55901  -0.55270  -0.55104  -0.54441  -0.53808
 Alpha  occ. eigenvalues --   -0.53074  -0.52747  -0.52553  -0.52294  -0.51968
 Alpha  occ. eigenvalues --   -0.51289  -0.50950  -0.50466  -0.50168  -0.49142
 Alpha  occ. eigenvalues --   -0.49016  -0.48615  -0.48249  -0.47695  -0.47121
 Alpha  occ. eigenvalues --   -0.46133  -0.45826  -0.45430  -0.44668  -0.42296
 Alpha  occ. eigenvalues --   -0.41530  -0.40973  -0.40485  -0.39975  -0.38280
 Alpha  occ. eigenvalues --   -0.38125  -0.37722  -0.37071  -0.36190  -0.35486
 Alpha  occ. eigenvalues --   -0.35412  -0.34158  -0.33998  -0.32862  -0.32337
 Alpha virt. eigenvalues --   -0.16277  -0.11926  -0.10550  -0.09488  -0.08641
 Alpha virt. eigenvalues --   -0.08479  -0.07148  -0.06811  -0.06477  -0.06215
 Alpha virt. eigenvalues --   -0.05862  -0.02694  -0.02077  -0.01549  -0.00333

 Mulliken charges:
               1
     1  N   -0.769782
     2  H    0.418403
     3  H    0.453233
     4  H    0.420996
     5  C   -0.266067
     6  H    0.248354
     7  H    0.228114
     8  C    0.582026
     9  O   -0.481631
    10  N   -0.521817
    11  H    0.345763
    12  C   -0.275844
    13  H    0.218687
    14  H    0.256711
    15  C    0.628938
    16  O   -0.584261
    17  N   -0.588775
    18  H    0.380197
    19  C   -0.233416
    20  H    0.214620
    21  H    0.224578
    22  C    0.597856
    23  O   -0.494433
    24  N   -0.601988
    25  H    0.361101
    26  C   -0.266415
    27  H    0.190523
    28  H    0.220529
    29  C    0.618211
    30  O   -0.551316
    31  N   -0.561281
    32  H    0.356093
    33  C   -0.230653
    34  H    0.190307
    35  H    0.201459
    36  C    0.579967
    37  O   -0.484808
    38  N   -0.594937
    39  H    0.347847
    40  C   -0.228839
    41  H    0.235702
    42  H    0.194870
    43  C    0.593039
    44  O   -0.526485
    45  N   -0.617225
    46  H    0.394941
    47  C   -0.245230
    48  H    0.166232
    49  H    0.208547
    50  C    0.625325
    51  O   -0.576447
    52  N   -0.568650
    53  H    0.385678
    54  C   -0.220035
    55  H    0.213502
    56  H    0.198917
    57  C    0.591035
    58  O   -0.472823
    59  O   -0.571271
    60  H    0.442129
 Sum of Mulliken charges =   1.00000

 Dipole moment (field-independent basis, Debye):
    X=             -0.1738    Y=             34.2700    Z=              6.3237  Tot=             34.8490
 Quadrupole moment (field-independent basis, Debye-Ang):
   XX=           -142.4907   YY=            120.6130   ZZ=           -189.6124
   XY=            -39.0062   XZ=             -8.2072   YZ=             51.0530

 Normal termination of Gaussian 16 at Mon Jul 18 21:40:03 2022.
