 Gaussian 16, Revision C.01,
 Gaussian 16:  ES64L-G16RevC.01  3-Jul-2019

 -------------------------------------------------------------------
 # B3LYP/6-31G* guess=read geom=check nosymm integral(ultrafinegrid)
 -------------------------------------------------------------------

 ------------------------------------------------------
 Candidate Structure: Conf:549 Charge calc in gas phase
 ------------------------------------------------------
 Structure from the checkpoint file:  "conf-549.chk"
 Charge =  1 Multiplicity = 1

                          Input orientation:
 ---------------------------------------------------------------------
 Center     Atomic      Atomic             Coordinates (Angstroms)
 Number     Number       Type             X           Y           Z
 ---------------------------------------------------------------------
      1          7           0       -6.954651   -2.277354   -9.901491
      2          1           0       -7.522165   -1.646011   -9.259306
      3          1           0       -7.544183   -2.934658  -10.414496
      4          1           0       -6.413075   -1.681455  -10.548774
      5          6           0       -5.981570   -2.907159   -8.939339
      6          1           0       -6.265344   -3.950473   -8.781252
      7          6           0       -6.222039   -2.095502   -7.626814
      8          6           0       -4.555098   -2.809050   -9.527644
      9          1           0       -3.841172   -2.885110   -8.697209
     10          8           0       -7.152205   -1.277026   -7.628433
     11          6           0       -4.251888   -3.890106  -10.564036
     12          1           0       -4.293095   -4.888395  -10.115304
     13          1           0       -4.953098   -3.854007  -11.405985
     14          1           0       -3.242027   -3.753959  -10.965806
     15          8           0       -4.515501   -1.495225  -10.087813
     16          1           0       -3.647619   -1.335492  -10.491124
     17          7           0       -5.430298   -2.393252   -6.605906
     18          1           0       -4.604133   -2.983091   -6.724566
     19          6           0       -5.345809   -1.652463   -5.340074
     20          1           0       -5.807658   -0.671253   -5.487390
     21          6           0       -3.814912   -1.530670   -5.124977
     22          6           0       -6.058888   -2.399877   -4.168782
     23          1           0       -5.502941   -3.335561   -4.007104
     24          8           0       -3.071375   -2.387701   -5.623149
     25          6           0       -7.510250   -2.765047   -4.550351
     26          1           0       -7.501835   -3.310652   -5.501568
     27          1           0       -8.078924   -1.842297   -4.729500
     28          6           0       -6.009185   -1.569929   -2.875372
     29          1           0       -6.545209   -0.619398   -2.996547
     30          1           0       -4.990358   -1.344542   -2.552211
     31          1           0       -6.487694   -2.112227   -2.056307
     32          6           0       -8.235158   -3.629173   -3.510841
     33          1           0       -9.214558   -3.939292   -3.890635
     34          1           0       -8.406361   -3.094915   -2.571645
     35          1           0       -7.665207   -4.537674   -3.280642
     36          7           0       -3.382663   -0.484831   -4.410569
     37          1           0       -4.025010    0.150553   -3.938016
     38          6           0       -2.002226   -0.325516   -3.964449
     39          1           0       -1.598444   -1.317082   -3.730649
     40          6           0       -2.093825    0.519142   -2.673482
     41          6           0       -1.121008    0.337937   -5.035351
     42          1           0       -0.089133    0.438874   -4.684119
     43          1           0       -1.500637    1.334296   -5.283936
     44          1           0       -1.117812   -0.278397   -5.938677
     45          8           0       -3.151314    1.080937   -2.372548
     46          7           0       -0.968151    0.598170   -1.945387
     47          1           0       -0.116524    0.104735   -2.198622
     48          6           0       -0.882907    1.319790   -0.680794
     49          1           0       -1.400262    2.279297   -0.791524
     50          6           0        0.623547    1.517857   -0.427907
     51          6           0       -1.530919    0.506043    0.471488
     52          1           0       -0.867345   -0.334499    0.709932
     53          1           0       -2.468505    0.081903    0.103436
     54          8           0        1.437827    0.739586   -0.925084
     55          6           0       -1.826896    1.332040    1.733856
     56          1           0       -0.972527    1.948121    2.016572
     57          1           0       -2.684145    1.990192    1.547037
     58          6           0       -2.187018    0.409457    2.898277
     59          7           0       -1.350517    0.513559    3.969067
     60          1           0       -0.502075    1.066905    3.929911
     61          1           0       -1.496954   -0.114316    4.747388
     62          8           0       -3.138900   -0.359960    2.851945
     63          7           0        0.970922    2.559987    0.369658
     64          1           0        0.235200    3.088394    0.819852
     65          6           0        2.292493    2.677525    0.964030
     66          1           0        2.895071    1.882253    0.514415
     67          6           0        2.188138    2.407092    2.486096
     68          6           0        2.953407    4.043665    0.623874
     69          1           0        3.005542    4.101403   -0.469199
     70          1           0        3.989695    4.032156    0.981352
     71          8           0        1.103462    2.191428    3.034283
     72          6           0        2.231632    5.252718    1.180483
     73          6           0        1.160601    5.839317    0.487215
     74          1           0        0.869639    5.440290   -0.481867
     75          6           0        2.603888    5.815430    2.408638
     76          1           0        3.444596    5.398653    2.958477
     77          6           0        0.470231    6.932299    1.002407
     78          1           0       -0.353759    7.386556    0.461263
     79          6           0        1.922729    6.911793    2.936338
     80          1           0        2.230755    7.336125    3.890367
     81          8           0        0.139896    8.543919    2.697199
     82          1           0        0.495871    8.816842    3.557188
     83          6           0        0.848298    7.471251    2.237090
     84          7           0        3.360917    2.407923    3.150118
     85          1           0        4.214792    2.749834    2.716632
     86          6           0        3.452601    2.331387    4.601218
     87          1           0        2.558873    2.803808    5.024788
     88          6           0        4.697588    3.156744    4.993910
     89          6           0        3.531726    0.876531    5.095047
     90          1           0        3.570202    0.826840    6.188042
     91          1           0        2.646688    0.329796    4.757401
     92          1           0        4.422076    0.380297    4.695039
     93          8           0        5.442588    3.627353    4.120834
     94          7           0        4.894723    3.321867    6.308811
     95          1           0        4.353396    2.827397    7.020826
     96          6           0        6.094504    3.916219    6.878495
     97          1           0        6.967182    3.443057    6.406802
     98          6           0        6.108617    3.495762    8.388854
     99          6           0        6.179420    5.455884    6.625960
    100          1           0        6.077367    6.000272    7.573597
    101          1           0        5.312715    5.730137    6.019571
    102          8           0        7.103748    3.943177    9.068123
    103          6           0        7.445909    5.920111    5.870246
    104          1           0        7.218870    6.831331    5.303488
    105          1           0        7.711786    5.155481    5.131677
    106          6           0        8.663780    6.251380    6.754103
    107          1           0        8.498659    7.205724    7.271743
    108          1           0        9.551453    6.375479    6.120680
    109          7           0        8.889138    5.217881    7.756013
    110          1           0        8.024766    4.805339    8.279902
    111          7           0       11.243931    5.066754    7.745044
    112          1           0       11.995944    4.393158    7.706598
    113          1           0       11.319611    5.846553    7.109335
    114          7           0        9.930749    3.526998    8.896996
    115          1           0       10.684325    3.351716    9.547687
    116          1           0        8.983746    3.296737    9.217986
    117          6           0       10.009301    4.632369    8.112699
    118          8           0        5.197509    2.768288    8.792803
 ---------------------------------------------------------------------

 SCF Done:  E(RB3LYP) =  -2837.64679927     A.U. after    1 cycles

 Alpha  occ. eigenvalues --  -19.30114 -19.25966 -19.22082 -19.20891 -19.18701
 Alpha  occ. eigenvalues --  -19.17882 -19.17344 -19.16299 -19.13417 -19.13053
 Alpha  occ. eigenvalues --  -19.12334 -14.58455 -14.48390 -14.45209 -14.44327
 Alpha  occ. eigenvalues --  -14.42766 -14.42464 -14.42108 -14.41981 -14.40688
 Alpha  occ. eigenvalues --  -14.39139 -14.37519 -10.42814 -10.40275 -10.39980
 Alpha  occ. eigenvalues --  -10.39671 -10.37919 -10.35770 -10.34990 -10.34262
 Alpha  occ. eigenvalues --  -10.33255 -10.33021 -10.31473 -10.31158 -10.31051
 Alpha  occ. eigenvalues --  -10.30774 -10.29459 -10.29421 -10.29318 -10.28963
 Alpha  occ. eigenvalues --  -10.28081 -10.28051 -10.26000 -10.25861 -10.25626
 Alpha  occ. eigenvalues --  -10.24824 -10.24638 -10.24218 -10.24168 -10.23821
 Alpha  occ. eigenvalues --  -10.23720 -10.23607 -10.23506 -10.23370 -10.23218
 Alpha  occ. eigenvalues --  -10.22920 -10.22697 -10.22426  -1.18941  -1.17168
 Alpha  occ. eigenvalues --   -1.12918  -1.12226  -1.10704  -1.10148  -1.09802
 Alpha  occ. eigenvalues --   -1.08911  -1.08692  -1.07704  -1.06054  -1.05138
 Alpha  occ. eigenvalues --   -1.04868  -1.00918  -0.99067  -0.98769  -0.98460
 Alpha  occ. eigenvalues --   -0.97479  -0.97302  -0.96646  -0.95615  -0.92971
 Alpha  occ. eigenvalues --   -0.92248  -0.89814  -0.89646  -0.86092  -0.85676
 Alpha  occ. eigenvalues --   -0.84774  -0.84369  -0.83154  -0.81619  -0.81504
 Alpha  occ. eigenvalues --   -0.79165  -0.78564  -0.78512  -0.77947  -0.76608
 Alpha  occ. eigenvalues --   -0.76404  -0.73681  -0.73611  -0.72882  -0.72367
 Alpha  occ. eigenvalues --   -0.71499  -0.71389  -0.70399  -0.69869  -0.69382
 Alpha  occ. eigenvalues --   -0.68231  -0.66616  -0.66542  -0.66271  -0.65781
 Alpha  occ. eigenvalues --   -0.65417  -0.65282  -0.65150  -0.63963  -0.63835
 Alpha  occ. eigenvalues --   -0.63566  -0.62725  -0.61839  -0.61618  -0.61473
 Alpha  occ. eigenvalues --   -0.61177  -0.60378  -0.59659  -0.58781  -0.58706
 Alpha  occ. eigenvalues --   -0.58034  -0.57991  -0.57368  -0.56695  -0.56179
 Alpha  occ. eigenvalues --   -0.56128  -0.55929  -0.55219  -0.54819  -0.54767
 Alpha  occ. eigenvalues --   -0.54209  -0.53952  -0.53311  -0.52849  -0.52604
 Alpha  occ. eigenvalues --   -0.52438  -0.52115  -0.51991  -0.51875  -0.51636
 Alpha  occ. eigenvalues --   -0.51369  -0.50893  -0.50736  -0.50389  -0.50035
 Alpha  occ. eigenvalues --   -0.49933  -0.49635  -0.49293  -0.48963  -0.48552
 Alpha  occ. eigenvalues --   -0.48536  -0.48339  -0.48231  -0.47769  -0.47738
 Alpha  occ. eigenvalues --   -0.47536  -0.47068  -0.46836  -0.46570  -0.46457
 Alpha  occ. eigenvalues --   -0.46107  -0.46087  -0.45565  -0.45278  -0.44821
 Alpha  occ. eigenvalues --   -0.44802  -0.44395  -0.44303  -0.44178  -0.44133
 Alpha  occ. eigenvalues --   -0.43725  -0.43347  -0.43320  -0.43106  -0.42812
 Alpha  occ. eigenvalues --   -0.42637  -0.42516  -0.42183  -0.41909  -0.41693
 Alpha  occ. eigenvalues --   -0.41453  -0.40743  -0.40667  -0.40202  -0.40120
 Alpha  occ. eigenvalues --   -0.40087  -0.39956  -0.39500  -0.39277  -0.39159
 Alpha  occ. eigenvalues --   -0.38898  -0.38306  -0.38105  -0.37805  -0.37792
 Alpha  occ. eigenvalues --   -0.37127  -0.35933  -0.34958  -0.34316  -0.33115
 Alpha  occ. eigenvalues --   -0.32610  -0.32341  -0.32003  -0.31287  -0.31123
 Alpha  occ. eigenvalues --   -0.30899  -0.30186  -0.29636  -0.29552  -0.28712
 Alpha  occ. eigenvalues --   -0.28621  -0.27839  -0.26904  -0.26540  -0.26156
 Alpha virt. eigenvalues --   -0.11930  -0.09479  -0.06809  -0.05140  -0.05033
 Alpha virt. eigenvalues --   -0.04955  -0.04599  -0.04213  -0.03683  -0.03174
 Alpha virt. eigenvalues --   -0.03035  -0.02038  -0.01854  -0.01606  -0.01542

 Mulliken charges:
               1
     1  N   -0.761421
     2  H    0.435312
     3  H    0.409351
     4  H    0.427641
     5  C   -0.120565
     6  H    0.224817
     7  C    0.659499
     8  C    0.101128
     9  H    0.193636
    10  O   -0.537177
    11  C   -0.474211
    12  H    0.183622
    13  H    0.156389
    14  H    0.188579
    15  O   -0.639135
    16  H    0.435081
    17  N   -0.598890
    18  H    0.370030
    19  C   -0.077132
    20  H    0.186700
    21  C    0.628026
    22  C   -0.074041
    23  H    0.141533
    24  O   -0.562506
    25  C   -0.250728
    26  H    0.116950
    27  H    0.150159
    28  C   -0.481186
    29  H    0.154868
    30  H    0.169592
    31  H    0.178375
    32  C   -0.453985
    33  H    0.154051
    34  H    0.165739
    35  H    0.150220
    36  N   -0.607251
    37  H    0.370697
    38  C   -0.052036
    39  H    0.187308
    40  C    0.631304
    41  C   -0.446281
    42  H    0.167101
    43  H    0.164738
    44  H    0.171227
    45  O   -0.546487
    46  N   -0.625386
    47  H    0.358103
    48  C   -0.043582
    49  H    0.172703
    50  C    0.611325
    51  C   -0.263885
    52  H    0.158482
    53  H    0.187555
    54  O   -0.536453
    55  C   -0.394573
    56  H    0.168525
    57  H    0.168913
    58  C    0.588624
    59  N   -0.771014
    60  H    0.379500
    61  H    0.333550
    62  O   -0.518807
    63  N   -0.585623
    64  H    0.350171
    65  C   -0.086304
    66  H    0.204531
    67  C    0.627673
    68  C   -0.369737
    69  H    0.166190
    70  H    0.162239
    71  O   -0.541499
    72  C    0.155800
    73  C   -0.201309
    74  H    0.127733
    75  C   -0.200093
    76  H    0.150353
    77  C   -0.155617
    78  H    0.144820
    79  C   -0.192661
    80  H    0.125074
    81  O   -0.637635
    82  H    0.411180
    83  C    0.353584
    84  N   -0.605415
    85  H    0.359505
    86  C   -0.049702
    87  H    0.184924
    88  C    0.620495
    89  C   -0.449514
    90  H    0.169946
    91  H    0.170358
    92  H    0.159927
    93  O   -0.568719
    94  N   -0.626519
    95  H    0.363404
    96  C   -0.046481
    97  H    0.156506
    98  C    0.606758
    99  C   -0.292871
   100  H    0.159880
   101  H    0.164901
   102  O   -0.645092
   103  C   -0.274601
   104  H    0.148330
   105  H    0.172498
   106  C   -0.154296
   107  H    0.174673
   108  H    0.136965
   109  N   -0.617076
   110  H    0.447350
   111  N   -0.756507
   112  H    0.362485
   113  H    0.364095
   114  N   -0.774922
   115  H    0.349950
   116  H    0.402401
   117  C    0.746619
   118  O   -0.533345
 Sum of Mulliken charges =   1.00000

 Dipole moment (field-independent basis, Debye):
    X=             -2.7608    Y=             -1.1127    Z=            -31.2303  Tot=             31.3719
 Quadrupole moment (field-independent basis, Debye-Ang):
   XX=              5.8914   YY=           -245.5933   ZZ=             60.7140
   XY=            165.8952   XZ=            343.3423   YZ=            163.9106

 Normal termination of Gaussian 16 at Sat Jul  2 15:32:32 2022.
