 Gaussian 16, Revision C.01,
 Gaussian 16:  ES64L-G16RevC.01  3-Jul-2019

 -------------------------------------------------------------------
 # B3LYP/6-31G* guess=read geom=check nosymm integral(ultrafinegrid)
 -------------------------------------------------------------------

 ------------------------------------------------------
 Candidate Structure: Conf:123 Charge calc in gas phase
 ------------------------------------------------------
 Structure from the checkpoint file:  "conf-123.chk"
 Charge =  1 Multiplicity = 1

                          Input orientation:
 ---------------------------------------------------------------------
 Center     Atomic      Atomic             Coordinates (Angstroms)
 Number     Number       Type             X           Y           Z
 ---------------------------------------------------------------------
      1          7           0       -8.681276   -4.560310   -7.214301
      2          1           0       -9.123114   -5.419344   -6.876471
      3          1           0       -8.782188   -4.490097   -8.242214
      4          1           0       -9.096565   -3.745867   -6.695358
      5          6           0       -7.214773   -4.472437   -6.889906
      6          1           0       -6.816209   -5.484438   -6.782308
      7          6           0       -7.174191   -3.653149   -5.575120
      8          6           0       -6.532896   -3.723962   -8.082191
      9          1           0       -6.776347   -2.659593   -7.985214
     10          8           0       -8.169870   -2.964906   -5.310786
     11          6           0       -5.022926   -3.917755   -8.120060
     12          1           0       -4.536224   -3.544197   -7.214017
     13          1           0       -4.765185   -4.979432   -8.230479
     14          1           0       -4.609061   -3.369584   -8.971269
     15          8           0       -7.173578   -4.143407   -9.289966
     16          1           0       -6.647653   -4.844221   -9.710339
     17          7           0       -6.054804   -3.733569   -4.867241
     18          1           0       -5.237516   -4.253058   -5.196882
     19          6           0       -5.717310   -2.887425   -3.718628
     20          1           0       -6.172886   -1.905939   -3.877918
     21          6           0       -4.173881   -2.779121   -3.799087
     22          6           0       -6.265402   -3.496276   -2.390279
     23          1           0       -7.325559   -3.693159   -2.604084
     24          8           0       -3.546397   -3.551168   -4.539257
     25          6           0       -6.227348   -2.523658   -1.191512
     26          1           0       -5.190948   -2.325475   -0.890610
     27          1           0       -6.677357   -3.057922   -0.345211
     28          6           0       -5.583799   -4.827887   -2.043886
     29          1           0       -4.527461   -4.685993   -1.788572
     30          1           0       -5.634777   -5.544340   -2.871217
     31          1           0       -6.072486   -5.287099   -1.178532
     32          6           0       -6.979060   -1.200911   -1.389251
     33          1           0       -7.018922   -0.642210   -0.449084
     34          1           0       -8.009947   -1.372560   -1.721423
     35          1           0       -6.499926   -0.543227   -2.125151
     36          7           0       -3.600208   -1.834485   -3.046122
     37          1           0       -4.132187   -1.250179   -2.403549
     38          6           0       -2.157298   -1.679096   -2.896283
     39          1           0       -1.704077   -2.675615   -2.854408
     40          6           0       -1.964569   -0.958583   -1.543646
     41          6           0       -1.534861   -0.888185   -4.059938
     42          1           0       -0.453615   -0.781267   -3.926413
     43          1           0       -1.974849    0.112414   -4.123354
     44          1           0       -1.715336   -1.417586   -4.999389
     45          8           0       -2.927663   -0.433961   -0.974546
     46          7           0       -0.705605   -0.959019   -1.073420
     47          1           0        0.063441   -1.291236   -1.653416
     48          6           0       -0.234828   -0.148989    0.044721
     49          1           0       -0.913103    0.703884    0.160732
     50          6           0        1.172501    0.340043   -0.371023
     51          6           0       -0.158369   -0.949053    1.363863
     52          1           0        0.390654   -0.354553    2.104500
     53          1           0        0.424558   -1.860542    1.196612
     54          8           0        1.777234   -0.211486   -1.295754
     55          6           0       -1.526891   -1.337870    1.935260
     56          1           0       -2.071845   -0.450392    2.279714
     57          1           0       -2.144872   -1.792249    1.152373
     58          6           0       -1.378588   -2.377448    3.047635
     59          7           0       -2.212547   -2.215874    4.118990
     60          1           0       -2.735162   -1.366095    4.268237
     61          1           0       -2.100053   -2.847870    4.900314
     62          8           0       -0.601236   -3.317256    2.958562
     63          7           0        1.670174    1.356342    0.353492
     64          1           0        1.154031    1.790214    1.115545
     65          6           0        3.018316    1.883076    0.197694
     66          1           0        3.704415    1.046774    0.029534
     67          6           0        3.336086    2.585413    1.533201
     68          6           0        3.101392    2.853226   -1.018703
     69          1           0        2.400032    3.676741   -0.842170
     70          1           0        2.734598    2.288183   -1.883099
     71          8           0        2.414215    3.009906    2.239210
     72          6           0        4.489141    3.392371   -1.285157
     73          6           0        4.813807    4.729531   -1.016350
     74          1           0        4.043555    5.400841   -0.643593
     75          6           0        5.503562    2.558853   -1.775617
     76          1           0        5.280415    1.521198   -2.015355
     77          6           0        6.102432    5.219540   -1.208005
     78          1           0        6.347394    6.255660   -0.996541
     79          6           0        6.801757    3.031239   -1.962545
     80          1           0        7.577160    2.363295   -2.332988
     81          8           0        8.366873    4.882138   -1.812215
     82          1           0        8.969388    4.168598   -2.074246
     83          6           0        7.106840    4.362529   -1.665551
     84          7           0        4.637661    2.692605    1.843712
     85          1           0        5.370345    2.403678    1.198079
     86          6           0        5.136711    3.451023    2.982860
     87          1           0        4.554304    4.375579    3.071212
     88          6           0        6.605146    3.785731    2.646226
     89          6           0        5.022712    2.661630    4.298477
     90          1           0        5.392515    3.255177    5.141056
     91          1           0        3.974767    2.410104    4.482378
     92          1           0        5.607388    1.737666    4.241231
     93          8           0        7.202544    3.161056    1.761896
     94          7           0        7.157799    4.767916    3.375056
     95          1           0        6.671968    5.244740    4.133932
     96          6           0        8.552713    5.177203    3.269669
     97          1           0        9.185250    4.283639    3.228054
     98          6           0        8.862549    5.972611    4.575099
     99          6           0        8.761001    5.998781    1.957029
    100          1           0        8.394871    7.022968    2.114248
    101          1           0        8.095807    5.541601    1.221122
    102          8           0       10.109541    6.149514    4.830553
    103          6           0       10.178599    6.013521    1.329191
    104          1           0       10.079464    5.866876    0.247721
    105          1           0       10.766436    5.163176    1.698884
    106          6           0       10.997058    7.298565    1.526754
    107          1           0       10.445636    8.159669    1.123060
    108          1           0       11.943034    7.219423    0.973772
    109          7           0       11.256948    7.499894    2.951397
    110          1           0       10.938139    6.724299    3.594562
    111          7           0       11.736206    9.794924    2.954692
    112          1           0       11.456985   10.692436    3.322649
    113          1           0       11.958627    9.758619    1.971395
    114          7           0       11.027408    8.700052    4.889578
    115          1           0       11.364997    9.441277    5.484876
    116          1           0       10.618793    7.829280    5.284644
    117          6           0       11.335878    8.662131    3.586804
    118          8           0        7.903928    6.383358    5.241373
 ---------------------------------------------------------------------

 SCF Done:  E(RB3LYP) =  -2837.64983405     A.U. after    2 cycles

 Alpha  occ. eigenvalues --  -19.30472 -19.26025 -19.22075 -19.21538 -19.19250
 Alpha  occ. eigenvalues --  -19.17444 -19.15692 -19.15279 -19.14298 -19.12159
 Alpha  occ. eigenvalues --  -19.11199 -14.59229 -14.48807 -14.44849 -14.44547
 Alpha  occ. eigenvalues --  -14.42634 -14.41670 -14.41151 -14.41146 -14.40168
 Alpha  occ. eigenvalues --  -14.39319 -14.37669 -10.43099 -10.40279 -10.39722
 Alpha  occ. eigenvalues --  -10.39092 -10.38518 -10.36245 -10.34486 -10.33708
 Alpha  occ. eigenvalues --  -10.33231 -10.32770 -10.31472 -10.31289 -10.31218
 Alpha  occ. eigenvalues --  -10.29542 -10.29487 -10.28832 -10.28675 -10.28419
 Alpha  occ. eigenvalues --  -10.28132 -10.26598 -10.26192 -10.25770 -10.25675
 Alpha  occ. eigenvalues --  -10.25028 -10.24530 -10.24486 -10.24365 -10.23647
 Alpha  occ. eigenvalues --  -10.23375 -10.23136 -10.23084 -10.22954 -10.22934
 Alpha  occ. eigenvalues --  -10.22407 -10.21933 -10.21150  -1.19029  -1.17464
 Alpha  occ. eigenvalues --   -1.13504  -1.12890  -1.11016  -1.09884  -1.09257
 Alpha  occ. eigenvalues --   -1.07862  -1.07514  -1.07211  -1.06046  -1.05467
 Alpha  occ. eigenvalues --   -1.04789  -1.01429  -0.99353  -0.97740  -0.97655
 Alpha  occ. eigenvalues --   -0.96186  -0.95930  -0.95681  -0.94647  -0.94087
 Alpha  occ. eigenvalues --   -0.93118  -0.90104  -0.89325  -0.86421  -0.85531
 Alpha  occ. eigenvalues --   -0.84299  -0.83479  -0.83005  -0.82087  -0.80353
 Alpha  occ. eigenvalues --   -0.79930  -0.78751  -0.78655  -0.77432  -0.77080
 Alpha  occ. eigenvalues --   -0.76006  -0.73897  -0.73834  -0.72584  -0.72000
 Alpha  occ. eigenvalues --   -0.71541  -0.70757  -0.70300  -0.69578  -0.69373
 Alpha  occ. eigenvalues --   -0.68463  -0.66678  -0.66335  -0.66120  -0.65619
 Alpha  occ. eigenvalues --   -0.65177  -0.64859  -0.64371  -0.64043  -0.63769
 Alpha  occ. eigenvalues --   -0.62916  -0.62377  -0.62289  -0.61688  -0.61437
 Alpha  occ. eigenvalues --   -0.60845  -0.59989  -0.59104  -0.58792  -0.58293
 Alpha  occ. eigenvalues --   -0.58241  -0.58060  -0.57436  -0.57051  -0.56736
 Alpha  occ. eigenvalues --   -0.56354  -0.55691  -0.55163  -0.54418  -0.54237
 Alpha  occ. eigenvalues --   -0.53823  -0.53683  -0.53060  -0.52896  -0.52573
 Alpha  occ. eigenvalues --   -0.52115  -0.51634  -0.51549  -0.51280  -0.51146
 Alpha  occ. eigenvalues --   -0.50918  -0.50704  -0.50665  -0.50509  -0.50327
 Alpha  occ. eigenvalues --   -0.50112  -0.49801  -0.49275  -0.48605  -0.48450
 Alpha  occ. eigenvalues --   -0.48040  -0.47778  -0.47725  -0.47623  -0.47426
 Alpha  occ. eigenvalues --   -0.47239  -0.47077  -0.46696  -0.46266  -0.46042
 Alpha  occ. eigenvalues --   -0.45953  -0.45728  -0.45058  -0.44891  -0.44598
 Alpha  occ. eigenvalues --   -0.44568  -0.44491  -0.44256  -0.44152  -0.43816
 Alpha  occ. eigenvalues --   -0.43767  -0.43523  -0.43271  -0.42964  -0.42786
 Alpha  occ. eigenvalues --   -0.42286  -0.42088  -0.41925  -0.41657  -0.41481
 Alpha  occ. eigenvalues --   -0.40936  -0.40887  -0.40520  -0.40349  -0.40024
 Alpha  occ. eigenvalues --   -0.39837  -0.39433  -0.39258  -0.39196  -0.38980
 Alpha  occ. eigenvalues --   -0.38120  -0.37933  -0.37593  -0.37535  -0.36680
 Alpha  occ. eigenvalues --   -0.36476  -0.35666  -0.34927  -0.34792  -0.33359
 Alpha  occ. eigenvalues --   -0.32622  -0.31848  -0.31626  -0.31129  -0.30967
 Alpha  occ. eigenvalues --   -0.29910  -0.29375  -0.29094  -0.28961  -0.28414
 Alpha  occ. eigenvalues --   -0.28257  -0.27234  -0.26333  -0.25567  -0.25394
 Alpha virt. eigenvalues --   -0.12066  -0.10112  -0.07291  -0.05421  -0.04976
 Alpha virt. eigenvalues --   -0.04460  -0.04391  -0.04065  -0.03688  -0.02586
 Alpha virt. eigenvalues --   -0.02520  -0.01675  -0.01209  -0.01142  -0.00590

 Mulliken charges:
               1
     1  N   -0.747424
     2  H    0.414069
     3  H    0.426147
     4  H    0.426631
     5  C   -0.140023
     6  H    0.202607
     7  C    0.646904
     8  C    0.129969
     9  H    0.193472
    10  O   -0.537608
    11  C   -0.512021
    12  H    0.205904
    13  H    0.165388
    14  H    0.206167
    15  O   -0.630531
    16  H    0.424509
    17  N   -0.604231
    18  H    0.374544
    19  C   -0.083123
    20  H    0.193595
    21  C    0.634516
    22  C   -0.074008
    23  H    0.148725
    24  O   -0.563369
    25  C   -0.283335
    26  H    0.158860
    27  H    0.155774
    28  C   -0.463577
    29  H    0.167890
    30  H    0.136744
    31  H    0.167292
    32  C   -0.461026
    33  H    0.171831
    34  H    0.155546
    35  H    0.142444
    36  N   -0.621144
    37  H    0.379196
    38  C   -0.051224
    39  H    0.189779
    40  C    0.621118
    41  C   -0.453389
    42  H    0.176426
    43  H    0.164647
    44  H    0.175526
    45  O   -0.552495
    46  N   -0.601877
    47  H    0.361667
    48  C   -0.073403
    49  H    0.177049
    50  C    0.626665
    51  C   -0.264180
    52  H    0.157971
    53  H    0.188278
    54  O   -0.552196
    55  C   -0.356371
    56  H    0.138885
    57  H    0.185243
    58  C    0.592320
    59  N   -0.746466
    60  H    0.336358
    61  H    0.345169
    62  O   -0.503846
    63  N   -0.618135
    64  H    0.356892
    65  C   -0.040661
    66  H    0.177031
    67  C    0.618542
    68  C   -0.351775
    69  H    0.152859
    70  H    0.175042
    71  O   -0.558841
    72  C    0.154696
    73  C   -0.188332
    74  H    0.132594
    75  C   -0.205150
    76  H    0.139732
    77  C   -0.156483
    78  H    0.139472
    79  C   -0.175021
    80  H    0.126043
    81  O   -0.651371
    82  H    0.411478
    83  C    0.368113
    84  N   -0.614770
    85  H    0.367111
    86  C   -0.035838
    87  H    0.171495
    88  C    0.621749
    89  C   -0.448751
    90  H    0.162441
    91  H    0.176934
    92  H    0.159673
    93  O   -0.560604
    94  N   -0.622931
    95  H    0.354906
    96  C   -0.038085
    97  H    0.163554
    98  C    0.591419
    99  C   -0.286020
   100  H    0.133796
   101  H    0.188617
   102  O   -0.645626
   103  C   -0.308511
   104  H    0.164778
   105  H    0.163916
   106  C   -0.147271
   107  H    0.148493
   108  H    0.158605
   109  N   -0.608024
   110  H    0.415594
   111  N   -0.759978
   112  H    0.360849
   113  H    0.366670
   114  N   -0.779107
   115  H    0.347464
   116  H    0.417729
   117  C    0.767925
   118  O   -0.543882
 Sum of Mulliken charges =   1.00000

 Dipole moment (field-independent basis, Debye):
    X=            -17.5918    Y=             -4.9691    Z=            -27.4468  Tot=             32.9771
 Quadrupole moment (field-independent basis, Debye-Ang):
   XX=             65.0915   YY=           -115.6607   ZZ=           -138.3223
   XY=            305.9218   XZ=            190.8200   YZ=            151.1317

 Normal termination of Gaussian 16 at Sat Jul  2 15:33:34 2022.
