 Gaussian 16, Revision C.01,
 Gaussian 16:  ES64L-G16RevC.01  3-Jul-2019

 -------------------------------------------------------------------
 # B3LYP/6-31G* guess=read geom=check nosymm integral(ultrafinegrid)
 -------------------------------------------------------------------

 ------------------------------------------------------
 Candidate Structure: Conf:472 Charge calc in gas phase
 ------------------------------------------------------
 Structure from the checkpoint file:  "conf-472.chk"
 Charge =  1 Multiplicity = 1

                          Input orientation:
 ---------------------------------------------------------------------
 Center     Atomic      Atomic             Coordinates (Angstroms)
 Number     Number       Type             X           Y           Z
 ---------------------------------------------------------------------
      1          7           0       -1.498653   -3.637690   -1.556088
      2          1           0       -2.369184   -4.053620   -1.961950
      3          1           0       -1.263339   -4.007288   -0.634452
      4          1           0       -0.742243   -3.819740   -2.246327
      5          6           0       -1.713756   -2.145262   -1.619184
      6          1           0       -1.988363   -1.756376   -0.636629
      7          6           0       -2.870847   -2.012966   -2.641025
      8          6           0       -0.384534   -1.537821   -2.155450
      9          1           0       -0.556423   -0.495940   -2.423995
     10          8           0       -3.362504   -3.052837   -3.101205
     11          6           0        0.750959   -1.601407   -1.141515
     12          1           0        0.471691   -1.097324   -0.210744
     13          1           0        1.043125   -2.634100   -0.911321
     14          1           0        1.618230   -1.086877   -1.559543
     15          8           0       -0.017552   -2.309585   -3.294395
     16          1           0       -0.489826   -1.926977   -4.066045
     17          7           0       -3.217934   -0.771898   -2.999729
     18          1           0       -2.781208    0.014425   -2.506426
     19          6           0       -3.843863   -0.532987   -4.301364
     20          1           0       -4.207039   -1.510288   -4.635184
     21          6           0       -2.655009   -0.167499   -5.247147
     22          6           0       -5.042835    0.455623   -4.247121
     23          1           0       -4.642151    1.480444   -4.272763
     24          8           0       -1.559764   -0.732388   -5.104026
     25          6           0       -5.841797    0.351966   -2.924481
     26          1           0       -6.596073    1.149314   -2.942874
     27          1           0       -5.172800    0.589013   -2.089563
     28          6           0       -5.971135    0.257896   -5.463003
     29          1           0       -6.423228   -0.739141   -5.450037
     30          1           0       -5.461035    0.355848   -6.427264
     31          1           0       -6.782637    0.992636   -5.443504
     32          6           0       -6.537374   -0.989380   -2.656400
     33          1           0       -7.019870   -0.968673   -1.673293
     34          1           0       -5.835497   -1.830505   -2.662874
     35          1           0       -7.319163   -1.201672   -3.393050
     36          7           0       -2.838151    0.776322   -6.192386
     37          1           0       -3.703159    1.299289   -6.204013
     38          6           0       -1.724550    1.338512   -6.982750
     39          1           0       -0.983719    0.541524   -7.075731
     40          6           0       -1.155728    2.506163   -6.138927
     41          6           0       -2.207486    1.802445   -8.350273
     42          1           0       -1.361607    2.173999   -8.935516
     43          1           0       -2.920619    2.626328   -8.252999
     44          1           0       -2.671972    0.974753   -8.894152
     45          8           0       -1.481810    3.669572   -6.337265
     46          7           0       -0.351874    2.112714   -5.108315
     47          1           0       -0.253095    1.118804   -4.920005
     48          6           0       -0.113214    3.005055   -3.977456
     49          1           0        0.144958    3.982838   -4.392619
     50          6           0        1.067811    2.439796   -3.184016
     51          6           0       -1.404519    3.155701   -3.107434
     52          1           0       -2.027765    2.272444   -3.273018
     53          1           0       -1.960653    4.006623   -3.509046
     54          8           0        1.084383    1.265813   -2.805353
     55          6           0       -1.217773    3.313115   -1.590958
     56          1           0       -0.296055    3.843629   -1.331664
     57          1           0       -2.042793    3.918168   -1.191883
     58          6           0       -1.287580    1.993047   -0.822125
     59          7           0       -0.556103    1.951894    0.308609
     60          1           0        0.273091    2.539356    0.407628
     61          1           0       -0.591489    1.097837    0.849366
     62          8           0       -2.042788    1.061760   -1.150860
     63          7           0        2.054286    3.321877   -2.908916
     64          1           0        2.034044    4.230961   -3.352112
     65          6           0        3.250149    2.971523   -2.164575
     66          1           0        3.700563    2.081296   -2.620181
     67          6           0        2.920058    2.664737   -0.688421
     68          6           0        4.258484    4.152456   -2.209380
     69          1           0        5.166423    3.825592   -1.689586
     70          1           0        3.838378    4.977011   -1.620601
     71          8           0        1.980062    3.213834   -0.101808
     72          6           0        4.584556    4.629698   -3.608188
     73          6           0        5.361175    3.848359   -4.480117
     74          1           0        5.757406    2.893991   -4.139688
     75          6           0        4.108326    5.858698   -4.078963
     76          1           0        3.527821    6.500723   -3.418890
     77          6           0        5.647058    4.271317   -5.771556
     78          1           0        6.253110    3.669633   -6.441234
     79          6           0        4.385587    6.298547   -5.375298
     80          1           0        4.010402    7.261458   -5.716064
     81          8           0        5.469218    5.863729   -7.503519
     82          1           0        5.092536    6.736828   -7.695835
     83          6           0        5.156000    5.503090   -6.227480
     84          7           0        3.788482    1.827017   -0.094622
     85          1           0        4.616180    1.484036   -0.581676
     86          6           0        3.857034    1.595745    1.340451
     87          1           0        3.588942    2.524269    1.857285
     88          6           0        5.332539    1.231086    1.633846
     89          6           0        2.910507    0.471568    1.795537
     90          1           0        2.965242    0.325580    2.878926
     91          1           0        1.880423    0.727607    1.531356
     92          1           0        3.174792   -0.471139    1.304918
     93          8           0        6.104188    0.971510    0.702516
     94          7           0        5.665432    1.199237    2.930545
     95          1           0        4.992437    1.357371    3.682381
     96          6           0        6.933392    0.703026    3.456913
     97          1           0        7.232035   -0.184812    2.888923
     98          6           0        6.629864    0.297802    4.935746
     99          6           0        8.036643    1.794085    3.294747
    100          1           0        7.876726    2.578718    4.046846
    101          1           0        7.840255    2.255102    2.322661
    102          8           0        5.592227    0.743579    5.447750
    103          6           0        9.517670    1.331662    3.290850
    104          1           0       10.048765    1.855364    2.487687
    105          1           0        9.582806    0.264414    3.042442
    106          6           0       10.321175    1.589675    4.575577
    107          1           0       10.274400    2.653155    4.845263
    108          1           0       11.375310    1.335706    4.400004
    109          7           0        9.780301    0.778680    5.666327
    110          1           0        9.020398    0.106874    5.394927
    111          7           0       10.501317    2.089677    7.461268
    112          1           0       10.436032    2.330391    8.439309
    113          1           0       11.392591    2.259446    7.018893
    114          7           0        8.727637    0.574072    7.687533
    115          1           0        8.676543    0.710895    8.685140
    116          1           0        7.989928    0.054779    7.171242
    117          6           0        9.678372    1.144855    6.941277
    118          8           0        7.501197   -0.455518    5.496253
 ---------------------------------------------------------------------

 SCF Done:  E(RB3LYP) =  -2837.67380679     A.U. after    2 cycles

 Alpha  occ. eigenvalues --  -19.24235 -19.23852 -19.23605 -19.22221 -19.20482
 Alpha  occ. eigenvalues --  -19.20126 -19.19413 -19.19025 -19.17550 -19.14481
 Alpha  occ. eigenvalues --  -19.13698 -14.55704 -14.46490 -14.46350 -14.45777
 Alpha  occ. eigenvalues --  -14.44488 -14.43867 -14.43111 -14.42993 -14.42969
 Alpha  occ. eigenvalues --  -14.42785 -14.40585 -10.41112 -10.40262 -10.39225
 Alpha  occ. eigenvalues --  -10.37453 -10.36996 -10.36418 -10.36323 -10.36065
 Alpha  occ. eigenvalues --  -10.34522 -10.34059 -10.32961 -10.31952 -10.31619
 Alpha  occ. eigenvalues --  -10.31426 -10.31309 -10.31234 -10.30231 -10.30172
 Alpha  occ. eigenvalues --  -10.28605 -10.27254 -10.27166 -10.27123 -10.26923
 Alpha  occ. eigenvalues --  -10.26882 -10.25997 -10.25989 -10.25926 -10.25826
 Alpha  occ. eigenvalues --  -10.25655 -10.25598 -10.25406 -10.25405 -10.25359
 Alpha  occ. eigenvalues --  -10.24878 -10.24503 -10.24210  -1.16157  -1.13804
 Alpha  occ. eigenvalues --   -1.12291  -1.12108  -1.11989  -1.11395  -1.10951
 Alpha  occ. eigenvalues --   -1.10676  -1.09872  -1.09205  -1.09192  -1.07293
 Alpha  occ. eigenvalues --   -1.02989  -1.02273  -1.00944  -0.99794  -0.99709
 Alpha  occ. eigenvalues --   -0.99571  -0.98516  -0.98016  -0.97786  -0.96966
 Alpha  occ. eigenvalues --   -0.91964  -0.90285  -0.87799  -0.87675  -0.86355
 Alpha  occ. eigenvalues --   -0.85603  -0.85227  -0.83791  -0.82679  -0.81292
 Alpha  occ. eigenvalues --   -0.80960  -0.80671  -0.79613  -0.78806  -0.78441
 Alpha  occ. eigenvalues --   -0.74261  -0.73567  -0.73401  -0.72514  -0.72069
 Alpha  occ. eigenvalues --   -0.71573  -0.71060  -0.70939  -0.70246  -0.69371
 Alpha  occ. eigenvalues --   -0.69007  -0.68447  -0.67698  -0.67552  -0.66993
 Alpha  occ. eigenvalues --   -0.66125  -0.65867  -0.65628  -0.65207  -0.64802
 Alpha  occ. eigenvalues --   -0.64425  -0.63660  -0.63329  -0.62958  -0.62175
 Alpha  occ. eigenvalues --   -0.61618  -0.60758  -0.60623  -0.60310  -0.58905
 Alpha  occ. eigenvalues --   -0.58605  -0.58359  -0.58096  -0.57710  -0.57436
 Alpha  occ. eigenvalues --   -0.57047  -0.56728  -0.56210  -0.56004  -0.55251
 Alpha  occ. eigenvalues --   -0.55040  -0.54490  -0.54313  -0.54099  -0.53804
 Alpha  occ. eigenvalues --   -0.53386  -0.53291  -0.52666  -0.52558  -0.52478
 Alpha  occ. eigenvalues --   -0.51969  -0.51426  -0.51284  -0.50994  -0.50441
 Alpha  occ. eigenvalues --   -0.50242  -0.50040  -0.49720  -0.49572  -0.49354
 Alpha  occ. eigenvalues --   -0.49212  -0.49002  -0.48810  -0.48646  -0.48564
 Alpha  occ. eigenvalues --   -0.48388  -0.48115  -0.47914  -0.47668  -0.47603
 Alpha  occ. eigenvalues --   -0.47025  -0.46737  -0.46433  -0.46231  -0.46056
 Alpha  occ. eigenvalues --   -0.45997  -0.45921  -0.45775  -0.45630  -0.45430
 Alpha  occ. eigenvalues --   -0.45287  -0.44836  -0.44700  -0.44498  -0.44225
 Alpha  occ. eigenvalues --   -0.44211  -0.43635  -0.43596  -0.43253  -0.42947
 Alpha  occ. eigenvalues --   -0.42769  -0.42565  -0.41942  -0.41779  -0.41566
 Alpha  occ. eigenvalues --   -0.40838  -0.40765  -0.40610  -0.40235  -0.40207
 Alpha  occ. eigenvalues --   -0.40062  -0.39185  -0.39131  -0.38371  -0.37552
 Alpha  occ. eigenvalues --   -0.37025  -0.36970  -0.36406  -0.35463  -0.35060
 Alpha  occ. eigenvalues --   -0.34776  -0.34311  -0.34236  -0.33641  -0.33148
 Alpha  occ. eigenvalues --   -0.32964  -0.32558  -0.31873  -0.31736  -0.31659
 Alpha  occ. eigenvalues --   -0.31239  -0.29580  -0.28805  -0.28180  -0.27982
 Alpha virt. eigenvalues --   -0.10381  -0.08131  -0.07189  -0.06644  -0.06521
 Alpha virt. eigenvalues --   -0.06363  -0.05971  -0.05709  -0.04791  -0.04414
 Alpha virt. eigenvalues --   -0.03385  -0.02557  -0.01816  -0.01477  -0.00407

 Mulliken charges:
               1
     1  N   -0.752715
     2  H    0.423052
     3  H    0.402101
     4  H    0.420677
     5  C   -0.115890
     6  H    0.214186
     7  C    0.627953
     8  C    0.081377
     9  H    0.210446
    10  O   -0.546865
    11  C   -0.455766
    12  H    0.145443
    13  H    0.129369
    14  H    0.215848
    15  O   -0.663695
    16  H    0.459154
    17  N   -0.622933
    18  H    0.425377
    19  C   -0.069487
    20  H    0.218476
    21  C    0.634277
    22  C   -0.132514
    23  H    0.135039
    24  O   -0.564825
    25  C   -0.254198
    26  H    0.149066
    27  H    0.148508
    28  C   -0.475985
    29  H    0.172140
    30  H    0.146152
    31  H    0.171659
    32  C   -0.469432
    33  H    0.157758
    34  H    0.159905
    35  H    0.157460
    36  N   -0.595721
    37  H    0.357151
    38  C   -0.069364
    39  H    0.191983
    40  C    0.618894
    41  C   -0.459545
    42  H    0.180469
    43  H    0.176282
    44  H    0.163821
    45  O   -0.514303
    46  N   -0.624915
    47  H    0.362021
    48  C   -0.035908
    49  H    0.176804
    50  C    0.626768
    51  C   -0.285925
    52  H    0.148238
    53  H    0.179246
    54  O   -0.553142
    55  C   -0.384820
    56  H    0.187765
    57  H    0.190552
    58  C    0.618309
    59  N   -0.758369
    60  H    0.409539
    61  H    0.331219
    62  O   -0.577723
    63  N   -0.600677
    64  H    0.346329
    65  C   -0.028708
    66  H    0.173455
    67  C    0.646402
    68  C   -0.407987
    69  H    0.178933
    70  H    0.172095
    71  O   -0.569225
    72  C    0.167901
    73  C   -0.184785
    74  H    0.135481
    75  C   -0.216095
    76  H    0.134958
    77  C   -0.153950
    78  H    0.155247
    79  C   -0.188913
    80  H    0.133977
    81  O   -0.632230
    82  H    0.414527
    83  C    0.354443
    84  N   -0.601994
    85  H    0.360483
    86  C   -0.047200
    87  H    0.180395
    88  C    0.618779
    89  C   -0.448439
    90  H    0.175232
    91  H    0.143614
    92  H    0.162181
    93  O   -0.557723
    94  N   -0.618137
    95  H    0.358040
    96  C   -0.047611
    97  H    0.166376
    98  C    0.593888
    99  C   -0.273317
   100  H    0.142099
   101  H    0.172749
   102  O   -0.549330
   103  C   -0.304993
   104  H    0.159737
   105  H    0.169233
   106  C   -0.145392
   107  H    0.160962
   108  H    0.161355
   109  N   -0.612544
   110  H    0.411958
   111  N   -0.755509
   112  H    0.361535
   113  H    0.369735
   114  N   -0.776731
   115  H    0.348455
   116  H    0.419256
   117  C    0.771300
   118  O   -0.640057
 Sum of Mulliken charges =   1.00000

 Dipole moment (field-independent basis, Debye):
    X=             10.7692    Y=              3.9222    Z=              0.6236  Tot=             11.4782
 Quadrupole moment (field-independent basis, Debye-Ang):
   XX=           -107.3099   YY=           -270.8223   ZZ=           -196.1835
   XY=             72.0786   XZ=            147.7192   YZ=              5.7561

 Normal termination of Gaussian 16 at Sat Jul  2 15:33:24 2022.
