 Gaussian 16, Revision C.01,
 Gaussian 16:  ES64L-G16RevC.01  3-Jul-2019

 -------------------------------------------------------------------
 # B3LYP/6-31G* guess=read geom=check nosymm integral(ultrafinegrid)
 -------------------------------------------------------------------

 ------------------------------------------------------
 Candidate Structure: Conf:966 Charge calc in gas phase
 ------------------------------------------------------
 Structure from the checkpoint file:  "conf-966.chk"
 Charge =  1 Multiplicity = 1

                          Input orientation:
 ---------------------------------------------------------------------
 Center     Atomic      Atomic             Coordinates (Angstroms)
 Number     Number       Type             X           Y           Z
 ---------------------------------------------------------------------
      1          7           0       -8.599719   -1.870206   -6.960566
      2          1           0       -8.675181   -0.873849   -6.612362
      3          1           0       -9.507421   -2.337543   -6.996490
      4          1           0       -8.154052   -1.852820   -7.895907
      5          6           0       -7.600348   -2.483384   -6.017662
      6          1           0       -8.130071   -3.126107   -5.309451
      7          6           0       -7.023915   -1.245988   -5.265433
      8          6           0       -6.577658   -3.297757   -6.863250
      9          1           0       -5.661493   -3.421723   -6.275555
     10          8           0       -7.550027   -0.144359   -5.484341
     11          6           0       -7.110705   -4.665768   -7.273509
     12          1           0       -7.340622   -5.276310   -6.394269
     13          1           0       -8.016099   -4.577513   -7.885493
     14          1           0       -6.358353   -5.185250   -7.871684
     15          8           0       -6.314258   -2.553155   -8.055551
     16          1           0       -5.545335   -1.974007   -7.929331
     17          7           0       -6.016010   -1.481193   -4.436824
     18          1           0       -5.587056   -2.403123   -4.319947
     19          6           0       -5.312504   -0.467981   -3.642343
     20          1           0       -5.152515    0.409542   -4.275550
     21          6           0       -3.961366   -1.149950   -3.318149
     22          6           0       -6.143402   -0.049476   -2.388410
     23          1           0       -7.134323    0.199988   -2.791957
     24          8           0       -3.844620   -2.373376   -3.471138
     25          6           0       -5.616932    1.222361   -1.688198
     26          1           0       -4.643268    1.028721   -1.220753
     27          1           0       -6.302827    1.423693   -0.855758
     28          6           0       -6.300623   -1.205349   -1.389755
     29          1           0       -5.344805   -1.467856   -0.922135
     30          1           0       -6.699356   -2.109439   -1.863022
     31          1           0       -6.991081   -0.918958   -0.589980
     32          6           0       -5.536856    2.476756   -2.567831
     33          1           0       -5.293289    3.352389   -1.958380
     34          1           0       -6.490688    2.673069   -3.071860
     35          1           0       -4.761872    2.407552   -3.341511
     36          7           0       -2.978573   -0.352875   -2.880333
     37          1           0       -3.120452    0.639605   -2.700793
     38          6           0       -1.693979   -0.844759   -2.395071
     39          1           0       -1.869594   -1.760334   -1.818399
     40          6           0       -1.162581    0.266619   -1.462638
     41          6           0       -0.719816   -1.153900   -3.544547
     42          1           0        0.231125   -1.535967   -3.159990
     43          1           0       -0.517992   -0.252220   -4.131764
     44          1           0       -1.155875   -1.915193   -4.196782
     45          8           0       -1.701994    1.376076   -1.441597
     46          7           0       -0.087344   -0.061134   -0.722786
     47          1           0        0.306475   -0.996564   -0.738392
     48          6           0        0.568645    0.854914    0.209792
     49          1           0        0.487630    1.865196   -0.199671
     50          6           0        2.033552    0.384621    0.272544
     51          6           0       -0.132683    0.781593    1.590639
     52          1           0       -0.138945   -0.269962    1.899236
     53          1           0       -1.172126    1.091473    1.438839
     54          8           0        2.285331   -0.817600    0.330269
     55          6           0        0.487736    1.611146    2.734095
     56          1           0       -0.090974    1.410063    3.640826
     57          1           0        1.521123    1.301591    2.917109
     58          6           0        0.426275    3.114713    2.495409
     59          7           0        1.572572    3.669697    2.016082
     60          1           0        2.458594    3.201531    2.228692
     61          1           0        1.593202    4.681312    1.949600
     62          8           0       -0.611644    3.763746    2.684038
     63          7           0        2.973129    1.362866    0.229580
     64          1           0        2.655479    2.324515    0.260200
     65          6           0        4.382607    1.120527    0.491753
     66          1           0        4.496714    0.031337    0.519479
     67          6           0        4.732014    1.671452    1.895659
     68          6           0        5.275062    1.686571   -0.648337
     69          1           0        4.969040    1.175476   -1.567822
     70          1           0        6.313902    1.384125   -0.467664
     71          8           0        3.858178    2.123594    2.646277
     72          6           0        5.196872    3.188625   -0.832836
     73          6           0        4.223245    3.761282   -1.667468
     74          1           0        3.541930    3.114697   -2.216370
     75          6           0        6.082864    4.051180   -0.172025
     76          1           0        6.849096    3.663211    0.492164
     77          6           0        4.118575    5.141024   -1.825795
     78          1           0        3.368534    5.579171   -2.476777
     79          6           0        5.995060    5.432637   -0.327474
     80          1           0        6.695903    6.075151    0.201165
     81          8           0        4.852791    7.331615   -1.316413
     82          1           0        5.582487    7.791514   -0.871867
     83          6           0        5.006987    5.983318   -1.148930
     84          7           0        6.017735    1.606086    2.288348
     85          1           0        6.729791    1.279079    1.650146
     86          6           0        6.447423    2.121793    3.597506
     87          1           0        5.700999    1.787258    4.322654
     88          6           0        6.513973    3.676429    3.589170
     89          6           0        7.820686    1.550744    3.944395
     90          1           0        8.108952    1.858952    4.953511
     91          1           0        7.810123    0.456138    3.909312
     92          1           0        8.574914    1.939203    3.252961
     93          8           0        7.434007    4.251505    3.001461
     94          7           0        5.532436    4.279223    4.285088
     95          1           0        4.759469    3.740339    4.671820
     96          6           0        5.475246    5.679478    4.698319
     97          1           0        6.382143    5.917695    5.267990
     98          6           0        4.242096    5.844355    5.624562
     99          6           0        5.406607    6.707250    3.538803
    100          1           0        6.264370    6.499952    2.892460
    101          1           0        5.567559    7.692379    3.989958
    102          8           0        4.056046    6.995400    6.086952
    103          6           0        4.125369    6.740907    2.669771
    104          1           0        3.693143    5.733764    2.598279
    105          1           0        4.416590    7.009567    1.646460
    106          6           0        3.018822    7.754615    3.057691
    107          1           0        2.383689    7.939527    2.185639
    108          1           0        3.469061    8.715070    3.326080
    109          7           0        2.170555    7.356113    4.189859
    110          1           0        2.682124    7.345699    5.095398
    111          7           0        0.376937    6.447072    2.988822
    112          1           0       -0.250222    5.650492    2.835581
    113          1           0        0.269372    7.279072    2.428327
    114          7           0        0.947788    5.618925    5.089742
    115          1           0        0.138565    5.014326    5.035127
    116          1           0        1.796043    5.296114    5.613371
    117          6           0        1.166636    6.475752    4.089301
    118          8           0        3.469569    4.842478    5.720018
 ---------------------------------------------------------------------

 SCF Done:  E(RB3LYP) =  -2837.66217108     A.U. after    3 cycles

 Alpha  occ. eigenvalues --  -19.31103 -19.27147 -19.23366 -19.22466 -19.20516
 Alpha  occ. eigenvalues --  -19.19342 -19.19215 -19.18786 -19.14649 -19.12675
 Alpha  occ. eigenvalues --  -19.11230 -14.59491 -14.49781 -14.45848 -14.44516
 Alpha  occ. eigenvalues --  -14.43580 -14.43351 -14.42939 -14.41094 -14.41079
 Alpha  occ. eigenvalues --  -14.40924 -14.38292 -10.44032 -10.40988 -10.40516
 Alpha  occ. eigenvalues --  -10.39461 -10.38438 -10.37629 -10.36416 -10.36244
 Alpha  occ. eigenvalues --  -10.35771 -10.34676 -10.32773 -10.31911 -10.31517
 Alpha  occ. eigenvalues --  -10.31173 -10.30889 -10.30477 -10.29878 -10.29453
 Alpha  occ. eigenvalues --  -10.28484 -10.28051 -10.26943 -10.26928 -10.26612
 Alpha  occ. eigenvalues --  -10.26601 -10.26516 -10.25735 -10.25580 -10.25053
 Alpha  occ. eigenvalues --  -10.24954 -10.24843 -10.24401 -10.24216 -10.24198
 Alpha  occ. eigenvalues --  -10.23530 -10.23175 -10.21774  -1.19950  -1.18141
 Alpha  occ. eigenvalues --   -1.14462  -1.13375  -1.12430  -1.11489  -1.11337
 Alpha  occ. eigenvalues --   -1.10719  -1.09886  -1.07094  -1.06399  -1.06241
 Alpha  occ. eigenvalues --   -1.05181  -1.02483  -1.00934  -1.00120  -0.99269
 Alpha  occ. eigenvalues --   -0.97102  -0.96469  -0.95968  -0.95015  -0.94312
 Alpha  occ. eigenvalues --   -0.93729  -0.91059  -0.90995  -0.87794  -0.86675
 Alpha  occ. eigenvalues --   -0.85873  -0.85145  -0.83261  -0.82774  -0.82043
 Alpha  occ. eigenvalues --   -0.80696  -0.80298  -0.80109  -0.78252  -0.77423
 Alpha  occ. eigenvalues --   -0.76345  -0.75039  -0.74629  -0.73744  -0.72778
 Alpha  occ. eigenvalues --   -0.72579  -0.72216  -0.71329  -0.70728  -0.69644
 Alpha  occ. eigenvalues --   -0.68824  -0.68450  -0.68072  -0.67627  -0.67213
 Alpha  occ. eigenvalues --   -0.66540  -0.66231  -0.66043  -0.65679  -0.64473
 Alpha  occ. eigenvalues --   -0.64171  -0.63898  -0.63631  -0.62758  -0.62298
 Alpha  occ. eigenvalues --   -0.60946  -0.60410  -0.60144  -0.59799  -0.59452
 Alpha  occ. eigenvalues --   -0.59162  -0.58801  -0.58329  -0.57520  -0.56953
 Alpha  occ. eigenvalues --   -0.56739  -0.56408  -0.56193  -0.55682  -0.55486
 Alpha  occ. eigenvalues --   -0.54976  -0.54238  -0.53962  -0.53689  -0.53488
 Alpha  occ. eigenvalues --   -0.53337  -0.53156  -0.53102  -0.52985  -0.52712
 Alpha  occ. eigenvalues --   -0.52087  -0.52054  -0.51823  -0.51230  -0.51136
 Alpha  occ. eigenvalues --   -0.50738  -0.50691  -0.50335  -0.49681  -0.49582
 Alpha  occ. eigenvalues --   -0.49347  -0.49153  -0.48822  -0.48750  -0.48578
 Alpha  occ. eigenvalues --   -0.48455  -0.48407  -0.48209  -0.47635  -0.47317
 Alpha  occ. eigenvalues --   -0.47133  -0.47065  -0.46505  -0.46287  -0.45935
 Alpha  occ. eigenvalues --   -0.45840  -0.45763  -0.45720  -0.45570  -0.45098
 Alpha  occ. eigenvalues --   -0.44923  -0.44406  -0.44267  -0.44136  -0.43830
 Alpha  occ. eigenvalues --   -0.43521  -0.43038  -0.42994  -0.42928  -0.42661
 Alpha  occ. eigenvalues --   -0.42435  -0.42083  -0.41905  -0.41746  -0.41638
 Alpha  occ. eigenvalues --   -0.41193  -0.41000  -0.40926  -0.40461  -0.39852
 Alpha  occ. eigenvalues --   -0.39518  -0.38990  -0.38811  -0.38466  -0.37712
 Alpha  occ. eigenvalues --   -0.37008  -0.36617  -0.35811  -0.34856  -0.34654
 Alpha  occ. eigenvalues --   -0.34154  -0.33991  -0.33739  -0.33354  -0.32776
 Alpha  occ. eigenvalues --   -0.32521  -0.32287  -0.31187  -0.30669  -0.28647
 Alpha  occ. eigenvalues --   -0.28207  -0.27558  -0.27454  -0.27051  -0.25523
 Alpha virt. eigenvalues --   -0.13220  -0.10248  -0.08230  -0.07068  -0.06653
 Alpha virt. eigenvalues --   -0.06245  -0.05486  -0.05223  -0.04942  -0.04828
 Alpha virt. eigenvalues --   -0.04609  -0.04447  -0.02807  -0.02158  -0.01698

 Mulliken charges:
               1
     1  N   -0.757554
     2  H    0.432357
     3  H    0.412692
     4  H    0.424992
     5  C   -0.117462
     6  H    0.224932
     7  C    0.636137
     8  C    0.074394
     9  H    0.191120
    10  O   -0.539274
    11  C   -0.450300
    12  H    0.177273
    13  H    0.155690
    14  H    0.208383
    15  O   -0.620223
    16  H    0.432837
    17  N   -0.616145
    18  H    0.375378
    19  C   -0.070413
    20  H    0.189705
    21  C    0.630627
    22  C   -0.080995
    23  H    0.155548
    24  O   -0.560409
    25  C   -0.282373
    26  H    0.157845
    27  H    0.158050
    28  C   -0.461842
    29  H    0.164712
    30  H    0.135815
    31  H    0.168623
    32  C   -0.461372
    33  H    0.174543
    34  H    0.156823
    35  H    0.139683
    36  N   -0.624040
    37  H    0.379840
    38  C   -0.050070
    39  H    0.186524
    40  C    0.626825
    41  C   -0.448172
    42  H    0.166972
    43  H    0.165138
    44  H    0.179934
    45  O   -0.543133
    46  N   -0.618331
    47  H    0.356150
    48  C   -0.051700
    49  H    0.183614
    50  C    0.611273
    51  C   -0.267790
    52  H    0.162651
    53  H    0.180402
    54  O   -0.535794
    55  C   -0.371658
    56  H    0.177738
    57  H    0.193293
    58  C    0.578303
    59  N   -0.806520
    60  H    0.416210
    61  H    0.351471
    62  O   -0.545431
    63  N   -0.597925
    64  H    0.353367
    65  C   -0.085664
    66  H    0.209373
    67  C    0.646774
    68  C   -0.369093
    69  H    0.169779
    70  H    0.151298
    71  O   -0.547143
    72  C    0.152242
    73  C   -0.202143
    74  H    0.126198
    75  C   -0.193584
    76  H    0.158778
    77  C   -0.159482
    78  H    0.142709
    79  C   -0.200917
    80  H    0.150611
    81  O   -0.645940
    82  H    0.415052
    83  C    0.355908
    84  N   -0.592361
    85  H    0.341414
    86  C   -0.037933
    87  H    0.172177
    88  C    0.633592
    89  C   -0.483741
    90  H    0.179706
    91  H    0.153964
    92  H    0.178779
    93  O   -0.554705
    94  N   -0.613391
    95  H    0.363115
    96  C   -0.028759
    97  H    0.168227
    98  C    0.588432
    99  C   -0.282042
   100  H    0.168541
   101  H    0.158781
   102  O   -0.594981
   103  C   -0.278302
   104  H    0.140240
   105  H    0.138566
   106  C   -0.160509
   107  H    0.137022
   108  H    0.179552
   109  N   -0.597342
   110  H    0.407295
   111  N   -0.800667
   112  H    0.396009
   113  H    0.356792
   114  N   -0.755973
   115  H    0.348514
   116  H    0.413393
   117  C    0.725039
   118  O   -0.612139
 Sum of Mulliken charges =   1.00000

 Dipole moment (field-independent basis, Debye):
    X=            -27.9862    Y=             -7.5310    Z=            -28.3988  Tot=             40.5763
 Quadrupole moment (field-independent basis, Debye-Ang):
   XX=            -80.7528   YY=           -299.6385   ZZ=           -214.8086
   XY=             62.9202   XZ=            170.9702   YZ=             30.7300

 Normal termination of Gaussian 16 at Sat Jul  2 15:33:33 2022.
