 Gaussian 16, Revision C.01,
 Gaussian 16:  ES64L-G16RevC.01  3-Jul-2019

 -------------------------------------------------------------------
 # B3LYP/6-31G* guess=read geom=check nosymm integral(ultrafinegrid)
 -------------------------------------------------------------------

 ------------------------------------------------------
 Candidate Structure: Conf:242 Charge calc in gas phase
 ------------------------------------------------------
 Structure from the checkpoint file:  "conf-242.chk"
 Charge =  1 Multiplicity = 1

                          Input orientation:
 ---------------------------------------------------------------------
 Center     Atomic      Atomic             Coordinates (Angstroms)
 Number     Number       Type             X           Y           Z
 ---------------------------------------------------------------------
      1          7           0       -3.581628   -2.733643   -6.893411
      2          1           0       -4.575620   -2.399115   -6.927792
      3          1           0       -3.386002   -3.482800   -7.558789
      4          1           0       -2.982039   -1.904460   -7.070388
      5          6           0       -3.350133   -3.080751   -5.443969
      6          1           0       -3.432811   -4.161917   -5.306734
      7          6           0       -4.499645   -2.317642   -4.730766
      8          6           0       -1.946817   -2.526767   -5.072772
      9          1           0       -1.836790   -2.594925   -3.988697
     10          8           0       -5.357215   -1.777018   -5.440725
     11          6           0       -0.811169   -3.298570   -5.736565
     12          1           0       -0.817886   -4.348465   -5.425825
     13          1           0       -0.862178   -3.254331   -6.831622
     14          1           0        0.143350   -2.854848   -5.442316
     15          8           0       -1.907809   -1.178145   -5.519768
     16          1           0       -2.337532   -0.623661   -4.828203
     17          7           0       -4.456025   -2.250943   -3.394978
     18          1           0       -3.686406   -2.708903   -2.900894
     19          6           0       -5.173688   -1.178958   -2.697825
     20          1           0       -5.944734   -0.842662   -3.396800
     21          6           0       -4.162735   -0.001766   -2.560605
     22          6           0       -5.878135   -1.733630   -1.423269
     23          1           0       -6.354392   -2.651392   -1.793885
     24          8           0       -3.150229    0.051927   -3.276134
     25          6           0       -7.035359   -0.865114   -0.869765
     26          1           0       -6.656675   -0.021999   -0.272289
     27          1           0       -7.558272   -1.492108   -0.137036
     28          6           0       -4.903938   -2.135798   -0.302832
     29          1           0       -4.393497   -1.271033    0.136642
     30          1           0       -4.142927   -2.840064   -0.655875
     31          1           0       -5.454292   -2.631568    0.503982
     32          6           0       -8.047407   -0.356827   -1.902508
     33          1           0       -8.904157    0.104667   -1.401534
     34          1           0       -8.430078   -1.176408   -2.522257
     35          1           0       -7.620892    0.399568   -2.571838
     36          7           0       -4.443628    0.964102   -1.662106
     37          1           0       -5.190213    0.796858   -1.000242
     38          6           0       -3.438795    1.963180   -1.242701
     39          1           0       -2.921662    2.296202   -2.145108
     40          6           0       -2.488245    1.191916   -0.298428
     41          6           0       -4.113442    3.134912   -0.538328
     42          1           0       -3.368468    3.893571   -0.280762
     43          1           0       -4.583984    2.801862    0.391832
     44          1           0       -4.865164    3.593815   -1.187268
     45          8           0       -2.862072    0.856026    0.818245
     46          7           0       -1.278605    0.832961   -0.835604
     47          1           0       -1.175711    0.995648   -1.831127
     48          6           0       -0.555188   -0.324047   -0.296803
     49          1           0       -1.001085   -0.497804    0.689222
     50          6           0        0.944415   -0.065876   -0.065233
     51          6           0       -0.789705   -1.556052   -1.198200
     52          1           0       -0.073369   -1.542791   -2.029386
     53          1           0       -1.785959   -1.459877   -1.632445
     54          8           0        1.728013   -1.015101    0.018414
     55          6           0       -0.713257   -2.904482   -0.480270
     56          1           0        0.316354   -3.121187   -0.182814
     57          1           0       -1.309294   -2.865715    0.443746
     58          6           0       -1.301098   -4.029132   -1.325326
     59          7           0       -0.777046   -5.255788   -1.112888
     60          1           0       -0.047625   -5.414742   -0.432914
     61          1           0       -1.187488   -6.055788   -1.575777
     62          8           0       -2.217855   -3.860592   -2.146404
     63          7           0        1.298434    1.225172    0.071913
     64          1           0        0.620095    1.973161   -0.041115
     65          6           0        2.647022    1.667520    0.387993
     66          1           0        3.055674    1.026427    1.176348
     67          6           0        2.487666    3.124701    0.865145
     68          6           0        3.565241    1.576005   -0.869179
     69          1           0        3.239282    2.343859   -1.579974
     70          1           0        3.364465    0.599523   -1.321110
     71          8           0        1.591604    3.824723    0.380875
     72          6           0        5.048659    1.697929   -0.595138
     73          6           0        5.743277    2.897787   -0.801425
     74          1           0        5.206224    3.776004   -1.149797
     75          6           0        5.776545    0.586840   -0.147064
     76          1           0        5.262647   -0.357382    0.017193
     77          6           0        7.117406    2.989969   -0.584679
     78          1           0        7.645781    3.921235   -0.762536
     79          6           0        7.150352    0.662877    0.081556
     80          1           0        7.696535   -0.212928    0.427313
     81          8           0        9.188717    1.991059    0.053405
     82          1           0        9.551326    1.117158    0.272108
     83          6           0        7.816453    1.866677   -0.146201
     84          7           0        3.372695    3.550679    1.777324
     85          1           0        4.088982    2.945349    2.171870
     86          6           0        3.446435    4.925896    2.263658
     87          1           0        3.295911    5.600049    1.414330
     88          6           0        4.873709    5.069875    2.834444
     89          6           0        2.385895    5.217234    3.337743
     90          1           0        2.460131    6.256616    3.674137
     91          1           0        1.386743    5.053578    2.924582
     92          1           0        2.530829    4.560416    4.201600
     93          8           0        5.429055    4.067312    3.307368
     94          7           0        5.391788    6.299474    2.764704
     95          1           0        4.898161    7.071425    2.306973
     96          6           0        6.736106    6.736236    3.124802
     97          1           0        6.758506    7.050641    4.178708
     98          6           0        7.001010    8.027870    2.201409
     99          6           0        7.883325    5.796158    2.818682
    100          1           0        8.703247    6.507500    2.886575
    101          1           0        7.783698    5.514448    1.763701
    102          8           0        8.209540    8.270823    1.897424
    103          6           0        8.383671    4.584942    3.594228
    104          1           0        7.797051    3.684789    3.398857
    105          1           0        8.371207    4.752956    4.678500
    106          6           0        9.855212    4.424659    3.154182
    107          1           0       10.312610    3.513560    3.555176
    108          1           0       10.450563    5.275764    3.497469
    109          7           0       10.014500    4.344520    1.685743
    110          1           0        9.782232    3.442954    1.271128
    111          7           0       10.275992    6.624594    1.042659
    112          1           0       10.716461    7.195850    0.331069
    113          1           0        9.489588    7.140939    1.530234
    114          7           0       10.684372    4.891238   -0.443704
    115          1           0       10.467185    5.484490   -1.232790
    116          1           0       10.702344    3.897560   -0.636342
    117          6           0       10.287844    5.307105    0.795952
    118          8           0        5.976507    8.641838    1.857975
 ---------------------------------------------------------------------

 SCF Done:  E(RB3LYP) =  -2837.62784778     A.U. after    1 cycles

 Alpha  occ. eigenvalues --  -19.27681 -19.26375 -19.25567 -19.23721 -19.22819
 Alpha  occ. eigenvalues --  -19.20571 -19.18168 -19.16738 -19.14487 -19.09804
 Alpha  occ. eigenvalues --  -19.09092 -14.57730 -14.47942 -14.47091 -14.46471
 Alpha  occ. eigenvalues --  -14.45460 -14.45038 -14.44992 -14.42606 -14.42202
 Alpha  occ. eigenvalues --  -14.40733 -14.37849 -10.42339 -10.41093 -10.40446
 Alpha  occ. eigenvalues --  -10.40014 -10.38682 -10.37611 -10.36687 -10.35546
 Alpha  occ. eigenvalues --  -10.34279 -10.34003 -10.32969 -10.32691 -10.31647
 Alpha  occ. eigenvalues --  -10.31391 -10.29685 -10.29646 -10.29579 -10.28947
 Alpha  occ. eigenvalues --  -10.28600 -10.27926 -10.27880 -10.27695 -10.27248
 Alpha  occ. eigenvalues --  -10.26524 -10.26471 -10.26318 -10.26186 -10.26126
 Alpha  occ. eigenvalues --  -10.26115 -10.26091 -10.25997 -10.25621 -10.23859
 Alpha  occ. eigenvalues --  -10.22502 -10.21814 -10.20790  -1.18213  -1.15144
 Alpha  occ. eigenvalues --   -1.14697  -1.14431  -1.13906  -1.12481  -1.11295
 Alpha  occ. eigenvalues --   -1.10052  -1.09185  -1.08575  -1.06115  -1.04866
 Alpha  occ. eigenvalues --   -1.03265  -1.02677  -1.01499  -1.01106  -0.98935
 Alpha  occ. eigenvalues --   -0.98600  -0.97069  -0.96783  -0.94935  -0.93541
 Alpha  occ. eigenvalues --   -0.92570  -0.91817  -0.89915  -0.88600  -0.86505
 Alpha  occ. eigenvalues --   -0.85533  -0.84887  -0.84199  -0.82466  -0.82049
 Alpha  occ. eigenvalues --   -0.81869  -0.81146  -0.80198  -0.78901  -0.77616
 Alpha  occ. eigenvalues --   -0.74552  -0.73556  -0.73324  -0.73017  -0.72596
 Alpha  occ. eigenvalues --   -0.72502  -0.71858  -0.71416  -0.70372  -0.70060
 Alpha  occ. eigenvalues --   -0.69579  -0.69298  -0.68674  -0.68045  -0.67765
 Alpha  occ. eigenvalues --   -0.66670  -0.66540  -0.66173  -0.65449  -0.64907
 Alpha  occ. eigenvalues --   -0.64051  -0.63787  -0.63684  -0.62993  -0.62310
 Alpha  occ. eigenvalues --   -0.62178  -0.62017  -0.60594  -0.59662  -0.59198
 Alpha  occ. eigenvalues --   -0.59090  -0.58761  -0.58227  -0.58145  -0.57612
 Alpha  occ. eigenvalues --   -0.57245  -0.57006  -0.56688  -0.56544  -0.55965
 Alpha  occ. eigenvalues --   -0.55651  -0.54499  -0.54242  -0.53960  -0.53606
 Alpha  occ. eigenvalues --   -0.53265  -0.53106  -0.52485  -0.52291  -0.52145
 Alpha  occ. eigenvalues --   -0.51788  -0.51650  -0.51519  -0.51253  -0.51038
 Alpha  occ. eigenvalues --   -0.50688  -0.50567  -0.50383  -0.50356  -0.50155
 Alpha  occ. eigenvalues --   -0.50062  -0.49476  -0.49423  -0.49004  -0.48940
 Alpha  occ. eigenvalues --   -0.48759  -0.48396  -0.48280  -0.48147  -0.47765
 Alpha  occ. eigenvalues --   -0.47369  -0.47291  -0.46822  -0.46304  -0.45959
 Alpha  occ. eigenvalues --   -0.45761  -0.45711  -0.45502  -0.45319  -0.45038
 Alpha  occ. eigenvalues --   -0.44777  -0.44743  -0.44392  -0.44014  -0.43855
 Alpha  occ. eigenvalues --   -0.43506  -0.43201  -0.42518  -0.42316  -0.42283
 Alpha  occ. eigenvalues --   -0.42181  -0.41830  -0.41811  -0.41418  -0.40850
 Alpha  occ. eigenvalues --   -0.40730  -0.40458  -0.40350  -0.40058  -0.39636
 Alpha  occ. eigenvalues --   -0.39159  -0.38479  -0.38332  -0.38081  -0.37949
 Alpha  occ. eigenvalues --   -0.37652  -0.37059  -0.37047  -0.36659  -0.36519
 Alpha  occ. eigenvalues --   -0.35572  -0.35465  -0.33757  -0.33689  -0.32651
 Alpha  occ. eigenvalues --   -0.32170  -0.31664  -0.31082  -0.30328  -0.29342
 Alpha  occ. eigenvalues --   -0.28554  -0.27967  -0.25076  -0.24091  -0.23305
 Alpha virt. eigenvalues --   -0.11772  -0.09816  -0.08373  -0.08212  -0.07494
 Alpha virt. eigenvalues --   -0.06966  -0.06763  -0.06499  -0.04554  -0.03030
 Alpha virt. eigenvalues --   -0.02906  -0.02878  -0.02320  -0.01960  -0.01467

 Mulliken charges:
               1
     1  N   -0.752451
     2  H    0.428224
     3  H    0.406299
     4  H    0.421429
     5  C   -0.118466
     6  H    0.217955
     7  C    0.627302
     8  C    0.065907
     9  H    0.206851
    10  O   -0.534590
    11  C   -0.455163
    12  H    0.166163
    13  H    0.139993
    14  H    0.198019
    15  O   -0.662069
    16  H    0.460488
    17  N   -0.617269
    18  H    0.419671
    19  C   -0.113929
    20  H    0.225815
    21  C    0.648896
    22  C   -0.099806
    23  H    0.159451
    24  O   -0.574888
    25  C   -0.288217
    26  H    0.144727
    27  H    0.166917
    28  C   -0.503133
    29  H    0.174142
    30  H    0.156547
    31  H    0.168547
    32  C   -0.461819
    33  H    0.172881
    34  H    0.160801
    35  H    0.149709
    36  N   -0.592581
    37  H    0.361930
    38  C   -0.058185
    39  H    0.176885
    40  C    0.621685
    41  C   -0.475867
    42  H    0.189339
    43  H    0.182967
    44  H    0.170863
    45  O   -0.510054
    46  N   -0.616674
    47  H    0.345126
    48  C   -0.068064
    49  H    0.212688
    50  C    0.618682
    51  C   -0.281059
    52  H    0.154403
    53  H    0.158618
    54  O   -0.552306
    55  C   -0.380009
    56  H    0.200653
    57  H    0.190253
    58  C    0.620004
    59  N   -0.730127
    60  H    0.363203
    61  H    0.352398
    62  O   -0.564491
    63  N   -0.616508
    64  H    0.363603
    65  C   -0.018613
    66  H    0.170353
    67  C    0.615297
    68  C   -0.362455
    69  H    0.160625
    70  H    0.174062
    71  O   -0.558868
    72  C    0.161925
    73  C   -0.186189
    74  H    0.153167
    75  C   -0.194666
    76  H    0.154585
    77  C   -0.150985
    78  H    0.135936
    79  C   -0.178273
    80  H    0.133991
    81  O   -0.687123
    82  H    0.424096
    83  C    0.345187
    84  N   -0.613963
    85  H    0.354938
    86  C   -0.032769
    87  H    0.172092
    88  C    0.611035
    89  C   -0.446751
    90  H    0.164929
    91  H    0.172525
    92  H    0.160109
    93  O   -0.568358
    94  N   -0.623786
    95  H    0.356519
    96  C   -0.055725
    97  H    0.151780
    98  C    0.596568
    99  C   -0.272674
   100  H    0.150435
   101  H    0.119541
   102  O   -0.610026
   103  C   -0.249776
   104  H    0.171317
   105  H    0.150096
   106  C   -0.178804
   107  H    0.158275
   108  H    0.189557
   109  N   -0.600678
   110  H    0.384654
   111  N   -0.772589
   112  H    0.349680
   113  H    0.447145
   114  N   -0.758884
   115  H    0.359195
   116  H    0.363316
   117  C    0.735299
   118  O   -0.568588
 Sum of Mulliken charges =   1.00000

 Dipole moment (field-independent basis, Debye):
    X=             -1.4902    Y=            -19.3597    Z=            -21.1565  Tot=             28.7161
 Quadrupole moment (field-independent basis, Debye-Ang):
   XX=            -98.3387   YY=           -366.6673   ZZ=           -226.1918
   XY=             16.9465   XZ=             40.8254   YZ=             31.0484

 Normal termination of Gaussian 16 at Sat Jul  2 15:33:06 2022.
