 Gaussian 16, Revision C.01,
 Gaussian 16:  ES64L-G16RevC.01  3-Jul-2019

 -------------------------------------------------------------------
 # B3LYP/6-31G* guess=read geom=check nosymm integral(ultrafinegrid)
 -------------------------------------------------------------------

 ------------------------------------------------------
 Candidate Structure: Conf:364 Charge calc in gas phase
 ------------------------------------------------------
 Structure from the checkpoint file:  "conf-364.chk"
 Charge =  1 Multiplicity = 1

                          Input orientation:
 ---------------------------------------------------------------------
 Center     Atomic      Atomic             Coordinates (Angstroms)
 Number     Number       Type             X           Y           Z
 ---------------------------------------------------------------------
      1          7           0       -2.411773    5.484134   -4.824748
      2          1           0       -3.117432    5.859076   -5.459471
      3          1           0       -1.473595    5.989626   -4.924322
      4          1           0       -2.776585    5.481519   -3.848481
      5          6           0       -2.018299    4.070507   -5.100846
      6          1           0       -2.352872    3.795232   -6.103650
      7          6           0       -2.689283    3.230617   -3.999071
      8          6           0       -0.431283    4.038804   -5.010348
      9          1           0       -0.160845    3.714297   -3.997595
     10          8           0       -3.158774    3.817173   -3.016805
     11          6           0        0.157648    3.080069   -6.040453
     12          1           0       -0.195595    2.052000   -5.893009
     13          1           0       -0.095213    3.403750   -7.056163
     14          1           0        1.247071    3.077492   -5.947142
     15          8           0        0.026912    5.358207   -5.209811
     16          1           0        0.582929    5.608215   -4.357931
     17          7           0       -2.669688    1.903665   -4.165166
     18          1           0       -2.214400    1.468357   -4.963936
     19          6           0       -3.037189    0.954274   -3.112004
     20          1           0       -2.850167    1.447882   -2.155078
     21          6           0       -2.068821   -0.232803   -3.302108
     22          6           0       -4.544354    0.562840   -3.188232
     23          1           0       -5.075552    1.525221   -3.176043
     24          8           0       -1.637923   -0.503631   -4.428048
     25          6           0       -5.022970   -0.240493   -1.960557
     26          1           0       -4.492011   -1.200535   -1.914896
     27          1           0       -6.076857   -0.492343   -2.135097
     28          6           0       -4.893911   -0.164537   -4.494640
     29          1           0       -4.410522   -1.145714   -4.554965
     30          1           0       -4.588189    0.409746   -5.375689
     31          1           0       -5.976254   -0.319025   -4.559149
     32          6           0       -4.911704    0.483559   -0.612310
     33          1           0       -5.392169   -0.103215    0.177316
     34          1           0       -5.401805    1.463894   -0.646747
     35          1           0       -3.874123    0.644792   -0.296583
     36          7           0       -1.756260   -0.900221   -2.177139
     37          1           0       -2.093078   -0.581361   -1.271267
     38          6           0       -0.804568   -1.999105   -2.069762
     39          1           0       -1.173734   -2.862997   -2.638650
     40          6           0       -0.775605   -2.344453   -0.561499
     41          6           0        0.593811   -1.604681   -2.583248
     42          1           0        1.284075   -2.455279   -2.551944
     43          1           0        0.996479   -0.791521   -1.971755
     44          1           0        0.512470   -1.276295   -3.620820
     45          8           0       -1.472627   -1.713160    0.236572
     46          7           0        0.087090   -3.310987   -0.163193
     47          1           0        0.727225   -3.694352   -0.847378
     48          6           0        0.423212   -3.524705    1.257339
     49          1           0       -0.470992   -3.270067    1.830665
     50          6           0        1.572395   -2.566970    1.688785
     51          6           0        0.793504   -4.985333    1.524367
     52          1           0        1.169231   -5.044343    2.547935
     53          1           0        1.630294   -5.275718    0.875788
     54          8           0        2.607308   -2.975330    2.206688
     55          6           0       -0.368380   -5.965762    1.337247
     56          1           0       -0.841810   -5.832889    0.354800
     57          1           0        0.015313   -6.994562    1.353481
     58          6           0       -1.445622   -5.825945    2.417728
     59          7           0       -2.444062   -6.756876    2.357049
     60          1           0       -2.379163   -7.576782    1.772208
     61          1           0       -3.134780   -6.754015    3.095189
     62          8           0       -1.436418   -4.934742    3.256747
     63          7           0        1.319932   -1.258584    1.416861
     64          1           0        0.422260   -1.002021    1.017291
     65          6           0        2.270929   -0.164895    1.531962
     66          1           0        2.501698    0.028477    2.588230
     67          6           0        1.560496    1.059105    0.915174
     68          6           0        3.603513   -0.477968    0.785820
     69          1           0        3.368690   -0.636618   -0.272600
     70          1           0        3.964134   -1.427581    1.190948
     71          8           0        0.704031    0.901956    0.040315
     72          6           0        4.655782    0.596078    0.930062
     73          6           0        5.065498    1.356763   -0.171964
     74          1           0        4.629839    1.159795   -1.147919
     75          6           0        5.244017    0.874697    2.173001
     76          1           0        4.973447    0.281694    3.043234
     77          6           0        6.011876    2.370831   -0.046435
     78          1           0        6.310035    2.955648   -0.910830
     79          6           0        6.181715    1.897316    2.319834
     80          1           0        6.620970    2.100870    3.294321
     81          8           0        7.469125    3.690072    1.301043
     82          1           0        7.641040    3.883839    2.236183
     83          6           0        6.552317    2.649848    1.206668
     84          7           0        1.918804    2.276872    1.382414
     85          1           0        2.668651    2.374421    2.055793
     86          6           0        1.303825    3.505603    0.881893
     87          1           0        0.699865    3.200891    0.025788
     88          6           0        2.397741    4.503602    0.461196
     89          6           0        0.408681    4.150283    1.950291
     90          1           0       -0.080289    5.045529    1.550297
     91          1           0       -0.364334    3.445755    2.271464
     92          1           0        1.007467    4.447756    2.816648
     93          8           0        3.250384    4.867496    1.274342
     94          7           0        2.297066    4.927610   -0.817167
     95          1           0        1.503530    4.626954   -1.381038
     96          6           0        2.901392    6.115244   -1.413617
     97          1           0        2.696916    6.984472   -0.770611
     98          6           0        2.175149    6.364192   -2.787955
     99          6           0        4.416222    6.069053   -1.674259
    100          1           0        4.584681    6.927498   -2.338409
    101          1           0        4.641073    5.165949   -2.259124
    102          8           0        2.658264    7.203264   -3.548897
    103          6           0        5.342259    6.151913   -0.450403
    104          1           0        5.453208    5.176612    0.026775
    105          1           0        4.903495    6.800715    0.315646
    106          6           0        6.712041    6.745543   -0.801547
    107          1           0        7.421488    6.659377    0.025220
    108          1           0        6.612865    7.811091   -1.036855
    109          7           0        7.340573    6.135418   -1.995844
    110          1           0        6.888491    6.341710   -2.878599
    111          7           0        8.889444    4.742734   -0.946701
    112          1           0        9.799117    4.305011   -0.984313
    113          1           0        8.305793    4.518788   -0.134272
    114          7           0        9.032640    5.148408   -3.222955
    115          1           0        9.630005    4.348697   -3.373199
    116          1           0        8.863996    5.758764   -4.009542
    117          6           0        8.404909    5.339226   -2.042196
    118          8           0        1.130805    5.635771   -2.977667
 ---------------------------------------------------------------------

 SCF Done:  E(RB3LYP) =  -2837.65135015     A.U. after    1 cycles

 Alpha  occ. eigenvalues --  -19.28918 -19.21685 -19.20832 -19.19501 -19.18818
 Alpha  occ. eigenvalues --  -19.18351 -19.16989 -19.16744 -19.16149 -19.15481
 Alpha  occ. eigenvalues --  -19.13329 -14.52509 -14.51272 -14.50863 -14.49986
 Alpha  occ. eigenvalues --  -14.45073 -14.43698 -14.42810 -14.42761 -14.40939
 Alpha  occ. eigenvalues --  -14.40485 -14.40436 -10.47222 -10.38785 -10.36496
 Alpha  occ. eigenvalues --  -10.35960 -10.35612 -10.34603 -10.34105 -10.33882
 Alpha  occ. eigenvalues --  -10.33876 -10.33834 -10.33331 -10.32890 -10.32258
 Alpha  occ. eigenvalues --  -10.31083 -10.30548 -10.30347 -10.28942 -10.28736
 Alpha  occ. eigenvalues --  -10.27765 -10.27612 -10.27454 -10.27224 -10.27178
 Alpha  occ. eigenvalues --  -10.27144 -10.26065 -10.25999 -10.25796 -10.25467
 Alpha  occ. eigenvalues --  -10.25197 -10.25095 -10.24792 -10.24344 -10.24067
 Alpha  occ. eigenvalues --  -10.23700 -10.23324 -10.22930  -1.16018  -1.15475
 Alpha  occ. eigenvalues --   -1.13999  -1.11734  -1.10533  -1.10376  -1.10062
 Alpha  occ. eigenvalues --   -1.08628  -1.08386  -1.07935  -1.07555  -1.05777
 Alpha  occ. eigenvalues --   -1.04746  -1.03532  -1.01543  -0.99973  -0.99378
 Alpha  occ. eigenvalues --   -0.99281  -0.98870  -0.97661  -0.96764  -0.95135
 Alpha  occ. eigenvalues --   -0.93728  -0.88358  -0.88170  -0.86497  -0.85879
 Alpha  occ. eigenvalues --   -0.85563  -0.83581  -0.83506  -0.83213  -0.81710
 Alpha  occ. eigenvalues --   -0.80626  -0.80261  -0.78662  -0.78050  -0.77506
 Alpha  occ. eigenvalues --   -0.76789  -0.74648  -0.73754  -0.72933  -0.72876
 Alpha  occ. eigenvalues --   -0.71104  -0.70567  -0.69929  -0.69850  -0.69053
 Alpha  occ. eigenvalues --   -0.68535  -0.68250  -0.67645  -0.67457  -0.66965
 Alpha  occ. eigenvalues --   -0.66372  -0.65975  -0.65359  -0.64586  -0.64049
 Alpha  occ. eigenvalues --   -0.64022  -0.63664  -0.63282  -0.62786  -0.62485
 Alpha  occ. eigenvalues --   -0.62399  -0.61516  -0.61420  -0.59510  -0.59098
 Alpha  occ. eigenvalues --   -0.58434  -0.57894  -0.57792  -0.57518  -0.56454
 Alpha  occ. eigenvalues --   -0.56330  -0.55750  -0.55184  -0.54960  -0.54735
 Alpha  occ. eigenvalues --   -0.54546  -0.54508  -0.53859  -0.53605  -0.52979
 Alpha  occ. eigenvalues --   -0.52680  -0.52521  -0.52184  -0.51875  -0.51659
 Alpha  occ. eigenvalues --   -0.51418  -0.51232  -0.50842  -0.50709  -0.50641
 Alpha  occ. eigenvalues --   -0.50235  -0.50013  -0.49953  -0.49013  -0.48858
 Alpha  occ. eigenvalues --   -0.48801  -0.48705  -0.48149  -0.47966  -0.47806
 Alpha  occ. eigenvalues --   -0.47636  -0.47383  -0.47160  -0.47058  -0.46973
 Alpha  occ. eigenvalues --   -0.46554  -0.46385  -0.46095  -0.45617  -0.45535
 Alpha  occ. eigenvalues --   -0.45002  -0.44857  -0.44652  -0.44281  -0.44224
 Alpha  occ. eigenvalues --   -0.43859  -0.43768  -0.43606  -0.43276  -0.42801
 Alpha  occ. eigenvalues --   -0.42692  -0.42573  -0.42450  -0.42363  -0.42256
 Alpha  occ. eigenvalues --   -0.42036  -0.41840  -0.41657  -0.41423  -0.41374
 Alpha  occ. eigenvalues --   -0.41204  -0.40985  -0.40951  -0.40155  -0.39578
 Alpha  occ. eigenvalues --   -0.39537  -0.39479  -0.39252  -0.38843  -0.38392
 Alpha  occ. eigenvalues --   -0.36836  -0.34902  -0.34730  -0.34505  -0.33567
 Alpha  occ. eigenvalues --   -0.33308  -0.33010  -0.32710  -0.32428  -0.32101
 Alpha  occ. eigenvalues --   -0.31688  -0.31513  -0.31194  -0.30292  -0.30087
 Alpha  occ. eigenvalues --   -0.29997  -0.29796  -0.29643  -0.29412  -0.27386
 Alpha virt. eigenvalues --   -0.11484  -0.08835  -0.07444  -0.07410  -0.07342
 Alpha virt. eigenvalues --   -0.06118  -0.04921  -0.04781  -0.04546  -0.03797
 Alpha virt. eigenvalues --   -0.03200  -0.02770  -0.02450  -0.02375  -0.02089

 Mulliken charges:
               1
     1  N   -0.756771
     2  H    0.395146
     3  H    0.426130
     4  H    0.413592
     5  C   -0.133786
     6  H    0.193032
     7  C    0.635215
     8  C    0.140480
     9  H    0.170261
    10  O   -0.538179
    11  C   -0.464661
    12  H    0.156466
    13  H    0.161112
    14  H    0.177873
    15  O   -0.684363
    16  H    0.468202
    17  N   -0.610847
    18  H    0.369153
    19  C   -0.070105
    20  H    0.188476
    21  C    0.639504
    22  C   -0.072872
    23  H    0.147508
    24  O   -0.560742
    25  C   -0.269058
    26  H    0.143836
    27  H    0.148376
    28  C   -0.459419
    29  H    0.162818
    30  H    0.139544
    31  H    0.155913
    32  C   -0.461455
    33  H    0.163203
    34  H    0.154167
    35  H    0.149687
    36  N   -0.635799
    37  H    0.384640
    38  C   -0.022084
    39  H    0.181384
    40  C    0.614840
    41  C   -0.488097
    42  H    0.134616
    43  H    0.189379
    44  H    0.199556
    45  O   -0.535952
    46  N   -0.602804
    47  H    0.333756
    48  C   -0.094964
    49  H    0.238128
    50  C    0.627561
    51  C   -0.266259
    52  H    0.195103
    53  H    0.135723
    54  O   -0.527759
    55  C   -0.379231
    56  H    0.165324
    57  H    0.163047
    58  C    0.601325
    59  N   -0.745182
    60  H    0.337598
    61  H    0.347986
    62  O   -0.499675
    63  N   -0.662656
    64  H    0.391041
    65  C    0.006522
    66  H    0.163248
    67  C    0.596879
    68  C   -0.380815
    69  H    0.151528
    70  H    0.213606
    71  O   -0.545283
    72  C    0.165915
    73  C   -0.184496
    74  H    0.141418
    75  C   -0.208970
    76  H    0.160585
    77  C   -0.156037
    78  H    0.120156
    79  C   -0.180796
    80  H    0.142357
    81  O   -0.700477
    82  H    0.430275
    83  C    0.372065
    84  N   -0.596035
    85  H    0.344961
    86  C   -0.059291
    87  H    0.178370
    88  C    0.616117
    89  C   -0.445230
    90  H    0.159314
    91  H    0.165726
    92  H    0.168700
    93  O   -0.557774
    94  N   -0.622046
    95  H    0.359004
    96  C   -0.044501
    97  H    0.163168
    98  C    0.613936
    99  C   -0.287551
   100  H    0.162703
   101  H    0.124259
   102  O   -0.546512
   103  C   -0.264883
   104  H    0.181308
   105  H    0.176083
   106  C   -0.184628
   107  H    0.173390
   108  H    0.190885
   109  N   -0.583248
   110  H    0.368658
   111  N   -0.786010
   112  H    0.367872
   113  H    0.439939
   114  N   -0.761669
   115  H    0.377159
   116  H    0.380529
   117  C    0.795413
   118  O   -0.673778
 Sum of Mulliken charges =   1.00000

 Dipole moment (field-independent basis, Debye):
    X=             20.9256    Y=             12.8008    Z=            -13.2604  Tot=             27.8851
 Quadrupole moment (field-independent basis, Debye-Ang):
   XX=            -45.4483   YY=           -209.9907   ZZ=           -279.9346
   XY=            119.0448   XZ=            -13.0335   YZ=            -45.0685

 Normal termination of Gaussian 16 at Sat Jul  2 15:32:48 2022.
