 Gaussian 16, Revision C.01,
 Gaussian 16:  ES64L-G16RevC.01  3-Jul-2019

 -------------------------------------------------------------------
 # B3LYP/6-31G* guess=read geom=check nosymm integral(ultrafinegrid)
 -------------------------------------------------------------------

 ------------------------------------------------------
 Candidate Structure: Conf:448 Charge calc in gas phase
 ------------------------------------------------------
 Structure from the checkpoint file:  "conf-448.chk"
 Charge =  1 Multiplicity = 1

                          Input orientation:
 ---------------------------------------------------------------------
 Center     Atomic      Atomic             Coordinates (Angstroms)
 Number     Number       Type             X           Y           Z
 ---------------------------------------------------------------------
      1          7           0       -6.418625   -5.613636   -3.534709
      2          1           0       -6.170170   -6.079952   -2.658236
      3          1           0       -6.722976   -6.312193   -4.234764
      4          1           0       -7.144777   -4.880903   -3.327574
      5          6           0       -5.288164   -4.821683   -4.133146
      6          1           0       -4.340551   -5.252499   -3.799810
      7          6           0       -5.527946   -3.383535   -3.606625
      8          6           0       -5.437214   -4.924232   -5.685483
      9          1           0       -6.266353   -4.270888   -5.980698
     10          8           0       -6.671727   -3.115186   -3.212352
     11          6           0       -4.167785   -4.532496   -6.429826
     12          1           0       -3.871163   -3.500558   -6.219483
     13          1           0       -3.331612   -5.188855   -6.154484
     14          1           0       -4.337310   -4.618786   -7.506858
     15          8           0       -5.877010   -6.247793   -6.001880
     16          1           0       -5.110741   -6.795442   -6.241415
     17          7           0       -4.492835   -2.556957   -3.662169
     18          1           0       -3.592468   -2.833749   -4.057408
     19          6           0       -4.531486   -1.123911   -3.355292
     20          1           0       -5.509797   -0.739218   -3.656896
     21          6           0       -3.412753   -0.536469   -4.248701
     22          6           0       -4.324192   -0.875882   -1.822775
     23          1           0       -5.051699   -1.547535   -1.344702
     24          8           0       -2.554438   -1.290340   -4.722635
     25          6           0       -4.680614    0.555304   -1.364715
     26          1           0       -4.005247    1.291112   -1.816746
     27          1           0       -4.461922    0.603844   -0.291640
     28          6           0       -2.916457   -1.282732   -1.360939
     29          1           0       -2.139846   -0.700423   -1.868940
     30          1           0       -2.713152   -2.342705   -1.553886
     31          1           0       -2.803563   -1.098714   -0.288655
     32          6           0       -6.138557    0.969736   -1.602172
     33          1           0       -6.337083    1.941390   -1.138982
     34          1           0       -6.836837    0.244062   -1.167858
     35          1           0       -6.390320    1.069296   -2.666492
     36          7           0       -3.446639    0.794823   -4.456556
     37          1           0       -4.112775    1.355366   -3.934155
     38          6           0       -2.291370    1.567499   -4.940449
     39          1           0       -1.516632    0.844005   -5.202771
     40          6           0       -1.881932    2.432422   -3.731087
     41          6           0       -2.662358    2.432250   -6.148217
     42          1           0       -1.787678    2.990305   -6.498976
     43          1           0       -3.439496    3.153124   -5.875523
     44          1           0       -3.027763    1.806251   -6.967604
     45          8           0       -2.751767    3.063198   -3.125105
     46          7           0       -0.589604    2.397437   -3.351276
     47          1           0        0.116245    1.859244   -3.844751
     48          6           0       -0.162835    2.932097   -2.064722
     49          1           0       -0.571802    3.940958   -1.945676
     50          6           0        1.373928    2.940352   -2.081676
     51          6           0       -0.665950    2.011299   -0.912508
     52          1           0        0.034700    1.172479   -0.810554
     53          1           0       -1.624016    1.587975   -1.216620
     54          8           0        1.994748    2.245032   -2.883083
     55          6           0       -0.880269    2.691461    0.448552
     56          1           0       -0.011402    3.274209    0.759838
     57          1           0       -1.746066    3.360389    0.387416
     58          6           0       -1.176491    1.619760    1.497833
     59          7           0       -0.223159    1.497234    2.458413
     60          1           0        0.654258    2.006814    2.406433
     61          1           0       -0.331616    0.767988    3.150254
     62          8           0       -2.182630    0.914975    1.445475
     63          7           0        1.967478    3.706382   -1.124369
     64          1           0        1.368685    4.103971   -0.410092
     65          6           0        3.326488    3.441864   -0.664623
     66          1           0        3.757694    2.730532   -1.372472
     67          6           0        3.223821    2.786989    0.735930
     68          6           0        4.170848    4.744565   -0.662846
     69          1           0        3.749441    5.439670    0.073202
     70          1           0        4.033379    5.205078   -1.648852
     71          8           0        2.248445    3.031512    1.464062
     72          6           0        5.643963    4.522894   -0.384067
     73          6           0        6.266678    5.072735    0.743148
     74          1           0        5.689994    5.695024    1.422758
     75          6           0        6.424844    3.742059   -1.248143
     76          1           0        5.983967    3.323615   -2.150026
     77          6           0        7.611513    4.833231    1.023601
     78          1           0        8.079884    5.264369    1.902811
     79          6           0        7.764218    3.478751   -0.972894
     80          1           0        8.346664    2.853717   -1.647050
     81          8           0        9.672485    3.738861    0.495604
     82          1           0        9.980211    3.039727   -0.103617
     83          6           0        8.347825    4.010248    0.176315
     84          7           0        4.222020    1.959026    1.067719
     85          1           0        5.083534    1.921740    0.522519
     86          6           0        4.361214    1.314439    2.368923
     87          1           0        3.925436    1.969918    3.129999
     88          6           0        5.882160    1.179201    2.612693
     89          6           0        3.659539   -0.054495    2.408943
     90          1           0        3.804477   -0.538964    3.379966
     91          1           0        2.586049    0.065902    2.230341
     92          1           0        4.068954   -0.713310    1.635836
     93          8           0        6.675317    1.389948    1.679941
     94          7           0        6.224830    0.843244    3.860899
     95          1           0        5.554437    0.390822    4.510272
     96          6           0        7.544871    0.365645    4.252344
     97          1           0        8.037749   -0.091258    3.385994
     98          6           0        7.316139   -0.734880    5.373967
     99          6           0        8.439264    1.470845    4.820281
    100          1           0        9.360834    0.959053    5.125642
    101          1           0        7.978769    1.864798    5.738153
    102          8           0        8.364855   -1.208160    5.846090
    103          6           0        8.707326    2.630532    3.857001
    104          1           0        7.774740    3.170753    3.659643
    105          1           0        9.042601    2.255526    2.882552
    106          6           0        9.719811    3.635229    4.410791
    107          1           0        9.415927    3.991415    5.400248
    108          1           0        9.837995    4.517122    3.773278
    109          7           0       11.062086    3.041458    4.587052
    110          1           0       11.163383    2.403060    5.367375
    111          7           0       11.834773    3.512324    2.437811
    112          1           0       12.634591    3.763540    1.874720
    113          1           0       10.912014    3.652265    2.021831
    114          7           0       13.258698    2.579525    4.002307
    115          1           0       13.854489    2.183465    3.288960
    116          1           0       13.457639    2.306051    4.954620
    117          6           0       12.025476    3.030288    3.672271
    118          8           0        6.103071   -0.945953    5.647281
 ---------------------------------------------------------------------

 SCF Done:  E(RB3LYP) =  -2837.60011394     A.U. after    2 cycles

 Alpha  occ. eigenvalues --  -19.29968 -19.26965 -19.25310 -19.21131 -19.18588
 Alpha  occ. eigenvalues --  -19.18263 -19.17654 -19.15034 -19.14504 -19.05997
 Alpha  occ. eigenvalues --  -19.04975 -14.58628 -14.49446 -14.49222 -14.48722
 Alpha  occ. eigenvalues --  -14.48218 -14.44736 -14.42785 -14.42334 -14.40808
 Alpha  occ. eigenvalues --  -14.39100 -14.36281 -10.45539 -10.42416 -10.39685
 Alpha  occ. eigenvalues --  -10.39200 -10.38141 -10.35600 -10.35508 -10.34517
 Alpha  occ. eigenvalues --  -10.32908 -10.32831 -10.32013 -10.31589 -10.31147
 Alpha  occ. eigenvalues --  -10.30981 -10.30813 -10.29971 -10.29588 -10.27314
 Alpha  occ. eigenvalues --  -10.27206 -10.25867 -10.25810 -10.25772 -10.25652
 Alpha  occ. eigenvalues --  -10.25591 -10.25535 -10.25163 -10.25023 -10.24093
 Alpha  occ. eigenvalues --  -10.24062 -10.23989 -10.23904 -10.23897 -10.23619
 Alpha  occ. eigenvalues --  -10.21961 -10.21655 -10.21382  -1.18427  -1.16877
 Alpha  occ. eigenvalues --   -1.14141  -1.13867  -1.13066  -1.12308  -1.10833
 Alpha  occ. eigenvalues --   -1.10032  -1.08985  -1.06567  -1.05810  -1.04834
 Alpha  occ. eigenvalues --   -1.03190  -1.02001  -1.01075  -0.99183  -0.99056
 Alpha  occ. eigenvalues --   -0.98944  -0.97300  -0.93849  -0.93389  -0.92524
 Alpha  occ. eigenvalues --   -0.92121  -0.90325  -0.88922  -0.86366  -0.85984
 Alpha  occ. eigenvalues --   -0.85015  -0.84835  -0.83906  -0.81576  -0.81489
 Alpha  occ. eigenvalues --   -0.81120  -0.79647  -0.78703  -0.78522  -0.77457
 Alpha  occ. eigenvalues --   -0.76839  -0.75878  -0.73242  -0.72873  -0.72327
 Alpha  occ. eigenvalues --   -0.71635  -0.71403  -0.71355  -0.71266  -0.69703
 Alpha  occ. eigenvalues --   -0.69454  -0.68998  -0.68562  -0.67809  -0.66918
 Alpha  occ. eigenvalues --   -0.65860  -0.65600  -0.65401  -0.64558  -0.64249
 Alpha  occ. eigenvalues --   -0.63926  -0.63679  -0.62719  -0.62524  -0.62341
 Alpha  occ. eigenvalues --   -0.62131  -0.61886  -0.61495  -0.60960  -0.58987
 Alpha  occ. eigenvalues --   -0.58422  -0.58234  -0.57702  -0.57470  -0.57046
 Alpha  occ. eigenvalues --   -0.56769  -0.56242  -0.56091  -0.55434  -0.55086
 Alpha  occ. eigenvalues --   -0.54613  -0.54071  -0.53949  -0.53628  -0.53014
 Alpha  occ. eigenvalues --   -0.52826  -0.52399  -0.52345  -0.51913  -0.51407
 Alpha  occ. eigenvalues --   -0.51146  -0.50895  -0.50473  -0.50306  -0.50126
 Alpha  occ. eigenvalues --   -0.49989  -0.49861  -0.49684  -0.49496  -0.49111
 Alpha  occ. eigenvalues --   -0.49025  -0.48900  -0.48638  -0.48305  -0.48236
 Alpha  occ. eigenvalues --   -0.48002  -0.47888  -0.47222  -0.47042  -0.46752
 Alpha  occ. eigenvalues --   -0.46588  -0.46371  -0.45908  -0.45437  -0.45238
 Alpha  occ. eigenvalues --   -0.44669  -0.44301  -0.44029  -0.43835  -0.43601
 Alpha  occ. eigenvalues --   -0.43432  -0.43419  -0.43225  -0.43160  -0.42783
 Alpha  occ. eigenvalues --   -0.42555  -0.42126  -0.42033  -0.41546  -0.41167
 Alpha  occ. eigenvalues --   -0.40772  -0.40538  -0.40454  -0.40358  -0.40190
 Alpha  occ. eigenvalues --   -0.39917  -0.39715  -0.39644  -0.39540  -0.39381
 Alpha  occ. eigenvalues --   -0.38681  -0.38357  -0.37880  -0.37445  -0.36884
 Alpha  occ. eigenvalues --   -0.36623  -0.35388  -0.35091  -0.34926  -0.33472
 Alpha  occ. eigenvalues --   -0.33369  -0.32877  -0.31930  -0.31721  -0.31705
 Alpha  occ. eigenvalues --   -0.31309  -0.30885  -0.30315  -0.28951  -0.28771
 Alpha  occ. eigenvalues --   -0.28488  -0.27522  -0.21144  -0.20863  -0.19328
 Alpha virt. eigenvalues --   -0.11383  -0.10032  -0.09500  -0.07261  -0.07059
 Alpha virt. eigenvalues --   -0.05806  -0.05489  -0.04992  -0.04897  -0.04226
 Alpha virt. eigenvalues --   -0.03896  -0.03425  -0.02462  -0.01982  -0.01227

 Mulliken charges:
               1
     1  N   -0.747512
     2  H    0.414412
     3  H    0.424924
     4  H    0.426907
     5  C   -0.140127
     6  H    0.201968
     7  C    0.651306
     8  C    0.129502
     9  H    0.193582
    10  O   -0.538277
    11  C   -0.509168
    12  H    0.203899
    13  H    0.164720
    14  H    0.205515
    15  O   -0.629913
    16  H    0.423198
    17  N   -0.603390
    18  H    0.373095
    19  C   -0.083195
    20  H    0.191282
    21  C    0.629347
    22  C   -0.079523
    23  H    0.146194
    24  O   -0.554066
    25  C   -0.308440
    26  H    0.166707
    27  H    0.191055
    28  C   -0.475940
    29  H    0.155782
    30  H    0.122649
    31  H    0.205329
    32  C   -0.460672
    33  H    0.171282
    34  H    0.153390
    35  H    0.129369
    36  N   -0.595822
    37  H    0.364299
    38  C   -0.068476
    39  H    0.182365
    40  C    0.631513
    41  C   -0.447663
    42  H    0.168219
    43  H    0.175984
    44  H    0.165235
    45  O   -0.542711
    46  N   -0.616621
    47  H    0.356746
    48  C   -0.042244
    49  H    0.182966
    50  C    0.601612
    51  C   -0.290198
    52  H    0.157607
    53  H    0.195433
    54  O   -0.528776
    55  C   -0.381782
    56  H    0.165550
    57  H    0.176886
    58  C    0.586522
    59  N   -0.766322
    60  H    0.388519
    61  H    0.338733
    62  O   -0.529229
    63  N   -0.590545
    64  H    0.351044
    65  C   -0.092373
    66  H    0.192901
    67  C    0.625771
    68  C   -0.349302
    69  H    0.157670
    70  H    0.175298
    71  O   -0.566187
    72  C    0.166110
    73  C   -0.188675
    74  H    0.142328
    75  C   -0.205833
    76  H    0.148905
    77  C   -0.145987
    78  H    0.132849
    79  C   -0.170636
    80  H    0.134144
    81  O   -0.695324
    82  H    0.421154
    83  C    0.383894
    84  N   -0.595802
    85  H    0.366831
    86  C   -0.052611
    87  H    0.175448
    88  C    0.606182
    89  C   -0.456580
    90  H    0.192545
    91  H    0.149385
    92  H    0.158726
    93  O   -0.581068
    94  N   -0.605139
    95  H    0.358465
    96  C   -0.074092
    97  H    0.138196
    98  C    0.586902
    99  C   -0.267774
   100  H    0.135901
   101  H    0.139823
   102  O   -0.596949
   103  C   -0.264474
   104  H    0.168911
   105  H    0.152203
   106  C   -0.190401
   107  H    0.188796
   108  H    0.169098
   109  N   -0.573039
   110  H    0.372503
   111  N   -0.794092
   112  H    0.369073
   113  H    0.435914
   114  N   -0.757832
   115  H    0.375159
   116  H    0.378976
   117  C    0.803007
   118  O   -0.612938
 Sum of Mulliken charges =   1.00000

 Dipole moment (field-independent basis, Debye):
    X=              6.9128    Y=             -3.4810    Z=            -19.4850  Tot=             20.9659
 Quadrupole moment (field-independent basis, Debye-Ang):
   XX=            154.1344   YY=           -186.6713   ZZ=           -299.4987
   XY=            264.4231   XZ=            113.8388   YZ=            135.9476

 Normal termination of Gaussian 16 at Sat Jul  2 15:33:13 2022.
