 Gaussian 16, Revision C.01,
 Gaussian 16:  ES64L-G16RevC.01  3-Jul-2019

 -------------------------------------------------------------------
 # B3LYP/6-31G* guess=read geom=check nosymm integral(ultrafinegrid)
 -------------------------------------------------------------------

 ------------------------------------------------------
 Candidate Structure: Conf:450 Charge calc in gas phase
 ------------------------------------------------------
 Structure from the checkpoint file:  "conf-450.chk"
 Charge =  1 Multiplicity = 1

                          Input orientation:
 ---------------------------------------------------------------------
 Center     Atomic      Atomic             Coordinates (Angstroms)
 Number     Number       Type             X           Y           Z
 ---------------------------------------------------------------------
      1          7           0      -10.159615    1.064259   -4.482787
      2          1           0      -10.547972    1.608400   -3.707841
      3          1           0      -10.889280    0.450488   -4.886082
      4          1           0       -9.740942    1.730127   -5.179546
      5          6           0       -8.998242    0.195293   -4.082689
      6          1           0       -9.087766   -0.044652   -3.020101
      7          6           0       -7.756271    1.060124   -4.415014
      8          6           0       -9.080137   -1.097469   -4.959197
      9          1           0       -8.739491   -0.833893   -5.967198
     10          8           0       -7.914494    1.982880   -5.225896
     11          6           0       -8.246092   -2.244540   -4.404645
     12          1           0       -7.183881   -1.988907   -4.344768
     13          1           0       -8.584678   -2.527633   -3.399198
     14          1           0       -8.343270   -3.113693   -5.061452
     15          8           0      -10.459913   -1.440346   -5.110303
     16          1           0      -10.698354   -2.124698   -4.462793
     17          7           0       -6.619128    0.708292   -3.827676
     18          1           0       -6.550411   -0.113017   -3.224468
     19          6           0       -5.299198    1.262987   -4.141955
     20          1           0       -5.294518    1.537174   -5.200665
     21          6           0       -4.340523    0.079526   -3.885969
     22          6           0       -5.002401    2.533179   -3.281254
     23          1           0       -5.866912    3.186158   -3.468894
     24          8           0       -4.721737   -0.885835   -3.214426
     25          6           0       -3.741230    3.306844   -3.723403
     26          1           0       -2.845317    2.726611   -3.469115
     27          1           0       -3.690033    4.200893   -3.089567
     28          6           0       -4.937266    2.213323   -1.780083
     29          1           0       -4.049783    1.618934   -1.538768
     30          1           0       -5.823814    1.669500   -1.434407
     31          1           0       -4.878183    3.143516   -1.205443
     32          6           0       -3.714543    3.755591   -5.191006
     33          1           0       -2.856227    4.409556   -5.375220
     34          1           0       -4.620319    4.314624   -5.454688
     35          1           0       -3.633865    2.920528   -5.900288
     36          7           0       -3.114694    0.157434   -4.439679
     37          1           0       -2.831184    1.038504   -4.848166
     38          6           0       -2.038056   -0.748503   -4.039414
     39          1           0       -2.425437   -1.769485   -4.113720
     40          6           0       -1.627603   -0.435295   -2.582271
     41          6           0       -0.838526   -0.557531   -4.976951
     42          1           0       -0.001034   -1.203211   -4.697486
     43          1           0       -0.481016    0.477204   -4.922663
     44          1           0       -1.122575   -0.781998   -6.010080
     45          8           0       -1.596769    0.721622   -2.174744
     46          7           0       -1.249877   -1.514145   -1.845246
     47          1           0       -1.447691   -2.439150   -2.205959
     48          6           0       -0.709124   -1.413664   -0.488223
     49          1           0       -0.881928   -0.381943   -0.170755
     50          6           0        0.820585   -1.638345   -0.432364
     51          6           0       -1.462045   -2.393349    0.444638
     52          1           0       -1.218810   -3.424533    0.167760
     53          1           0       -2.536290   -2.256809    0.269645
     54          8           0        1.438796   -1.400774    0.601476
     55          6           0       -1.149544   -2.203790    1.932208
     56          1           0       -0.061850   -2.168372    2.069104
     57          1           0       -1.536455   -1.241372    2.291317
     58          6           0       -1.682356   -3.336702    2.800300
     59          7           0       -1.852117   -3.024693    4.114886
     60          1           0       -1.489024   -2.163648    4.498388
     61          1           0       -2.024323   -3.785408    4.759114
     62          8           0       -1.930690   -4.463821    2.366971
     63          7           0        1.384031   -2.143426   -1.557771
     64          1           0        0.878455   -2.110319   -2.434119
     65          6           0        2.802777   -2.401659   -1.703217
     66          1           0        3.325799   -1.847843   -0.918306
     67          6           0        3.194776   -1.906642   -3.106448
     68          6           0        3.147270   -3.925598   -1.580676
     69          1           0        4.239436   -4.020659   -1.546870
     70          1           0        2.811464   -4.419812   -2.500856
     71          8           0        2.351273   -1.862566   -4.012190
     72          6           0        2.500180   -4.577656   -0.383274
     73          6           0        3.072179   -4.515889    0.894451
     74          1           0        4.054289   -4.065670    1.021828
     75          6           0        1.243026   -5.181922   -0.507694
     76          1           0        0.792727   -5.276514   -1.493968
     77          6           0        2.391827   -4.981548    2.017201
     78          1           0        2.826093   -4.903214    3.009099
     79          6           0        0.546828   -5.649326    0.604150
     80          1           0       -0.436644   -6.097451    0.494896
     81          8           0        0.426323   -5.882331    3.008682
     82          1           0       -0.528777   -5.772997    2.828413
     83          6           0        1.103795   -5.512458    1.882411
     84          7           0        4.489836   -1.593351   -3.275775
     85          1           0        5.170586   -1.668837   -2.522489
     86          6           0        5.081868   -1.232313   -4.555159
     87          1           0        4.722222   -1.931791   -5.319396
     88          6           0        6.606291   -1.396903   -4.371773
     89          6           0        4.716605    0.201701   -4.978817
     90          1           0        5.156509    0.446111   -5.951163
     91          1           0        3.629868    0.291178   -5.053998
     92          1           0        5.083712    0.922827   -4.241148
     93          8           0        7.090625   -1.530848   -3.241823
     94          7           0        7.327954   -1.363006   -5.502733
     95          1           0        6.915348   -1.195203   -6.420641
     96          6           0        8.784484   -1.319171   -5.551922
     97          1           0        9.145699   -0.617306   -4.791446
     98          6           0        9.137363   -0.766363   -6.970556
     99          6           0        9.374365   -2.731030   -5.239332
    100          1           0        9.286487   -3.365150   -6.132247
    101          1           0        8.705860   -3.159742   -4.488619
    102          8           0       10.350872   -0.378048   -7.127694
    103          6           0       10.812302   -2.793895   -4.659306
    104          1           0       10.828586   -3.497608   -3.819221
    105          1           0       11.093771   -1.820787   -4.236932
    106          6           0       11.917887   -3.247114   -5.625653
    107          1           0       11.676173   -4.237426   -6.037279
    108          1           0       12.866627   -3.335032   -5.079020
    109          7           0       12.043123   -2.275324   -6.709602
    110          1           0       11.443065   -1.408191   -6.624604
    111          7           0       13.151140   -3.583680   -8.307481
    112          1           0       13.109842   -3.954443   -9.245256
    113          1           0       13.488076   -4.203565   -7.586599
    114          7           0       11.928700   -1.694113   -8.922861
    115          1           0       12.404223   -1.618510   -9.809559
    116          1           0       11.255095   -0.968464   -8.612379
    117          6           0       12.372885   -2.525603   -7.969244
    118          8           0        8.240068   -0.754976   -7.823435
 ---------------------------------------------------------------------

 SCF Done:  E(RB3LYP) =  -2837.64764207     A.U. after    1 cycles

 Alpha  occ. eigenvalues --  -19.30667 -19.26248 -19.22211 -19.18893 -19.18878
 Alpha  occ. eigenvalues --  -19.16991 -19.16345 -19.15642 -19.15155 -19.12849
 Alpha  occ. eigenvalues --  -19.11921 -14.59451 -14.49189 -14.45702 -14.45067
 Alpha  occ. eigenvalues --  -14.43574 -14.42270 -14.41671 -14.41108 -14.40092
 Alpha  occ. eigenvalues --  -14.40050 -14.38339 -10.43365 -10.40516 -10.39941
 Alpha  occ. eigenvalues --  -10.39647 -10.38986 -10.36085 -10.34607 -10.33994
 Alpha  occ. eigenvalues --  -10.33275 -10.33186 -10.32110 -10.31796 -10.31485
 Alpha  occ. eigenvalues --  -10.30224 -10.29050 -10.28983 -10.28653 -10.27658
 Alpha  occ. eigenvalues --  -10.27427 -10.27206 -10.26046 -10.25606 -10.25498
 Alpha  occ. eigenvalues --  -10.25303 -10.25187 -10.24675 -10.24180 -10.24154
 Alpha  occ. eigenvalues --  -10.23474 -10.22774 -10.22129 -10.22043 -10.21962
 Alpha  occ. eigenvalues --  -10.21861 -10.21449 -10.21136  -1.19255  -1.17689
 Alpha  occ. eigenvalues --   -1.14135  -1.13172  -1.10710  -1.08649  -1.08414
 Alpha  occ. eigenvalues --   -1.08314  -1.07418  -1.07050  -1.06782  -1.05810
 Alpha  occ. eigenvalues --   -1.05520  -1.02130  -0.99877  -0.98262  -0.96866
 Alpha  occ. eigenvalues --   -0.96673  -0.96467  -0.96268  -0.95778  -0.94819
 Alpha  occ. eigenvalues --   -0.93348  -0.90180  -0.88110  -0.86294  -0.85724
 Alpha  occ. eigenvalues --   -0.84400  -0.84155  -0.82811  -0.82346  -0.80681
 Alpha  occ. eigenvalues --   -0.79889  -0.78336  -0.77703  -0.77615  -0.77454
 Alpha  occ. eigenvalues --   -0.75605  -0.74073  -0.73050  -0.72647  -0.72213
 Alpha  occ. eigenvalues --   -0.72200  -0.70639  -0.70314  -0.70055  -0.69610
 Alpha  occ. eigenvalues --   -0.69052  -0.67386  -0.66388  -0.66036  -0.65707
 Alpha  occ. eigenvalues --   -0.65290  -0.64698  -0.64628  -0.64513  -0.63066
 Alpha  occ. eigenvalues --   -0.62898  -0.62671  -0.62253  -0.62063  -0.61731
 Alpha  occ. eigenvalues --   -0.60920  -0.60596  -0.59347  -0.59039  -0.58646
 Alpha  occ. eigenvalues --   -0.58484  -0.58265  -0.57383  -0.57248  -0.56605
 Alpha  occ. eigenvalues --   -0.56468  -0.56278  -0.56119  -0.55370  -0.54544
 Alpha  occ. eigenvalues --   -0.53926  -0.53683  -0.53096  -0.52979  -0.52742
 Alpha  occ. eigenvalues --   -0.52404  -0.52002  -0.51667  -0.51462  -0.51197
 Alpha  occ. eigenvalues --   -0.51146  -0.50953  -0.50804  -0.50360  -0.50229
 Alpha  occ. eigenvalues --   -0.49808  -0.49566  -0.49135  -0.48964  -0.48481
 Alpha  occ. eigenvalues --   -0.48336  -0.47933  -0.47806  -0.47573  -0.47393
 Alpha  occ. eigenvalues --   -0.47236  -0.46967  -0.46778  -0.46385  -0.46091
 Alpha  occ. eigenvalues --   -0.45641  -0.45192  -0.45045  -0.45002  -0.44751
 Alpha  occ. eigenvalues --   -0.44727  -0.44371  -0.44225  -0.43968  -0.43964
 Alpha  occ. eigenvalues --   -0.43890  -0.43575  -0.43268  -0.43143  -0.42784
 Alpha  occ. eigenvalues --   -0.42743  -0.42306  -0.41845  -0.41588  -0.41372
 Alpha  occ. eigenvalues --   -0.41178  -0.40936  -0.40747  -0.40383  -0.40106
 Alpha  occ. eigenvalues --   -0.39923  -0.39688  -0.39253  -0.39104  -0.38789
 Alpha  occ. eigenvalues --   -0.38377  -0.38205  -0.37877  -0.37293  -0.36288
 Alpha  occ. eigenvalues --   -0.36159  -0.35696  -0.35446  -0.34373  -0.33932
 Alpha  occ. eigenvalues --   -0.32477  -0.32438  -0.32393  -0.31106  -0.30811
 Alpha  occ. eigenvalues --   -0.30462  -0.29613  -0.29218  -0.28990  -0.28526
 Alpha  occ. eigenvalues --   -0.27897  -0.27634  -0.27066  -0.26159  -0.24395
 Alpha virt. eigenvalues --   -0.12313  -0.10294  -0.07967  -0.05635  -0.05110
 Alpha virt. eigenvalues --   -0.04748  -0.04610  -0.03471  -0.03012  -0.02809
 Alpha virt. eigenvalues --   -0.02761  -0.01917  -0.01505  -0.01379  -0.01292

 Mulliken charges:
               1
     1  N   -0.747107
     2  H    0.414697
     3  H    0.426577
     4  H    0.427030
     5  C   -0.140275
     6  H    0.202706
     7  C    0.649097
     8  C    0.130381
     9  H    0.193874
    10  O   -0.536689
    11  C   -0.510949
    12  H    0.203329
    13  H    0.166051
    14  H    0.207363
    15  O   -0.630172
    16  H    0.424889
    17  N   -0.603255
    18  H    0.373543
    19  C   -0.091671
    20  H    0.193305
    21  C    0.648607
    22  C   -0.071105
    23  H    0.146261
    24  O   -0.559032
    25  C   -0.295163
    26  H    0.176854
    27  H    0.159771
    28  C   -0.476929
    29  H    0.196777
    30  H    0.126205
    31  H    0.163944
    32  C   -0.469477
    33  H    0.173441
    34  H    0.160212
    35  H    0.131061
    36  N   -0.592736
    37  H    0.356667
    38  C   -0.062348
    39  H    0.167124
    40  C    0.637679
    41  C   -0.498142
    42  H    0.221147
    43  H    0.171157
    44  H    0.168241
    45  O   -0.520538
    46  N   -0.633675
    47  H    0.339050
    48  C   -0.051060
    49  H    0.199573
    50  C    0.629226
    51  C   -0.282785
    52  H    0.178558
    53  H    0.150248
    54  O   -0.522289
    55  C   -0.389406
    56  H    0.239144
    57  H    0.147211
    58  C    0.619527
    59  N   -0.735307
    60  H    0.345832
    61  H    0.347809
    62  O   -0.551286
    63  N   -0.613180
    64  H    0.343355
    65  C   -0.041401
    66  H    0.184241
    67  C    0.627101
    68  C   -0.367652
    69  H    0.156087
    70  H    0.150642
    71  O   -0.567102
    72  C    0.183680
    73  C   -0.172799
    74  H    0.126114
    75  C   -0.194022
    76  H    0.105944
    77  C   -0.160916
    78  H    0.136719
    79  C   -0.182028
    80  H    0.131934
    81  O   -0.681859
    82  H    0.433774
    83  C    0.346896
    84  N   -0.615217
    85  H    0.359793
    86  C   -0.033872
    87  H    0.172294
    88  C    0.617040
    89  C   -0.451258
    90  H    0.163398
    91  H    0.173703
    92  H    0.161066
    93  O   -0.558455
    94  N   -0.623403
    95  H    0.356872
    96  C   -0.042806
    97  H    0.165853
    98  C    0.592499
    99  C   -0.276341
   100  H    0.137157
   101  H    0.177595
   102  O   -0.643041
   103  C   -0.304049
   104  H    0.159100
   105  H    0.170334
   106  C   -0.146883
   107  H    0.149655
   108  H    0.162190
   109  N   -0.609066
   110  H    0.417795
   111  N   -0.760535
   112  H    0.362258
   113  H    0.368338
   114  N   -0.779572
   115  H    0.348362
   116  H    0.416050
   117  C    0.769162
   118  O   -0.544317
 Sum of Mulliken charges =   1.00000

 Dipole moment (field-independent basis, Debye):
    X=            -22.5123    Y=             -4.7640    Z=            -24.0444  Tot=             33.2811
 Quadrupole moment (field-independent basis, Debye-Ang):
   XX=            260.0149   YY=           -316.4283   ZZ=           -178.3197
   XY=           -103.7791   XZ=             -2.2657   YZ=             62.0332

 Normal termination of Gaussian 16 at Sat Jul  2 15:32:37 2022.
