 Gaussian 16, Revision C.01,
 Gaussian 16:  ES64L-G16RevC.01  3-Jul-2019

 -------------------------------------------------------------------
 # B3LYP/6-31G* guess=read geom=check nosymm integral(ultrafinegrid)
 -------------------------------------------------------------------

 ------------------------------------------------------
 Candidate Structure: Conf:578 Charge calc in gas phase
 ------------------------------------------------------
 Structure from the checkpoint file:  "conf-578.chk"
 Charge =  1 Multiplicity = 1

                          Input orientation:
 ---------------------------------------------------------------------
 Center     Atomic      Atomic             Coordinates (Angstroms)
 Number     Number       Type             X           Y           Z
 ---------------------------------------------------------------------
      1          7           0       -3.088077   -5.842516   -4.291103
      2          1           0       -3.948562   -6.216651   -3.881958
      3          1           0       -2.337027   -6.550910   -4.235988
      4          1           0       -3.291846   -5.526746   -5.270109
      5          6           0       -2.599927   -4.593152   -3.602423
      6          1           0       -2.964797   -4.600649   -2.572880
      7          6           0       -3.189948   -3.443681   -4.459384
      8          6           0       -1.048993   -4.626656   -3.623410
      9          1           0       -0.716169   -4.389857   -4.645719
     10          8           0       -3.520931   -3.719450   -5.618774
     11          6           0       -0.422129   -3.659149   -2.625614
     12          1           0       -0.663918   -2.615623   -2.852033
     13          1           0       -0.746750   -3.892803   -1.606148
     14          1           0        0.668712   -3.751282   -2.662503
     15          8           0       -0.740078   -5.992591   -3.319373
     16          1           0        0.220150   -6.127014   -3.366728
     17          7           0       -3.283150   -2.254666   -3.868134
     18          1           0       -2.857812   -2.098720   -2.954869
     19          6           0       -3.571553   -0.988801   -4.554973
     20          1           0       -3.511066   -1.171105   -5.632591
     21          6           0       -2.428125   -0.059616   -4.083376
     22          6           0       -4.992237   -0.451232   -4.194099
     23          1           0       -5.008689   -0.313505   -3.103008
     24          8           0       -1.866447   -0.286363   -3.006854
     25          6           0       -6.070985   -1.490185   -4.570419
     26          1           0       -5.782820   -2.468830   -4.168142
     27          1           0       -6.094699   -1.603103   -5.663431
     28          6           0       -5.255931    0.913086   -4.852175
     29          1           0       -5.160383    0.849465   -5.945865
     30          1           0       -4.585885    1.688478   -4.472003
     31          1           0       -6.276766    1.241815   -4.641503
     32          6           0       -7.474549   -1.154109   -4.051365
     33          1           0       -8.169597   -1.969693   -4.277626
     34          1           0       -7.881678   -0.246857   -4.507774
     35          1           0       -7.472703   -1.009980   -2.964226
     36          7           0       -2.064935    0.950842   -4.899942
     37          1           0       -2.664874    1.175540   -5.683141
     38          6           0       -1.142268    1.988932   -4.441945
     39          1           0       -0.205533    1.497412   -4.159898
     40          6           0       -1.730647    2.702823   -3.202126
     41          6           0       -0.892265    2.993351   -5.572024
     42          1           0       -0.165662    3.746167   -5.254410
     43          1           0       -1.820219    3.511405   -5.839076
     44          1           0       -0.495899    2.488596   -6.459022
     45          8           0       -2.950315    2.875218   -3.103986
     46          7           0       -0.815720    3.117658   -2.312405
     47          1           0        0.179003    3.024426   -2.508805
     48          6           0       -1.072974    3.929237   -1.127977
     49          1           0       -1.992651    4.501148   -1.287293
     50          6           0        0.145173    4.866454   -1.000826
     51          6           0       -1.188620    3.064063    0.152598
     52          1           0       -1.216259    3.721986    1.028884
     53          1           0       -0.272787    2.466130    0.230725
     54          8           0        1.210126    4.571343   -1.554139
     55          6           0       -2.420786    2.141165    0.194501
     56          1           0       -2.496767    1.554572   -0.726674
     57          1           0       -2.294486    1.444174    1.028676
     58          6           0       -3.700003    2.931018    0.487299
     59          7           0       -4.491128    3.189030   -0.596001
     60          1           0       -4.122605    3.082744   -1.537815
     61          1           0       -5.265344    3.823528   -0.447643
     62          8           0       -3.970336    3.303607    1.621693
     63          7           0       -0.019984    5.954724   -0.227506
     64          1           0       -0.915664    6.133734    0.213608
     65          6           0        1.056510    6.899551    0.082606
     66          1           0        1.734172    6.880811   -0.777815
     67          6           0        1.882024    6.435331    1.316373
     68          6           0        0.489021    8.329828    0.251742
     69          1           0        0.370211    8.758109   -0.749519
     70          1           0        1.252347    8.914986    0.771874
     71          8           0        1.998821    7.130344    2.325093
     72          6           0       -0.839681    8.427735    0.981562
     73          6           0       -2.027656    8.634973    0.261054
     74          1           0       -1.982891    8.741450   -0.821181
     75          6           0       -0.933365    8.315020    2.377668
     76          1           0       -0.028679    8.149661    2.953512
     77          6           0       -3.264088    8.728640    0.895582
     78          1           0       -4.176869    8.897937    0.333084
     79          6           0       -2.164004    8.407190    3.024840
     80          1           0       -2.213757    8.320766    4.109002
     81          8           0       -4.568614    8.712948    2.864630
     82          1           0       -4.479731    8.604069    3.824388
     83          6           0       -3.335573    8.613516    2.287159
     84          7           0        2.469948    5.224858    1.177583
     85          1           0        2.465769    4.721728    0.290582
     86          6           0        3.302636    4.651696    2.224204
     87          1           0        3.923168    5.450893    2.647369
     88          6           0        4.203055    3.596026    1.554958
     89          6           0        2.459897    4.036650    3.357130
     90          1           0        3.099418    3.635194    4.150080
     91          1           0        1.815324    4.807291    3.788031
     92          1           0        1.835778    3.223501    2.971056
     93          8           0        3.951346    3.165293    0.425763
     94          7           0        5.242729    3.179091    2.302664
     95          1           0        5.439554    3.556620    3.226017
     96          6           0        6.185195    2.140955    1.902932
     97          1           0        5.647792    1.342196    1.384706
     98          6           0        6.841259    1.612133    3.200568
     99          6           0        7.255749    2.759326    0.963326
    100          1           0        7.811494    3.504019    1.548462
    101          1           0        6.710189    3.310183    0.189172
    102          8           0        7.246740    0.397105    3.157759
    103          6           0        8.234064    1.818324    0.235196
    104          1           0        8.796151    2.427223   -0.488831
    105          1           0        7.671516    1.091185   -0.365024
    106          6           0        9.232624    1.004066    1.075579
    107          1           0        9.936700    0.491734    0.406956
    108          1           0        8.695125    0.263128    1.661204
    109          7           0       10.008990    1.846232    2.002480
    110          1           0       10.412493    2.685816    1.608132
    111          7           0        9.662127    0.650190    3.979089
    112          1           0        9.946722    0.541625    4.944218
    113          1           0        8.613015    0.419088    3.747642
    114          7           0       11.224736    2.376321    3.905618
    115          1           0       11.110964    2.576121    4.889984
    116          1           0       11.686503    3.103200    3.377248
    117          6           0       10.261589    1.617942    3.302058
    118          8           0        7.003390    2.426036    4.126415
 ---------------------------------------------------------------------

 SCF Done:  E(RB3LYP) =  -2837.63923235     A.U. after    1 cycles

 Alpha  occ. eigenvalues --  -19.30504 -19.26656 -19.22721 -19.21384 -19.19996
 Alpha  occ. eigenvalues --  -19.18433 -19.15270 -19.14627 -19.14561 -19.12650
 Alpha  occ. eigenvalues --  -19.11884 -14.59597 -14.49687 -14.46555 -14.45027
 Alpha  occ. eigenvalues --  -14.44982 -14.43687 -14.42505 -14.40959 -14.38806
 Alpha  occ. eigenvalues --  -14.38732 -14.38379 -10.43802 -10.40820 -10.40177
 Alpha  occ. eigenvalues --  -10.40025 -10.39574 -10.37054 -10.35422 -10.34622
 Alpha  occ. eigenvalues --  -10.32738 -10.32408 -10.32352 -10.31742 -10.30711
 Alpha  occ. eigenvalues --  -10.30454 -10.30012 -10.29178 -10.28595 -10.28332
 Alpha  occ. eigenvalues --  -10.27930 -10.27413 -10.26935 -10.26671 -10.25714
 Alpha  occ. eigenvalues --  -10.25470 -10.25171 -10.25027 -10.24372 -10.24067
 Alpha  occ. eigenvalues --  -10.23428 -10.23015 -10.22901 -10.22771 -10.22497
 Alpha  occ. eigenvalues --  -10.22254 -10.22219 -10.21566  -1.19501  -1.17747
 Alpha  occ. eigenvalues --   -1.14708  -1.13323  -1.11611  -1.10241  -1.09447
 Alpha  occ. eigenvalues --   -1.08724  -1.07161  -1.06396  -1.06338  -1.06275
 Alpha  occ. eigenvalues --   -1.05538  -1.02820  -1.00293  -0.98881  -0.98571
 Alpha  occ. eigenvalues --   -0.97375  -0.95627  -0.95337  -0.94750  -0.93673
 Alpha  occ. eigenvalues --   -0.93608  -0.90666  -0.88977  -0.87391  -0.85695
 Alpha  occ. eigenvalues --   -0.85099  -0.84290  -0.82952  -0.82812  -0.80742
 Alpha  occ. eigenvalues --   -0.79787  -0.78965  -0.78309  -0.77852  -0.77289
 Alpha  occ. eigenvalues --   -0.76466  -0.74285  -0.74161  -0.72888  -0.72486
 Alpha  occ. eigenvalues --   -0.71877  -0.71751  -0.70522  -0.70047  -0.69442
 Alpha  occ. eigenvalues --   -0.68691  -0.67785  -0.67195  -0.66603  -0.66194
 Alpha  occ. eigenvalues --   -0.65854  -0.65691  -0.65044  -0.64788  -0.64389
 Alpha  occ. eigenvalues --   -0.63252  -0.62456  -0.62294  -0.61894  -0.61437
 Alpha  occ. eigenvalues --   -0.60756  -0.60476  -0.59628  -0.59319  -0.58957
 Alpha  occ. eigenvalues --   -0.58862  -0.58070  -0.57918  -0.57502  -0.56956
 Alpha  occ. eigenvalues --   -0.56482  -0.56344  -0.55842  -0.55343  -0.54867
 Alpha  occ. eigenvalues --   -0.54217  -0.54150  -0.53660  -0.53155  -0.52870
 Alpha  occ. eigenvalues --   -0.52637  -0.52197  -0.51846  -0.51742  -0.51594
 Alpha  occ. eigenvalues --   -0.51373  -0.51101  -0.51041  -0.50591  -0.50058
 Alpha  occ. eigenvalues --   -0.50031  -0.49765  -0.49221  -0.49017  -0.48947
 Alpha  occ. eigenvalues --   -0.48809  -0.48366  -0.48283  -0.47935  -0.47620
 Alpha  occ. eigenvalues --   -0.47413  -0.47008  -0.46820  -0.46728  -0.46174
 Alpha  occ. eigenvalues --   -0.45945  -0.45916  -0.45880  -0.45587  -0.45137
 Alpha  occ. eigenvalues --   -0.44853  -0.44734  -0.44543  -0.44345  -0.44299
 Alpha  occ. eigenvalues --   -0.44027  -0.43804  -0.43313  -0.42938  -0.42901
 Alpha  occ. eigenvalues --   -0.42696  -0.42168  -0.42079  -0.41618  -0.41536
 Alpha  occ. eigenvalues --   -0.41329  -0.41106  -0.41077  -0.41039  -0.40667
 Alpha  occ. eigenvalues --   -0.40444  -0.40309  -0.39928  -0.39792  -0.39082
 Alpha  occ. eigenvalues --   -0.38859  -0.38368  -0.38100  -0.37015  -0.36843
 Alpha  occ. eigenvalues --   -0.36816  -0.36365  -0.36306  -0.35331  -0.33979
 Alpha  occ. eigenvalues --   -0.33701  -0.32946  -0.32929  -0.32181  -0.30336
 Alpha  occ. eigenvalues --   -0.29551  -0.29055  -0.28914  -0.28727  -0.28259
 Alpha  occ. eigenvalues --   -0.28046  -0.27847  -0.26607  -0.25921  -0.25477
 Alpha virt. eigenvalues --   -0.12734  -0.10219  -0.08708  -0.06199  -0.05822
 Alpha virt. eigenvalues --   -0.05070  -0.04804  -0.04636  -0.03771  -0.02717
 Alpha virt. eigenvalues --   -0.02522  -0.02235  -0.01758  -0.01522  -0.01276

 Mulliken charges:
               1
     1  N   -0.747956
     2  H    0.416881
     3  H    0.431473
     4  H    0.425082
     5  C   -0.126457
     6  H    0.216559
     7  C    0.640085
     8  C    0.128191
     9  H    0.170979
    10  O   -0.531688
    11  C   -0.496441
    12  H    0.202336
    13  H    0.183201
    14  H    0.183617
    15  O   -0.649270
    16  H    0.434922
    17  N   -0.588207
    18  H    0.371382
    19  C   -0.098687
    20  H    0.187121
    21  C    0.650977
    22  C   -0.065071
    23  H    0.150220
    24  O   -0.547263
    25  C   -0.250393
    26  H    0.117827
    27  H    0.146811
    28  C   -0.512499
    29  H    0.136093
    30  H    0.200095
    31  H    0.176621
    32  C   -0.454421
    33  H    0.156241
    34  H    0.163556
    35  H    0.154425
    36  N   -0.590809
    37  H    0.348167
    38  C   -0.046859
    39  H    0.178531
    40  C    0.654216
    41  C   -0.486926
    42  H    0.190695
    43  H    0.176271
    44  H    0.173426
    45  O   -0.552550
    46  N   -0.593869
    47  H    0.363048
    48  C   -0.079900
    49  H    0.178393
    50  C    0.628603
    51  C   -0.268017
    52  H    0.178271
    53  H    0.162643
    54  O   -0.547651
    55  C   -0.354703
    56  H    0.158124
    57  H    0.170058
    58  C    0.553275
    59  N   -0.774610
    60  H    0.382578
    61  H    0.331859
    62  O   -0.504894
    63  N   -0.603324
    64  H    0.354816
    65  C   -0.069034
    66  H    0.188775
    67  C    0.626978
    68  C   -0.352460
    69  H    0.146202
    70  H    0.186313
    71  O   -0.530694
    72  C    0.101014
    73  C   -0.202100
    74  H    0.123822
    75  C   -0.191950
    76  H    0.181561
    77  C   -0.156333
    78  H    0.140336
    79  C   -0.191235
    80  H    0.128229
    81  O   -0.639084
    82  H    0.411785
    83  C    0.356488
    84  N   -0.635794
    85  H    0.382482
    86  C   -0.031660
    87  H    0.172623
    88  C    0.611190
    89  C   -0.447017
    90  H    0.157293
    91  H    0.179652
    92  H    0.148373
    93  O   -0.555921
    94  N   -0.616264
    95  H    0.348480
    96  C   -0.011689
    97  H    0.155093
    98  C    0.581566
    99  C   -0.262844
   100  H    0.128901
   101  H    0.167360
   102  O   -0.633880
   103  C   -0.290639
   104  H    0.132506
   105  H    0.159446
   106  C   -0.155093
   107  H    0.156054
   108  H    0.229903
   109  N   -0.596483
   110  H    0.335829
   111  N   -0.755823
   112  H    0.339653
   113  H    0.436238
   114  N   -0.759863
   115  H    0.365056
   116  H    0.350844
   117  C    0.774318
   118  O   -0.573711
 Sum of Mulliken charges =   1.00000

 Dipole moment (field-independent basis, Debye):
    X=              3.0522    Y=            -14.8380    Z=            -18.4878  Tot=             23.9015
 Quadrupole moment (field-independent basis, Debye-Ang):
   XX=           -114.2072   YY=           -213.9541   ZZ=           -242.3225
   XY=             90.5741   XZ=             88.9450   YZ=             69.5153

 Normal termination of Gaussian 16 at Sat Jul  2 15:32:37 2022.
