 Gaussian 16, Revision C.01,
 Gaussian 16:  ES64L-G16RevC.01  3-Jul-2019

 -------------------------------------------------------------------
 # B3LYP/6-31G* guess=read geom=check nosymm integral(ultrafinegrid)
 -------------------------------------------------------------------

 ------------------------------------------------------
 Candidate Structure: Conf:961 Charge calc in gas phase
 ------------------------------------------------------
 Structure from the checkpoint file:  "conf-961.chk"
 Charge =  1 Multiplicity = 1

                          Input orientation:
 ---------------------------------------------------------------------
 Center     Atomic      Atomic             Coordinates (Angstroms)
 Number     Number       Type             X           Y           Z
 ---------------------------------------------------------------------
      1          7           0       -1.244387   -5.181966   -5.777133
      2          1           0       -1.048725   -6.177339   -5.901833
      3          1           0       -0.600756   -4.602133   -6.360973
      4          1           0       -2.258437   -5.002809   -5.963505
      5          6           0       -1.033455   -4.693780   -4.372237
      6          1           0       -0.377809   -5.398214   -3.854626
      7          6           0       -2.453444   -4.624748   -3.768402
      8          6           0       -0.356610   -3.283449   -4.464727
      9          1           0       -1.146002   -2.534232   -4.592848
     10          8           0       -3.409362   -4.654798   -4.546267
     11          6           0        0.453699   -2.962568   -3.214661
     12          1           0       -0.191758   -2.839566   -2.340867
     13          1           0        1.206761   -3.736714   -3.027974
     14          1           0        0.962326   -2.003881   -3.339064
     15          8           0        0.461429   -3.349346   -5.638431
     16          1           0        0.600933   -2.435289   -5.979804
     17          7           0       -2.539594   -4.541276   -2.429104
     18          1           0       -1.669401   -4.401705   -1.929703
     19          6           0       -3.723357   -3.956940   -1.790417
     20          1           0       -4.586919   -4.368811   -2.320132
     21          6           0       -3.698343   -2.431031   -2.115903
     22          6           0       -3.773282   -4.422850   -0.306648
     23          1           0       -3.624858   -5.509640   -0.382154
     24          8           0       -2.856467   -1.982062   -2.903046
     25          6           0       -5.133049   -4.223592    0.404304
     26          1           0       -5.248531   -3.181219    0.728173
     27          1           0       -5.067474   -4.789685    1.342192
     28          6           0       -2.634882   -3.836491    0.545614
     29          1           0       -2.766246   -2.761007    0.696590
     30          1           0       -1.639633   -4.013792    0.116438
     31          1           0       -2.634168   -4.307901    1.534163
     32          6           0       -6.366766   -4.702112   -0.370625
     33          1           0       -7.256687   -4.662465    0.266041
     34          1           0       -6.251098   -5.739394   -0.707944
     35          1           0       -6.576178   -4.086361   -1.253907
     36          7           0       -4.675571   -1.658795   -1.600205
     37          1           0       -5.175461   -1.971185   -0.777669
     38          6           0       -4.836745   -0.245923   -1.977995
     39          1           0       -4.454219   -0.171976   -3.001010
     40          6           0       -3.986946    0.696234   -1.086516
     41          6           0       -6.312443    0.139782   -1.935612
     42          1           0       -6.433745    1.185124   -2.226817
     43          1           0       -6.715045    0.039302   -0.922359
     44          1           0       -6.890239   -0.493428   -2.615471
     45          8           0       -4.493597    1.645926   -0.491079
     46          7           0       -2.670846    0.390835   -1.024179
     47          1           0       -2.289030   -0.377606   -1.569606
     48          6           0       -1.744013    1.089022   -0.150446
     49          1           0       -1.992696    2.156295   -0.171124
     50          6           0       -0.333259    0.854369   -0.718261
     51          6           0       -1.760064    0.593485    1.321869
     52          1           0       -0.881119    1.025087    1.817174
     53          1           0       -1.629648   -0.493271    1.325797
     54          8           0       -0.031054   -0.217098   -1.243191
     55          6           0       -2.991293    0.975144    2.155775
     56          1           0       -2.730699    0.883717    3.219628
     57          1           0       -3.256088    2.025560    1.991590
     58          6           0       -4.230430    0.105389    1.949118
     59          7           0       -5.379584    0.629929    2.457103
     60          1           0       -5.462128    1.625255    2.608551
     61          1           0       -6.237436    0.126862    2.273346
     62          8           0       -4.196196   -1.020696    1.451419
     63          7           0        0.521795    1.895540   -0.562039
     64          1           0        0.255174    2.678923    0.031444
     65          6           0        1.963726    1.791993   -0.716669
     66          1           0        2.236245    0.731936   -0.695607
     67          6           0        2.579264    2.537024    0.491207
     68          6           0        2.471217    2.423393   -2.046837
     69          1           0        3.566096    2.465022   -2.007082
     70          1           0        2.114706    3.459276   -2.084867
     71          8           0        1.904154    3.348229    1.130640
     72          6           0        2.033950    1.660560   -3.275565
     73          6           0        2.803471    0.592616   -3.758055
     74          1           0        3.749200    0.352478   -3.277871
     75          6           0        0.839810    1.964872   -3.938472
     76          1           0        0.232642    2.797955   -3.596019
     77          6           0        2.386208   -0.172523   -4.844555
     78          1           0        2.988695   -0.994255   -5.219621
     79          6           0        0.399702    1.204059   -5.022260
     80          1           0       -0.542066    1.442917   -5.512712
     81          8           0        0.755527   -0.705116   -6.492845
     82          1           0        0.003092   -0.295235   -6.949290
     83          6           0        1.170969    0.129176   -5.457755
     84          7           0        3.865785    2.249377    0.750238
     85          1           0        4.415069    1.618648    0.168585
     86          6           0        4.667151    2.919940    1.764056
     87          1           0        4.490358    4.000489    1.695634
     88          6           0        6.136541    2.611413    1.392510
     89          6           0        4.316636    2.446556    3.185211
     90          1           0        4.914761    2.975517    3.933899
     91          1           0        3.260079    2.644687    3.383157
     92          1           0        4.505176    1.372913    3.289010
     93          8           0        6.396947    1.792802    0.501182
     94          7           0        7.060787    3.268998    2.106111
     95          1           0        6.822688    3.930058    2.843842
     96          6           0        8.500539    3.043682    2.018547
     97          1           0        8.693477    1.974529    1.892427
     98          6           0        9.097542    3.557507    3.354652
     99          6           0        9.079745    3.832715    0.813170
    100          1           0        8.990062    4.903571    1.040082
    101          1           0        8.416882    3.634863   -0.036584
    102          8           0       10.217044    3.034767    3.687758
    103          6           0       10.508941    3.501511    0.343596
    104          1           0       10.668460    4.017737   -0.615212
    105          1           0       10.581540    2.429837    0.116494
    106          6           0       11.683946    3.824973    1.279532
    107          1           0       12.627778    3.597161    0.767429
    108          1           0       11.610442    3.218861    2.178941
    109          7           0       11.713991    5.243637    1.680670
    110          1           0       11.652480    5.918233    0.929250
    111          7           0       11.827387    4.999304    4.002267
    112          1           0       12.049458    5.447503    4.881413
    113          1           0       11.162816    4.126990    4.025524
    114          7           0       12.238415    7.065302    3.015642
    115          1           0       11.956684    7.568750    3.844846
    116          1           0       12.348480    7.624884    2.182491
    117          6           0       11.904017    5.745680    2.913370
    118          8           0        8.488441    4.473828    3.931578
 ---------------------------------------------------------------------

 SCF Done:  E(RB3LYP) =  -2837.65751137     A.U. after    1 cycles

 Alpha  occ. eigenvalues --  -19.28109 -19.25864 -19.24370 -19.20690 -19.18366
 Alpha  occ. eigenvalues --  -19.18259 -19.17589 -19.17457 -19.16153 -19.12892
 Alpha  occ. eigenvalues --  -19.12268 -14.56278 -14.47231 -14.45434 -14.45304
 Alpha  occ. eigenvalues --  -14.44431 -14.42259 -14.41792 -14.41501 -14.41308
 Alpha  occ. eigenvalues --  -14.41249 -14.39413 -10.41330 -10.40635 -10.37662
 Alpha  occ. eigenvalues --  -10.37636 -10.35722 -10.35604 -10.35396 -10.34652
 Alpha  occ. eigenvalues --  -10.34641 -10.33132 -10.32952 -10.32705 -10.30408
 Alpha  occ. eigenvalues --  -10.30392 -10.29952 -10.29717 -10.28464 -10.28115
 Alpha  occ. eigenvalues --  -10.28032 -10.26814 -10.26516 -10.26462 -10.26419
 Alpha  occ. eigenvalues --  -10.26366 -10.26352 -10.26175 -10.25846 -10.25740
 Alpha  occ. eigenvalues --  -10.25607 -10.25605 -10.24810 -10.24809 -10.24578
 Alpha  occ. eigenvalues --  -10.24566 -10.23264 -10.22795  -1.16901  -1.15261
 Alpha  occ. eigenvalues --   -1.13704  -1.12488  -1.10389  -1.09941  -1.09776
 Alpha  occ. eigenvalues --   -1.09351  -1.09091  -1.08979  -1.07783  -1.05996
 Alpha  occ. eigenvalues --   -1.04030  -1.00643  -0.98945  -0.98877  -0.98011
 Alpha  occ. eigenvalues --   -0.98001  -0.97792  -0.96643  -0.96128  -0.95682
 Alpha  occ. eigenvalues --   -0.92923  -0.90590  -0.88503  -0.86595  -0.85373
 Alpha  occ. eigenvalues --   -0.84665  -0.83992  -0.82586  -0.82366  -0.82329
 Alpha  occ. eigenvalues --   -0.80626  -0.80453  -0.78665  -0.78564  -0.77892
 Alpha  occ. eigenvalues --   -0.73634  -0.73190  -0.73090  -0.72276  -0.71393
 Alpha  occ. eigenvalues --   -0.70885  -0.70784  -0.70404  -0.69999  -0.69867
 Alpha  occ. eigenvalues --   -0.68680  -0.68556  -0.67293  -0.66784  -0.66501
 Alpha  occ. eigenvalues --   -0.65671  -0.65353  -0.64715  -0.64276  -0.63587
 Alpha  occ. eigenvalues --   -0.63470  -0.63432  -0.62519  -0.62478  -0.62107
 Alpha  occ. eigenvalues --   -0.61654  -0.61156  -0.60178  -0.59498  -0.59004
 Alpha  occ. eigenvalues --   -0.58178  -0.57490  -0.56916  -0.56838  -0.56239
 Alpha  occ. eigenvalues --   -0.55612  -0.55522  -0.54982  -0.54951  -0.54587
 Alpha  occ. eigenvalues --   -0.54145  -0.53928  -0.53477  -0.53196  -0.52770
 Alpha  occ. eigenvalues --   -0.52553  -0.52227  -0.52125  -0.51736  -0.51545
 Alpha  occ. eigenvalues --   -0.51286  -0.50937  -0.50894  -0.50498  -0.50285
 Alpha  occ. eigenvalues --   -0.50108  -0.49836  -0.49820  -0.49457  -0.49362
 Alpha  occ. eigenvalues --   -0.49200  -0.48882  -0.48496  -0.48321  -0.48095
 Alpha  occ. eigenvalues --   -0.47742  -0.47413  -0.47143  -0.47026  -0.46825
 Alpha  occ. eigenvalues --   -0.46725  -0.46414  -0.46150  -0.45940  -0.45650
 Alpha  occ. eigenvalues --   -0.45389  -0.44768  -0.44714  -0.44578  -0.44270
 Alpha  occ. eigenvalues --   -0.44233  -0.43980  -0.43613  -0.43333  -0.42993
 Alpha  occ. eigenvalues --   -0.42757  -0.42581  -0.42435  -0.42370  -0.41998
 Alpha  occ. eigenvalues --   -0.41779  -0.41689  -0.41451  -0.41127  -0.40921
 Alpha  occ. eigenvalues --   -0.40778  -0.40549  -0.40383  -0.40093  -0.39972
 Alpha  occ. eigenvalues --   -0.39692  -0.39253  -0.38768  -0.38441  -0.37510
 Alpha  occ. eigenvalues --   -0.37131  -0.35671  -0.35650  -0.34242  -0.33623
 Alpha  occ. eigenvalues --   -0.33200  -0.32883  -0.32805  -0.32575  -0.32053
 Alpha  occ. eigenvalues --   -0.31667  -0.31187  -0.30585  -0.30446  -0.30266
 Alpha  occ. eigenvalues --   -0.29954  -0.29619  -0.28260  -0.27203  -0.26435
 Alpha virt. eigenvalues --   -0.10095  -0.07872  -0.07626  -0.07048  -0.06887
 Alpha virt. eigenvalues --   -0.05297  -0.04920  -0.04047  -0.03346  -0.03286
 Alpha virt. eigenvalues --   -0.03038  -0.03023  -0.02636  -0.01696  -0.01020

 Mulliken charges:
               1
     1  N   -0.752631
     2  H    0.406562
     3  H    0.424835
     4  H    0.418093
     5  C   -0.139457
     6  H    0.202361
     7  C    0.661309
     8  C    0.121211
     9  H    0.194390
    10  O   -0.529500
    11  C   -0.483885
    12  H    0.180699
    13  H    0.150386
    14  H    0.211641
    15  O   -0.697703
    16  H    0.464959
    17  N   -0.586246
    18  H    0.350999
    19  C   -0.098392
    20  H    0.211585
    21  C    0.627926
    22  C   -0.096777
    23  H    0.148821
    24  O   -0.553272
    25  C   -0.299954
    26  H    0.175862
    27  H    0.157103
    28  C   -0.498839
    29  H    0.215582
    30  H    0.122699
    31  H    0.166614
    32  C   -0.466133
    33  H    0.165626
    34  H    0.154265
    35  H    0.144353
    36  N   -0.586300
    37  H    0.366361
    38  C   -0.075546
    39  H    0.186653
    40  C    0.644904
    41  C   -0.449500
    42  H    0.183189
    43  H    0.154339
    44  H    0.154161
    45  O   -0.552016
    46  N   -0.629065
    47  H    0.374623
    48  C   -0.030920
    49  H    0.168482
    50  C    0.603411
    51  C   -0.267575
    52  H    0.153619
    53  H    0.174323
    54  O   -0.546066
    55  C   -0.365018
    56  H    0.181847
    57  H    0.172157
    58  C    0.620725
    59  N   -0.726368
    60  H    0.350094
    61  H    0.338566
    62  O   -0.539742
    63  N   -0.604156
    64  H    0.356172
    65  C   -0.061031
    66  H    0.179122
    67  C    0.622753
    68  C   -0.365590
    69  H    0.166290
    70  H    0.164672
    71  O   -0.546262
    72  C    0.193061
    73  C   -0.183104
    74  H    0.144772
    75  C   -0.178364
    76  H    0.145053
    77  C   -0.168983
    78  H    0.151076
    79  C   -0.174040
    80  H    0.133625
    81  O   -0.687297
    82  H    0.424228
    83  C    0.335785
    84  N   -0.617264
    85  H    0.355095
    86  C   -0.038180
    87  H    0.176970
    88  C    0.619559
    89  C   -0.451200
    90  H    0.165424
    91  H    0.180693
    92  H    0.158016
    93  O   -0.563683
    94  N   -0.617266
    95  H    0.353541
    96  C   -0.021345
    97  H    0.162662
    98  C    0.583497
    99  C   -0.262719
   100  H    0.131262
   101  H    0.162886
   102  O   -0.630548
   103  C   -0.288654
   104  H    0.130647
   105  H    0.165001
   106  C   -0.159242
   107  H    0.158592
   108  H    0.234728
   109  N   -0.600172
   110  H    0.334888
   111  N   -0.761050
   112  H    0.342674
   113  H    0.443725
   114  N   -0.763147
   115  H    0.364622
   116  H    0.352918
   117  C    0.779781
   118  O   -0.564924
 Sum of Mulliken charges =   1.00000

 Dipole moment (field-independent basis, Debye):
    X=              6.8719    Y=             -2.7957    Z=            -14.1979  Tot=             16.0193
 Quadrupole moment (field-independent basis, Debye-Ang):
   XX=            -93.3958   YY=           -166.2312   ZZ=           -238.7511
   XY=            161.9047   XZ=             19.0907   YZ=             84.7109

 Normal termination of Gaussian 16 at Sat Jul  2 15:32:54 2022.
