 Gaussian 16, Revision C.01,
 Gaussian 16:  ES64L-G16RevC.01  3-Jul-2019

 -------------------------------------------------------------------
 # B3LYP/6-31G* guess=read geom=check nosymm integral(ultrafinegrid)
 -------------------------------------------------------------------

 ------------------------------------------------------
 Candidate Structure: Conf:535 Charge calc in gas phase
 ------------------------------------------------------
 Structure from the checkpoint file:  "conf-535.chk"
 Charge =  1 Multiplicity = 1

                          Input orientation:
 ---------------------------------------------------------------------
 Center     Atomic      Atomic             Coordinates (Angstroms)
 Number     Number       Type             X           Y           Z
 ---------------------------------------------------------------------
      1          7           0       -7.880535   -6.041669   -2.297284
      2          1           0       -8.400676   -5.116651   -2.375589
      3          1           0       -8.200909   -6.596292   -1.501876
      4          1           0       -8.000006   -6.559531   -3.183110
      5          6           0       -6.445859   -5.588540   -2.222756
      6          1           0       -6.085040   -5.723397   -1.200101
      7          6           0       -6.550301   -4.062747   -2.536858
      8          6           0       -5.602454   -6.419134   -3.216616
      9          1           0       -4.693754   -5.848000   -3.447636
     10          8           0       -7.686725   -3.581611   -2.645701
     11          6           0       -5.216823   -7.796653   -2.679436
     12          1           0       -4.583737   -7.709364   -1.789976
     13          1           0       -6.099431   -8.395063   -2.425016
     14          1           0       -4.646366   -8.349093   -3.433911
     15          8           0       -6.435938   -6.502048   -4.373946
     16          1           0       -5.993884   -7.026212   -5.060488
     17          7           0       -5.402372   -3.403902   -2.609305
     18          1           0       -4.507180   -3.891165   -2.618438
     19          6           0       -5.245059   -1.991119   -2.969877
     20          1           0       -6.153306   -1.672384   -3.491571
     21          6           0       -4.020963   -2.003553   -3.913653
     22          6           0       -5.004271   -1.080758   -1.716511
     23          1           0       -4.030812   -1.355754   -1.288844
     24          8           0       -3.199309   -2.925246   -3.824826
     25          6           0       -6.072346   -1.337903   -0.629895
     26          1           0       -6.098327   -2.411911   -0.410811
     27          1           0       -7.067233   -1.075226   -1.016514
     28          6           0       -4.960355    0.404475   -2.117349
     29          1           0       -5.878116    0.703322   -2.644066
     30          1           0       -4.096195    0.659461   -2.736721
     31          1           0       -4.887013    1.028054   -1.223420
     32          6           0       -5.796425   -0.597027    0.686479
     33          1           0       -6.472991   -0.953761    1.470975
     34          1           0       -5.954645    0.482410    0.594007
     35          1           0       -4.765037   -0.765446    1.015378
     36          7           0       -3.899809   -0.984614   -4.791173
     37          1           0       -4.550844   -0.212710   -4.712193
     38          6           0       -2.618556   -0.680315   -5.464461
     39          1           0       -2.211580   -1.633894   -5.810021
     40          6           0       -1.708845   -0.052866   -4.379606
     41          6           0       -2.848554    0.267023   -6.634226
     42          1           0       -1.909010    0.426623   -7.171364
     43          1           0       -3.191597    1.240743   -6.271299
     44          1           0       -3.582181   -0.146957   -7.332701
     45          8           0       -1.810898    1.134763   -4.078571
     46          7           0       -0.920237   -0.937603   -3.724395
     47          1           0       -0.998455   -1.913954   -3.977189
     48          6           0       -0.353561   -0.631842   -2.415860
     49          1           0       -1.045196    0.066457   -1.931223
     50          6           0        1.039410    0.018702   -2.529874
     51          6           0       -0.255972   -1.932814   -1.593070
     52          1           0        0.537783   -2.556350   -2.021145
     53          1           0       -1.205318   -2.471134   -1.685835
     54          8           0        1.913006   -0.449782   -3.245167
     55          6           0        0.015169   -1.689029   -0.101585
     56          1           0        0.116155   -2.658483    0.400575
     57          1           0        0.951539   -1.145653    0.054225
     58          6           0       -1.160607   -0.964157    0.555397
     59          7           0       -0.845072    0.170162    1.222570
     60          1           0        0.104721    0.539403    1.264135
     61          1           0       -1.586380    0.663044    1.702772
     62          8           0       -2.313176   -1.394412    0.454716
     63          7           0        1.194995    1.106883   -1.722403
     64          1           0        0.459817    1.319637   -1.059272
     65          6           0        2.476435    1.714074   -1.424670
     66          1           0        3.225310    1.179556   -2.015953
     67          6           0        2.755426    1.536805    0.084757
     68          6           0        2.492771    3.223972   -1.800970
     69          1           0        3.422344    3.659732   -1.416319
     70          1           0        1.673655    3.711519   -1.255640
     71          8           0        1.828283    1.334167    0.886079
     72          6           0        2.382063    3.492691   -3.285651
     73          6           0        3.521669    3.816863   -4.035698
     74          1           0        4.486717    3.883770   -3.536985
     75          6           0        1.155965    3.416780   -3.959539
     76          1           0        0.251349    3.152146   -3.420856
     77          6           0        3.452795    4.060919   -5.404171
     78          1           0        4.337743    4.315594   -5.978962
     79          6           0        1.070968    3.654488   -5.330438
     80          1           0        0.106797    3.583158   -5.830968
     81          8           0        2.199516    4.234201   -7.402608
     82          1           0        1.287390    4.155978   -7.722272
     83          6           0        2.219562    3.980902   -6.057660
     84          7           0        4.035164    1.654916    0.456015
     85          1           0        4.782076    1.858926   -0.207140
     86          6           0        4.507684    1.611361    1.834337
     87          1           0        3.852968    2.237536    2.450850
     88          6           0        5.933803    2.210558    1.814176
     89          6           0        4.516617    0.181211    2.403171
     90          1           0        4.896309    0.177211    3.429652
     91          1           0        3.501088   -0.224022    2.400013
     92          1           0        5.159322   -0.464960    1.795517
     93          8           0        6.505473    2.404351    0.724341
     94          7           0        6.437612    2.455022    3.023224
     95          1           0        5.966800    2.118960    3.888351
     96          6           0        7.841588    2.599527    3.394870
     97          1           0        8.445401    1.873003    2.833299
     98          6           0        7.908556    2.190481    4.941641
     99          6           0        8.434527    3.995356    3.201141
    100          1           0        9.306191    4.028624    3.865983
    101          1           0        7.713614    4.743792    3.558890
    102          8           0        9.010422    2.381725    5.479784
    103          6           0        8.848854    4.307351    1.758650
    104          1           0        7.982332    4.233106    1.090606
    105          1           0        9.574585    3.554977    1.420958
    106          6           0        9.489779    5.688593    1.653680
    107          1           0       10.381253    5.742476    2.289892
    108          1           0        8.784839    6.469117    1.967859
    109          7           0        9.904751    5.948551    0.254344
    110          1           0        9.472277    5.359810   -0.448317
    111          7           0       11.198076    7.820718    0.702519
    112          1           0       12.060061    8.314834    0.520588
    113          1           0       10.837567    7.859574    1.645350
    114          7           0       11.233634    6.881819   -1.411617
    115          1           0       11.608777    7.729407   -1.812932
    116          1           0       10.995067    6.139649   -2.053729
    117          6           0       10.764571    6.872337   -0.146137
    118          8           0        6.824313    1.731704    5.395057
 ---------------------------------------------------------------------

 SCF Done:  E(RB3LYP) =  -2837.58597541     A.U. after    2 cycles

 Alpha  occ. eigenvalues --  -19.30109 -19.25943 -19.22112 -19.21695 -19.18229
 Alpha  occ. eigenvalues --  -19.16803 -19.16318 -19.15820 -19.14012 -19.05596
 Alpha  occ. eigenvalues --  -19.04565 -14.58432 -14.50897 -14.50844 -14.50453
 Alpha  occ. eigenvalues --  -14.48576 -14.45969 -14.42485 -14.40583 -14.40055
 Alpha  occ. eigenvalues --  -14.40009 -14.35469 -10.47002 -10.42834 -10.40234
 Alpha  occ. eigenvalues --  -10.39692 -10.38944 -10.35271 -10.33902 -10.33580
 Alpha  occ. eigenvalues --  -10.33552 -10.33166 -10.32227 -10.31525 -10.31440
 Alpha  occ. eigenvalues --  -10.30564 -10.28946 -10.28647 -10.28014 -10.27298
 Alpha  occ. eigenvalues --  -10.26342 -10.25554 -10.25198 -10.25197 -10.24708
 Alpha  occ. eigenvalues --  -10.24652 -10.24120 -10.24115 -10.23569 -10.22959
 Alpha  occ. eigenvalues --  -10.22925 -10.22902 -10.22644 -10.22587 -10.22267
 Alpha  occ. eigenvalues --  -10.21333 -10.20643 -10.20494  -1.18937  -1.17177
 Alpha  occ. eigenvalues --   -1.15506  -1.13933  -1.12284  -1.10038  -1.09671
 Alpha  occ. eigenvalues --   -1.08471  -1.07726  -1.07541  -1.05341  -1.05086
 Alpha  occ. eigenvalues --   -1.04448  -1.03827  -1.02046  -0.98916  -0.98684
 Alpha  occ. eigenvalues --   -0.97242  -0.96454  -0.94858  -0.92966  -0.92775
 Alpha  occ. eigenvalues --   -0.89921  -0.89423  -0.89055  -0.86683  -0.86244
 Alpha  occ. eigenvalues --   -0.85591  -0.84723  -0.83143  -0.81542  -0.80443
 Alpha  occ. eigenvalues --   -0.79124  -0.78427  -0.78306  -0.78241  -0.76648
 Alpha  occ. eigenvalues --   -0.76600  -0.76035  -0.73628  -0.73349  -0.72777
 Alpha  occ. eigenvalues --   -0.72373  -0.71279  -0.71095  -0.70680  -0.70260
 Alpha  occ. eigenvalues --   -0.69494  -0.68610  -0.68116  -0.67067  -0.66266
 Alpha  occ. eigenvalues --   -0.65890  -0.65229  -0.64812  -0.64448  -0.63967
 Alpha  occ. eigenvalues --   -0.63328  -0.63267  -0.62759  -0.62649  -0.62345
 Alpha  occ. eigenvalues --   -0.61569  -0.61503  -0.60332  -0.59249  -0.58909
 Alpha  occ. eigenvalues --   -0.58792  -0.58231  -0.58131  -0.58043  -0.57498
 Alpha  occ. eigenvalues --   -0.57222  -0.56440  -0.56311  -0.55932  -0.55745
 Alpha  occ. eigenvalues --   -0.54925  -0.54448  -0.53782  -0.53604  -0.52942
 Alpha  occ. eigenvalues --   -0.52638  -0.52367  -0.52109  -0.52045  -0.51396
 Alpha  occ. eigenvalues --   -0.51188  -0.50910  -0.50495  -0.50259  -0.50104
 Alpha  occ. eigenvalues --   -0.49292  -0.48700  -0.48540  -0.48383  -0.48299
 Alpha  occ. eigenvalues --   -0.48003  -0.47668  -0.47607  -0.47465  -0.47024
 Alpha  occ. eigenvalues --   -0.46443  -0.46320  -0.46161  -0.45950  -0.45866
 Alpha  occ. eigenvalues --   -0.45709  -0.45458  -0.45134  -0.44639  -0.44448
 Alpha  occ. eigenvalues --   -0.44376  -0.44094  -0.43998  -0.43598  -0.43252
 Alpha  occ. eigenvalues --   -0.42795  -0.42753  -0.42659  -0.42605  -0.42148
 Alpha  occ. eigenvalues --   -0.41881  -0.41566  -0.41466  -0.41302  -0.41205
 Alpha  occ. eigenvalues --   -0.40775  -0.40613  -0.40240  -0.39612  -0.39569
 Alpha  occ. eigenvalues --   -0.39445  -0.39318  -0.39178  -0.39071  -0.38793
 Alpha  occ. eigenvalues --   -0.37822  -0.37439  -0.37278  -0.37210  -0.36455
 Alpha  occ. eigenvalues --   -0.36322  -0.35927  -0.35633  -0.34973  -0.33038
 Alpha  occ. eigenvalues --   -0.32773  -0.31773  -0.31422  -0.31140  -0.30316
 Alpha  occ. eigenvalues --   -0.30189  -0.29702  -0.29142  -0.28684  -0.28125
 Alpha  occ. eigenvalues --   -0.26692  -0.25435  -0.20684  -0.20498  -0.18962
 Alpha virt. eigenvalues --   -0.11845  -0.10968  -0.09458  -0.08223  -0.07068
 Alpha virt. eigenvalues --   -0.05108  -0.04562  -0.04157  -0.03924  -0.03391
 Alpha virt. eigenvalues --   -0.02975  -0.02478  -0.02448  -0.02204  -0.02012

 Mulliken charges:
               1
     1  N   -0.761302
     2  H    0.435400
     3  H    0.410229
     4  H    0.427054
     5  C   -0.121483
     6  H    0.228981
     7  C    0.662633
     8  C    0.102470
     9  H    0.190136
    10  O   -0.538250
    11  C   -0.475081
    12  H    0.185577
    13  H    0.156881
    14  H    0.188534
    15  O   -0.638674
    16  H    0.434912
    17  N   -0.594321
    18  H    0.371220
    19  C   -0.082033
    20  H    0.184087
    21  C    0.639088
    22  C   -0.095280
    23  H    0.193517
    24  O   -0.561794
    25  C   -0.247650
    26  H    0.113501
    27  H    0.140878
    28  C   -0.504697
    29  H    0.138005
    30  H    0.176111
    31  H    0.180741
    32  C   -0.472771
    33  H    0.143974
    34  H    0.149754
    35  H    0.189926
    36  N   -0.589360
    37  H    0.350352
    38  C   -0.059163
    39  H    0.175113
    40  C    0.627745
    41  C   -0.472681
    42  H    0.179415
    43  H    0.179660
    44  H    0.161208
    45  O   -0.535036
    46  N   -0.578560
    47  H    0.351646
    48  C   -0.053622
    49  H    0.166876
    50  C    0.634480
    51  C   -0.311439
    52  H    0.169071
    53  H    0.164136
    54  O   -0.518802
    55  C   -0.369742
    56  H    0.175227
    57  H    0.173643
    58  C    0.583739
    59  N   -0.777031
    60  H    0.412318
    61  H    0.336105
    62  O   -0.537447
    63  N   -0.588419
    64  H    0.334203
    65  C   -0.070607
    66  H    0.193592
    67  C    0.640472
    68  C   -0.366659
    69  H    0.153119
    70  H    0.153639
    71  O   -0.579047
    72  C    0.181531
    73  C   -0.188930
    74  H    0.115223
    75  C   -0.179152
    76  H    0.146323
    77  C   -0.155259
    78  H    0.133918
    79  C   -0.197122
    80  H    0.121203
    81  O   -0.643440
    82  H    0.406356
    83  C    0.351221
    84  N   -0.606324
    85  H    0.353896
    86  C   -0.036914
    87  H    0.176470
    88  C    0.599274
    89  C   -0.458827
    90  H    0.194222
    91  H    0.161878
    92  H    0.153303
    93  O   -0.589247
    94  N   -0.611965
    95  H    0.366813
    96  C   -0.069936
    97  H    0.137783
    98  C    0.584610
    99  C   -0.264676
   100  H    0.176595
   101  H    0.129752
   102  O   -0.584363
   103  C   -0.317435
   104  H    0.183154
   105  H    0.152330
   106  C   -0.152529
   107  H    0.181146
   108  H    0.182921
   109  N   -0.597287
   110  H    0.370125
   111  N   -0.754151
   112  H    0.381824
   113  H    0.396777
   114  N   -0.762658
   115  H    0.380768
   116  H    0.382346
   117  C    0.821956
   118  O   -0.611921
 Sum of Mulliken charges =   1.00000

 Dipole moment (field-independent basis, Debye):
    X=             -8.7527    Y=             -2.4196    Z=            -25.5285  Tot=             27.0956
 Quadrupole moment (field-independent basis, Debye-Ang):
   XX=            101.2694   YY=              5.5292   ZZ=           -376.4488
   XY=            407.3557   XZ=            -50.1388   YZ=             32.8431

 Normal termination of Gaussian 16 at Sat Jul  2 15:33:11 2022.
