 Gaussian 16, Revision C.01,
 Gaussian 16:  ES64L-G16RevC.01  3-Jul-2019

 -------------------------------------------------------------------
 # B3LYP/6-31G* guess=read geom=check nosymm integral(ultrafinegrid)
 -------------------------------------------------------------------

 ------------------------------------------------------
 Candidate Structure: Conf:746 Charge calc in gas phase
 ------------------------------------------------------
 Structure from the checkpoint file:  "conf-746.chk"
 Charge =  1 Multiplicity = 1

                          Input orientation:
 ---------------------------------------------------------------------
 Center     Atomic      Atomic             Coordinates (Angstroms)
 Number     Number       Type             X           Y           Z
 ---------------------------------------------------------------------
      1          7           0       -5.599800   -8.722529   -5.611599
      2          1           0       -5.945347   -9.467836   -5.001342
      3          1           0       -5.432750   -9.096710   -6.560224
      4          1           0       -6.282574   -7.923207   -5.587554
      5          6           0       -4.317571   -8.101935   -5.119963
      6          1           0       -3.796983   -8.828806   -4.492576
      7          6           0       -4.792316   -6.844008   -4.345546
      8          6           0       -3.459567   -7.750507   -6.363207
      9          1           0       -3.891897   -6.854618   -6.834425
     10          8           0       -5.932151   -6.427691   -4.597020
     11          6           0       -1.993251   -7.511719   -6.018934
     12          1           0       -1.861773   -6.661967   -5.341748
     13          1           0       -1.554890   -8.405819   -5.563463
     14          1           0       -1.433225   -7.286255   -6.932773
     15          8           0       -3.632902   -8.881193   -7.226748
     16          1           0       -3.190635   -8.712460   -8.074218
     17          7           0       -3.922653   -6.308853   -3.499618
     18          1           0       -2.967335   -6.660802   -3.399616
     19          6           0       -4.093532   -5.025499   -2.811224
     20          1           0       -4.646108   -4.356484   -3.476892
     21          6           0       -2.640328   -4.520966   -2.632267
     22          6           0       -4.895713   -5.200263   -1.483432
     23          1           0       -5.794896   -5.755488   -1.786022
     24          8           0       -1.696054   -5.307486   -2.796584
     25          6           0       -5.380816   -3.871708   -0.863257
     26          1           0       -4.530947   -3.287844   -0.488727
     27          1           0       -5.961969   -4.140454    0.027899
     28          6           0       -4.127722   -6.042495   -0.454478
     29          1           0       -3.235793   -5.519461   -0.090966
     30          1           0       -3.806110   -7.005608   -0.866242
     31          1           0       -4.764035   -6.248975    0.412131
     32          6           0       -6.256304   -2.997762   -1.770451
     33          1           0       -6.661168   -2.152940   -1.205184
     34          1           0       -7.100619   -3.565541   -2.179789
     35          1           0       -5.702575   -2.571793   -2.616493
     36          7           0       -2.495652   -3.232500   -2.304803
     37          1           0       -3.292567   -2.629306   -2.103688
     38          6           0       -1.223082   -2.618609   -1.941784
     39          1           0       -0.647714   -3.337510   -1.347145
     40          6           0       -1.607137   -1.403389   -1.064836
     41          6           0       -0.401239   -2.213518   -3.176440
     42          1           0        0.553467   -1.766198   -2.881848
     43          1           0       -0.950520   -1.486449   -3.783320
     44          1           0       -0.192184   -3.099113   -3.782705
     45          8           0       -2.784717   -1.042909   -0.986845
     46          7           0       -0.588243   -0.794849   -0.435226
     47          1           0        0.373367   -1.107927   -0.533402
     48          6           0       -0.741397    0.382871    0.413868
     49          1           0       -1.530159    1.012096   -0.009876
     50          6           0        0.622068    1.095616    0.366872
     51          6           0       -1.150824   -0.037185    1.850047
     52          1           0       -0.412728   -0.758244    2.220365
     53          1           0       -2.113703   -0.548782    1.759064
     54          8           0        1.653289    0.446352    0.183805
     55          6           0       -1.295755    1.111564    2.862999
     56          1           0       -1.645605    0.682783    3.809345
     57          1           0       -0.335738    1.596736    3.060516
     58          6           0       -2.349764    2.126831    2.414882
     59          7           0       -1.888629    3.408824    2.267878
     60          1           0       -0.985924    3.695336    2.645346
     61          1           0       -2.572565    4.124826    2.056274
     62          8           0       -3.495911    1.793834    2.146589
     63          7           0        0.589388    2.441158    0.528420
     64          1           0       -0.295384    2.886338    0.759534
     65          6           0        1.792393    3.239942    0.677683
     66          1           0        2.628028    2.577939    0.433604
     67          6           0        1.940130    3.714379    2.138696
     68          6           0        1.806396    4.438707   -0.317337
     69          1           0        1.817071    4.012039   -1.326469
     70          1           0        2.755185    4.973053   -0.188183
     71          8           0        0.978829    3.801487    2.911796
     72          6           0        0.643959    5.397744   -0.172650
     73          6           0       -0.539997    5.214126   -0.903905
     74          1           0       -0.610069    4.387682   -1.607361
     75          6           0        0.704810    6.487333    0.705765
     76          1           0        1.612103    6.667720    1.277267
     77          6           0       -1.627770    6.070790   -0.759687
     78          1           0       -2.538388    5.928007   -1.332775
     79          6           0       -0.373260    7.357126    0.860449
     80          1           0       -0.299783    8.200029    1.545181
     81          8           0       -2.639932    7.961616    0.230391
     82          1           0       -2.450620    8.677210    0.857308
     83          6           0       -1.547597    7.149448    0.128231
     84          7           0        3.192325    4.057142    2.497812
     85          1           0        3.978530    3.993774    1.856237
     86          6           0        3.538189    4.599505    3.803428
     87          1           0        2.780927    5.340852    4.083449
     88          6           0        4.906038    5.286790    3.631220
     89          6           0        3.594231    3.507690    4.888869
     90          1           0        3.845732    3.934491    5.865401
     91          1           0        2.617779    3.022793    4.963170
     92          1           0        4.348173    2.755404    4.635173
     93          8           0        5.605159    5.061938    2.639213
     94          7           0        5.260815    6.117117    4.634409
     95          1           0        4.713775    6.141729    5.492006
     96          6           0        6.615354    6.623007    4.818376
     97          1           0        7.309428    5.927924    4.336601
     98          6           0        6.896512    6.610517    6.330640
     99          6           0        6.818339    8.047131    4.241837
    100          1           0        7.658915    8.525707    4.755302
    101          1           0        5.926665    8.636779    4.484800
    102          8           0        8.159779    6.814149    6.674707
    103          6           0        7.075089    8.076295    2.729598
    104          1           0        7.025339    9.117207    2.380886
    105          1           0        6.289907    7.524442    2.201128
    106          6           0        8.426851    7.475793    2.312306
    107          1           0        8.479448    7.445600    1.216851
    108          1           0        8.524123    6.445886    2.661497
    109          7           0        9.596720    8.206445    2.790365
    110          1           0        9.785245    9.108645    2.376275
    111          7           0       10.037331    6.945897    4.708122
    112          1           0       10.831319    6.669990    5.285561
    113          1           0        8.766468    6.873334    5.866689
    114          7           0       11.594540    8.547073    3.869134
    115          1           0       12.227807    8.305201    4.619343
    116          1           0       12.060817    8.696719    2.982523
    117          6           0       10.397990    7.840663    3.834709
    118          8           0        6.005575    6.449050    7.143203
 ---------------------------------------------------------------------

 SCF Done:  E(RB3LYP) =  -2837.65796188     A.U. after    3 cycles

 Alpha  occ. eigenvalues --  -19.30110 -19.25847 -19.22604 -19.21243 -19.20489
 Alpha  occ. eigenvalues --  -19.18797 -19.17865 -19.17823 -19.17392 -19.16431
 Alpha  occ. eigenvalues --  -19.14625 -14.58927 -14.48613 -14.44474 -14.42654
 Alpha  occ. eigenvalues --  -14.41814 -14.41628 -14.41066 -14.41062 -14.40889
 Alpha  occ. eigenvalues --  -14.38801 -14.35362 -10.42929 -10.40190 -10.39587
 Alpha  occ. eigenvalues --  -10.38203 -10.35925 -10.35231 -10.34926 -10.34775
 Alpha  occ. eigenvalues --  -10.34767 -10.34314 -10.33391 -10.32391 -10.31341
 Alpha  occ. eigenvalues --  -10.30510 -10.29901 -10.29331 -10.29322 -10.29033
 Alpha  occ. eigenvalues --  -10.28302 -10.27833 -10.26972 -10.25670 -10.25601
 Alpha  occ. eigenvalues --  -10.25502 -10.25324 -10.24401 -10.24386 -10.24280
 Alpha  occ. eigenvalues --  -10.24227 -10.24102 -10.23971 -10.23542 -10.23493
 Alpha  occ. eigenvalues --  -10.23408 -10.23205 -10.23160  -1.18814  -1.17171
 Alpha  occ. eigenvalues --   -1.13191  -1.12576  -1.12145  -1.10791  -1.10681
 Alpha  occ. eigenvalues --   -1.09929  -1.09388  -1.08751  -1.06437  -1.05246
 Alpha  occ. eigenvalues --   -1.04253  -1.03944  -1.01138  -0.99198  -0.98509
 Alpha  occ. eigenvalues --   -0.98150  -0.97561  -0.94808  -0.93496  -0.93077
 Alpha  occ. eigenvalues --   -0.90439  -0.90375  -0.89767  -0.86278  -0.85174
 Alpha  occ. eigenvalues --   -0.84980  -0.84367  -0.83481  -0.81944  -0.81716
 Alpha  occ. eigenvalues --   -0.79734  -0.79576  -0.78881  -0.78135  -0.76863
 Alpha  occ. eigenvalues --   -0.76747  -0.73704  -0.73606  -0.72817  -0.72255
 Alpha  occ. eigenvalues --   -0.71917  -0.71278  -0.70300  -0.69863  -0.68907
 Alpha  occ. eigenvalues --   -0.67179  -0.67071  -0.66555  -0.66355  -0.65717
 Alpha  occ. eigenvalues --   -0.65148  -0.65087  -0.64653  -0.64300  -0.63806
 Alpha  occ. eigenvalues --   -0.63470  -0.63315  -0.62656  -0.62576  -0.61633
 Alpha  occ. eigenvalues --   -0.60883  -0.59986  -0.59812  -0.59281  -0.58701
 Alpha  occ. eigenvalues --   -0.58297  -0.58058  -0.57204  -0.56885  -0.56659
 Alpha  occ. eigenvalues --   -0.56044  -0.55744  -0.54849  -0.54599  -0.53947
 Alpha  occ. eigenvalues --   -0.53607  -0.53495  -0.52879  -0.52776  -0.52552
 Alpha  occ. eigenvalues --   -0.52189  -0.52062  -0.51982  -0.51818  -0.51588
 Alpha  occ. eigenvalues --   -0.51469  -0.51049  -0.50588  -0.50455  -0.50235
 Alpha  occ. eigenvalues --   -0.50111  -0.49912  -0.49763  -0.49247  -0.48932
 Alpha  occ. eigenvalues --   -0.48824  -0.48290  -0.48245  -0.47992  -0.47887
 Alpha  occ. eigenvalues --   -0.47756  -0.47464  -0.47258  -0.47212  -0.47136
 Alpha  occ. eigenvalues --   -0.46710  -0.46011  -0.45840  -0.45466  -0.45316
 Alpha  occ. eigenvalues --   -0.45190  -0.45010  -0.44557  -0.44430  -0.44401
 Alpha  occ. eigenvalues --   -0.43821  -0.43759  -0.43625  -0.43334  -0.43145
 Alpha  occ. eigenvalues --   -0.42849  -0.42629  -0.42446  -0.42192  -0.41914
 Alpha  occ. eigenvalues --   -0.41660  -0.41143  -0.41138  -0.40710  -0.40594
 Alpha  occ. eigenvalues --   -0.40487  -0.40099  -0.39987  -0.39838  -0.39573
 Alpha  occ. eigenvalues --   -0.39453  -0.39069  -0.38581  -0.38543  -0.37696
 Alpha  occ. eigenvalues --   -0.37645  -0.35345  -0.34507  -0.33902  -0.33472
 Alpha  occ. eigenvalues --   -0.33152  -0.32772  -0.32365  -0.31920  -0.31641
 Alpha  occ. eigenvalues --   -0.31424  -0.31216  -0.30924  -0.30546  -0.30447
 Alpha  occ. eigenvalues --   -0.29986  -0.29900  -0.28694  -0.28315  -0.26693
 Alpha virt. eigenvalues --   -0.11858  -0.09677  -0.07011  -0.05801  -0.05546
 Alpha virt. eigenvalues --   -0.04841  -0.04354  -0.03948  -0.03630  -0.03274
 Alpha virt. eigenvalues --   -0.02749  -0.01908  -0.01696  -0.01379  -0.01126

 Mulliken charges:
               1
     1  N   -0.749158
     2  H    0.415261
     3  H    0.429381
     4  H    0.425129
     5  C   -0.123284
     6  H    0.214176
     7  C    0.643394
     8  C    0.126736
     9  H    0.171702
    10  O   -0.539156
    11  C   -0.488408
    12  H    0.195988
    13  H    0.182947
    14  H    0.181535
    15  O   -0.648405
    16  H    0.433610
    17  N   -0.604422
    18  H    0.376331
    19  C   -0.081966
    20  H    0.193215
    21  C    0.632032
    22  C   -0.075050
    23  H    0.148341
    24  O   -0.564146
    25  C   -0.283883
    26  H    0.163478
    27  H    0.156191
    28  C   -0.462521
    29  H    0.165152
    30  H    0.135525
    31  H    0.166920
    32  C   -0.461488
    33  H    0.179266
    34  H    0.152394
    35  H    0.140561
    36  N   -0.622010
    37  H    0.383279
    38  C   -0.050289
    39  H    0.184971
    40  C    0.626580
    41  C   -0.449007
    42  H    0.167289
    43  H    0.164860
    44  H    0.176131
    45  O   -0.538777
    46  N   -0.624097
    47  H    0.356658
    48  C   -0.058149
    49  H    0.194945
    50  C    0.610649
    51  C   -0.259588
    52  H    0.147430
    53  H    0.189313
    54  O   -0.543498
    55  C   -0.382253
    56  H    0.177185
    57  H    0.170393
    58  C    0.567426
    59  N   -0.791489
    60  H    0.395801
    61  H    0.339936
    62  O   -0.504307
    63  N   -0.615029
    64  H    0.373089
    65  C   -0.085328
    66  H    0.192152
    67  C    0.652063
    68  C   -0.359927
    69  H    0.165396
    70  H    0.160568
    71  O   -0.556719
    72  C    0.154256
    73  C   -0.195377
    74  H    0.131552
    75  C   -0.181721
    76  H    0.132709
    77  C   -0.159528
    78  H    0.149519
    79  C   -0.193294
    80  H    0.128465
    81  O   -0.636104
    82  H    0.412310
    83  C    0.346567
    84  N   -0.611318
    85  H    0.358807
    86  C   -0.039079
    87  H    0.178250
    88  C    0.611530
    89  C   -0.454345
    90  H    0.168133
    91  H    0.184548
    92  H    0.163523
    93  O   -0.548892
    94  N   -0.609165
    95  H    0.357116
    96  C   -0.086078
    97  H    0.194143
    98  C    0.602680
    99  C   -0.265535
   100  H    0.160247
   101  H    0.152701
   102  O   -0.611431
   103  C   -0.268342
   104  H    0.130814
   105  H    0.167018
   106  C   -0.140484
   107  H    0.151851
   108  H    0.194512
   109  N   -0.592913
   110  H    0.330512
   111  N   -0.735008
   112  H    0.295161
   113  H    0.473385
   114  N   -0.757806
   115  H    0.338213
   116  H    0.335426
   117  C    0.662201
   118  O   -0.482749
 Sum of Mulliken charges =   1.00000

 Dipole moment (field-independent basis, Debye):
    X=             -4.3883    Y=            -19.9886    Z=            -21.7454  Tot=             29.8608
 Quadrupole moment (field-independent basis, Debye-Ang):
   XX=           -132.3021   YY=             38.1675   ZZ=           -235.1345
   XY=            252.0938   XZ=            103.3722   YZ=            185.9407

 Normal termination of Gaussian 16 at Sat Jul  2 15:33:29 2022.
