 Gaussian 16, Revision C.01,
 Gaussian 16:  ES64L-G16RevC.01  3-Jul-2019

 -------------------------------------------------------------------
 # B3LYP/6-31G* guess=read geom=check nosymm integral(ultrafinegrid)
 -------------------------------------------------------------------

 ------------------------------------------------------
 Candidate Structure: Conf:962 Charge calc in gas phase
 ------------------------------------------------------
 Structure from the checkpoint file:  "conf-962.chk"
 Charge =  1 Multiplicity = 1

                          Input orientation:
 ---------------------------------------------------------------------
 Center     Atomic      Atomic             Coordinates (Angstroms)
 Number     Number       Type             X           Y           Z
 ---------------------------------------------------------------------
      1          7           0       -6.233842   -4.478753   -5.757618
      2          1           0       -6.145270   -3.445912   -5.906562
      3          1           0       -6.827168   -4.928270   -6.457174
      4          1           0       -5.270465   -4.873345   -5.767294
      5          6           0       -6.694996   -4.629681   -4.332262
      6          1           0       -7.771533   -4.821376   -4.316896
      7          6           0       -6.350242   -3.248547   -3.711707
      8          6           0       -5.858538   -5.797666   -3.720232
      9          1           0       -5.965579   -5.764912   -2.629695
     10          8           0       -5.949227   -2.354177   -4.459448
     11          6           0       -6.300089   -7.167518   -4.224921
     12          1           0       -7.345775   -7.368283   -3.969134
     13          1           0       -6.180808   -7.258649   -5.311193
     14          1           0       -5.674170   -7.936698   -3.766083
     15          8           0       -4.511494   -5.579948   -4.095958
     16          1           0       -4.114028   -4.942509   -3.452919
     17          7           0       -6.469994   -3.126338   -2.379336
     18          1           0       -6.689176   -3.963252   -1.853235
     19          6           0       -5.652676   -2.143613   -1.653265
     20          1           0       -5.853427   -1.156789   -2.081603
     21          6           0       -4.166546   -2.521525   -1.916711
     22          6           0       -6.060867   -2.154822   -0.152870
     23          1           0       -5.941759   -3.192856    0.199849
     24          8           0       -3.850786   -3.691877   -2.192550
     25          6           0       -7.547606   -1.752612   -0.004196
     26          1           0       -8.149518   -2.292000   -0.745952
     27          1           0       -7.646620   -0.686955   -0.254250
     28          6           0       -5.151234   -1.262017    0.705013
     29          1           0       -5.182801   -0.218154    0.367931
     30          1           0       -4.109130   -1.590114    0.694345
     31          1           0       -5.484742   -1.277927    1.745525
     32          6           0       -8.136272   -2.014892    1.387073
     33          1           0       -9.202761   -1.768029    1.400698
     34          1           0       -7.654286   -1.413344    2.163775
     35          1           0       -8.036486   -3.069924    1.670504
     36          7           0       -3.283708   -1.524953   -1.830000
     37          1           0       -3.551345   -0.585352   -1.536440
     38          6           0       -1.838521   -1.687730   -1.950909
     39          1           0       -1.540287   -2.588207   -1.401853
     40          6           0       -1.234732   -0.436040   -1.273884
     41          6           0       -1.394893   -1.816984   -3.418373
     42          1           0       -0.311213   -1.952599   -3.489336
     43          1           0       -1.670077   -0.921030   -3.983719
     44          1           0       -1.877928   -2.685960   -3.872525
     45          8           0       -1.959093    0.509696   -0.952738
     46          7           0        0.096646   -0.462597   -1.088939
     47          1           0        0.678163   -1.223570   -1.434282
     48          6           0        0.865737    0.681321   -0.621364
     49          1           0        0.440818    1.590786   -1.062771
     50          6           0        2.302898    0.461398   -1.142787
     51          6           0        0.841690    0.845804    0.919431
     52          1           0       -0.175315    1.111638    1.222369
     53          1           0        1.488431    1.694137    1.172210
     54          8           0        2.661191   -0.648061   -1.533271
     55          6           0        1.313687   -0.408766    1.686051
     56          1           0        0.517037   -1.159063    1.694847
     57          1           0        2.190869   -0.839974    1.199243
     58          6           0        1.639327   -0.068135    3.131230
     59          7           0        2.943729   -0.001907    3.433586
     60          1           0        3.647469    0.027430    2.694274
     61          1           0        3.241542    0.300028    4.352665
     62          8           0        0.726924    0.151712    3.961222
     63          7           0        3.093594    1.562073   -1.130769
     64          1           0        2.717870    2.418244   -0.739506
     65          6           0        4.546365    1.490250   -1.162587
     66          1           0        4.801921    0.619490   -1.776724
     67          6           0        5.054191    1.141109    0.266375
     68          6           0        5.116370    2.762682   -1.839261
     69          1           0        4.923029    2.660330   -2.912212
     70          1           0        6.209954    2.766962   -1.743662
     71          8           0        4.298998    0.543958    1.039012
     72          6           0        4.522082    4.077593   -1.362481
     73          6           0        3.712015    4.829154   -2.229270
     74          1           0        3.522181    4.461657   -3.235503
     75          6           0        4.750919    4.581825   -0.072675
     76          1           0        5.351035    4.037664    0.652663
     77          6           0        3.155437    6.044514   -1.841391
     78          1           0        2.540345    6.626159   -2.520639
     79          6           0        4.195591    5.796557    0.327401
     80          1           0        4.390407    6.165843    1.332589
     81          8           0        2.836673    7.733120   -0.219821
     82          1           0        3.131281    7.985335    0.669394
     83          6           0        3.401575    6.536473   -0.555208
     84          7           0        6.335716    1.410117    0.581195
     85          1           0        6.869636    2.031064   -0.009666
     86          6           0        6.855321    1.151768    1.924267
     87          1           0        6.637599    0.106778    2.164780
     88          6           0        6.164285    2.065221    2.970056
     89          6           0        8.370369    1.383547    1.953317
     90          1           0        8.760381    1.155088    2.949305
     91          1           0        8.879114    0.741357    1.226562
     92          1           0        8.604982    2.431366    1.731464
     93          8           0        5.760866    3.191387    2.663197
     94          7           0        6.095284    1.520209    4.199256
     95          1           0        6.689878    0.702297    4.444247
     96          6           0        5.971062    2.279472    5.442826
     97          1           0        6.450833    3.259703    5.327771
     98          6           0        6.751479    1.421358    6.544648
     99          6           0        4.540107    2.464636    5.942998
    100          1           0        4.667620    2.857062    6.961460
    101          1           0        4.111839    1.455555    6.049098
    102          8           0        6.573402    1.793761    7.718217
    103          6           0        3.589637    3.347951    5.133812
    104          1           0        3.505389    2.989484    4.101454
    105          1           0        3.985490    4.368737    5.064890
    106          6           0        2.193573    3.424880    5.774794
    107          1           0        1.518046    4.048583    5.180675
    108          1           0        2.237462    3.873757    6.772782
    109          7           0        1.543669    2.108541    5.892466
    110          1           0        1.156532    1.680874    5.044725
    111          7           0        2.169242    1.632972    8.101186
    112          1           0        2.212560    0.944572    8.840245
    113          1           0        2.967606    2.255430    8.067545
    114          7           0        0.905137    0.118512    6.849469
    115          1           0        1.140097   -0.624635    7.492267
    116          1           0        0.620668   -0.159741    5.907018
    117          6           0        1.571555    1.289754    6.939963
    118          8           0        7.406155    0.454092    6.071257
 ---------------------------------------------------------------------

 SCF Done:  E(RB3LYP) =  -2837.62866743     A.U. after    3 cycles

 Alpha  occ. eigenvalues --  -19.28022 -19.27582 -19.23646 -19.22828 -19.21048
 Alpha  occ. eigenvalues --  -19.19988 -19.19611 -19.19058 -19.14890 -19.07236
 Alpha  occ. eigenvalues --  -19.06313 -14.59381 -14.50336 -14.46828 -14.46612
 Alpha  occ. eigenvalues --  -14.46175 -14.45980 -14.44604 -14.43399 -14.42813
 Alpha  occ. eigenvalues --  -14.42364 -14.36902 -10.44275 -10.42819 -10.40652
 Alpha  occ. eigenvalues --  -10.40522 -10.39293 -10.38090 -10.37089 -10.36637
 Alpha  occ. eigenvalues --  -10.35858 -10.35548 -10.33472 -10.31698 -10.31622
 Alpha  occ. eigenvalues --  -10.30931 -10.30919 -10.30785 -10.30577 -10.30045
 Alpha  occ. eigenvalues --  -10.28316 -10.28151 -10.27628 -10.27332 -10.27205
 Alpha  occ. eigenvalues --  -10.26472 -10.26305 -10.26299 -10.25240 -10.24647
 Alpha  occ. eigenvalues --  -10.24480 -10.24004 -10.23827 -10.23633 -10.23618
 Alpha  occ. eigenvalues --  -10.23285 -10.22687 -10.22273  -1.20171  -1.16396
 Alpha  occ. eigenvalues --   -1.15158  -1.13046  -1.12827  -1.11664  -1.11551
 Alpha  occ. eigenvalues --   -1.10895  -1.10653  -1.10518  -1.07050  -1.06161
 Alpha  occ. eigenvalues --   -1.03364  -1.01268  -1.00598  -1.00342  -1.00204
 Alpha  occ. eigenvalues --   -0.99516  -0.98951  -0.97647  -0.93984  -0.93308
 Alpha  occ. eigenvalues --   -0.91509  -0.91349  -0.90585  -0.88517  -0.86777
 Alpha  occ. eigenvalues --   -0.86033  -0.85300  -0.85012  -0.83342  -0.82137
 Alpha  occ. eigenvalues --   -0.80696  -0.80435  -0.79737  -0.78705  -0.78050
 Alpha  occ. eigenvalues --   -0.76286  -0.75051  -0.74617  -0.73879  -0.73687
 Alpha  occ. eigenvalues --   -0.72645  -0.72485  -0.72114  -0.71610  -0.71151
 Alpha  occ. eigenvalues --   -0.69601  -0.68820  -0.68204  -0.67973  -0.67637
 Alpha  occ. eigenvalues --   -0.67248  -0.66381  -0.66327  -0.66053  -0.65258
 Alpha  occ. eigenvalues --   -0.65030  -0.64490  -0.63875  -0.63353  -0.62749
 Alpha  occ. eigenvalues --   -0.62604  -0.61270  -0.60630  -0.60154  -0.59837
 Alpha  occ. eigenvalues --   -0.59553  -0.59363  -0.59214  -0.58743  -0.58160
 Alpha  occ. eigenvalues --   -0.58021  -0.56905  -0.56407  -0.56136  -0.55703
 Alpha  occ. eigenvalues --   -0.55551  -0.55115  -0.54990  -0.54778  -0.54392
 Alpha  occ. eigenvalues --   -0.53794  -0.53652  -0.53261  -0.53123  -0.52627
 Alpha  occ. eigenvalues --   -0.52461  -0.52317  -0.51937  -0.51922  -0.51765
 Alpha  occ. eigenvalues --   -0.51211  -0.50963  -0.50675  -0.50485  -0.50090
 Alpha  occ. eigenvalues --   -0.49911  -0.49399  -0.49306  -0.48846  -0.48722
 Alpha  occ. eigenvalues --   -0.48298  -0.48005  -0.47896  -0.47854  -0.47444
 Alpha  occ. eigenvalues --   -0.47372  -0.47287  -0.46831  -0.46697  -0.46299
 Alpha  occ. eigenvalues --   -0.46236  -0.45869  -0.45826  -0.45746  -0.45571
 Alpha  occ. eigenvalues --   -0.45238  -0.44795  -0.44208  -0.43804  -0.43744
 Alpha  occ. eigenvalues --   -0.43356  -0.43133  -0.42930  -0.42860  -0.42634
 Alpha  occ. eigenvalues --   -0.42620  -0.42497  -0.42251  -0.41867  -0.41490
 Alpha  occ. eigenvalues --   -0.41283  -0.40540  -0.40215  -0.40172  -0.39257
 Alpha  occ. eigenvalues --   -0.38494  -0.38406  -0.37954  -0.37919  -0.37420
 Alpha  occ. eigenvalues --   -0.37353  -0.36912  -0.36761  -0.35233  -0.35132
 Alpha  occ. eigenvalues --   -0.34794  -0.34731  -0.34654  -0.34278  -0.33482
 Alpha  occ. eigenvalues --   -0.33281  -0.33122  -0.31947  -0.30277  -0.28870
 Alpha  occ. eigenvalues --   -0.28078  -0.27100  -0.22448  -0.22057  -0.20640
 Alpha virt. eigenvalues --   -0.13813  -0.09797  -0.09650  -0.07531  -0.07003
 Alpha virt. eigenvalues --   -0.06389  -0.06308  -0.05822  -0.04951  -0.04639
 Alpha virt. eigenvalues --   -0.04462  -0.03967  -0.02462  -0.02200  -0.01423

 Mulliken charges:
               1
     1  N   -0.750887
     2  H    0.430036
     3  H    0.411671
     4  H    0.425061
     5  C   -0.127468
     6  H    0.219624
     7  C    0.642271
     8  C    0.088143
     9  H    0.168208
    10  O   -0.521719
    11  C   -0.453095
    12  H    0.168738
    13  H    0.149356
    14  H    0.210033
    15  O   -0.654132
    16  H    0.470122
    17  N   -0.583547
    18  H    0.347083
    19  C   -0.059435
    20  H    0.195538
    21  C    0.645867
    22  C   -0.107571
    23  H    0.133865
    24  O   -0.597422
    25  C   -0.259600
    26  H    0.137689
    27  H    0.152340
    28  C   -0.478131
    29  H    0.162924
    30  H    0.166323
    31  H    0.176701
    32  C   -0.453966
    33  H    0.166646
    34  H    0.163989
    35  H    0.146949
    36  N   -0.597288
    37  H    0.373613
    38  C   -0.050543
    39  H    0.187595
    40  C    0.621435
    41  C   -0.449736
    42  H    0.174102
    43  H    0.171441
    44  H    0.168806
    45  O   -0.541572
    46  N   -0.618797
    47  H    0.363697
    48  C   -0.068955
    49  H    0.183999
    50  C    0.641928
    51  C   -0.272457
    52  H    0.185006
    53  H    0.158550
    54  O   -0.537925
    55  C   -0.347510
    56  H    0.164052
    57  H    0.196498
    58  C    0.581152
    59  N   -0.751211
    60  H    0.415693
    61  H    0.356096
    62  O   -0.589425
    63  N   -0.591576
    64  H    0.347135
    65  C   -0.082375
    66  H    0.210167
    67  C    0.656357
    68  C   -0.382086
    69  H    0.168344
    70  H    0.154489
    71  O   -0.555016
    72  C    0.127752
    73  C   -0.194645
    74  H    0.129773
    75  C   -0.215659
    76  H    0.191187
    77  C   -0.158299
    78  H    0.145927
    79  C   -0.211556
    80  H    0.137587
    81  O   -0.637924
    82  H    0.412036
    83  C    0.353379
    84  N   -0.594956
    85  H    0.344856
    86  C   -0.046212
    87  H    0.172666
    88  C    0.613475
    89  C   -0.489870
    90  H    0.205963
    91  H    0.163684
    92  H    0.164130
    93  O   -0.550597
    94  N   -0.623253
    95  H    0.357763
    96  C   -0.072642
    97  H    0.150050
    98  C    0.583456
    99  C   -0.294530
   100  H    0.165873
   101  H    0.101617
   102  O   -0.592307
   103  C   -0.253345
   104  H    0.159722
   105  H    0.162298
   106  C   -0.184324
   107  H    0.175969
   108  H    0.171763
   109  N   -0.594674
   110  H    0.391270
   111  N   -0.741263
   112  H    0.368128
   113  H    0.396407
   114  N   -0.772303
   115  H    0.357075
   116  H    0.402560
   117  C    0.753229
   118  O   -0.607120
 Sum of Mulliken charges =   1.00000

 Dipole moment (field-independent basis, Debye):
    X=            -32.1009    Y=            -14.9052    Z=            -16.0712  Tot=             38.8705
 Quadrupole moment (field-independent basis, Debye-Ang):
   XX=           -230.3607   YY=           -241.6443   ZZ=           -240.0756
   XY=            128.8116   XZ=             17.0207   YZ=             83.4168

 Normal termination of Gaussian 16 at Sat Jul  2 15:34:05 2022.
