 Gaussian 16, Revision C.01,
 Gaussian 16:  ES64L-G16RevC.01  3-Jul-2019

 -------------------------------------------------------------------
 # B3LYP/6-31G* guess=read geom=check nosymm integral(ultrafinegrid)
 -------------------------------------------------------------------

 ------------------------------------------------------
 Candidate Structure: Conf:883 Charge calc in gas phase
 ------------------------------------------------------
 Structure from the checkpoint file:  "conf-883.chk"
 Charge =  1 Multiplicity = 1

                          Input orientation:
 ---------------------------------------------------------------------
 Center     Atomic      Atomic             Coordinates (Angstroms)
 Number     Number       Type             X           Y           Z
 ---------------------------------------------------------------------
      1          7           0       -5.359016   -3.903096   -0.939248
      2          1           0       -5.819713   -3.587218   -0.082586
      3          1           0       -5.017949   -4.871433   -0.827893
      4          1           0       -6.017222   -3.789670   -1.747629
      5          6           0       -4.183417   -3.038435   -1.332095
      6          1           0       -3.721297   -2.603760   -0.443095
      7          6           0       -4.811697   -1.987717   -2.276650
      8          6           0       -3.191500   -3.966376   -2.072020
      9          1           0       -3.630531   -4.217800   -3.050102
     10          8           0       -5.814889   -2.341632   -2.920563
     11          6           0       -1.815582   -3.344965   -2.256014
     12          1           0       -1.872057   -2.435200   -2.861393
     13          1           0       -1.376873   -3.090709   -1.287859
     14          1           0       -1.160691   -4.057436   -2.771383
     15          8           0       -3.158545   -5.149473   -1.251286
     16          1           0       -2.562127   -5.796701   -1.658948
     17          7           0       -4.207207   -0.810538   -2.287937
     18          1           0       -3.390235   -0.682009   -1.658180
     19          6           0       -4.481880    0.277419   -3.222714
     20          1           0       -5.274561   -0.051702   -3.904690
     21          6           0       -3.162911    0.442592   -4.031932
     22          6           0       -4.993738    1.505679   -2.390127
     23          1           0       -4.300158    1.603154   -1.542961
     24          8           0       -2.204530   -0.293323   -3.805163
     25          6           0       -6.396867    1.174445   -1.826203
     26          1           0       -6.432122    0.121862   -1.524315
     27          1           0       -7.134185    1.281102   -2.634969
     28          6           0       -5.011671    2.853855   -3.128432
     29          1           0       -5.580597    2.794612   -4.068000
     30          1           0       -4.004259    3.231637   -3.321904
     31          1           0       -5.515985    3.603294   -2.511393
     32          6           0       -6.812632    2.036132   -0.628118
     33          1           0       -7.803276    1.739524   -0.265957
     34          1           0       -6.865035    3.101231   -0.876930
     35          1           0       -6.105409    1.923621    0.202660
     36          7           0       -3.091530    1.404122   -4.992369
     37          1           0       -3.827935    2.094536   -5.029776
     38          6           0       -1.757969    1.866380   -5.413412
     39          1           0       -1.243015    1.019422   -5.875832
     40          6           0       -1.006227    2.325625   -4.136997
     41          6           0       -1.897077    3.014410   -6.411203
     42          1           0       -0.911769    3.314195   -6.780693
     43          1           0       -2.354271    3.884432   -5.928398
     44          1           0       -2.507591    2.711707   -7.268198
     45          8           0       -1.492953    3.196036   -3.412547
     46          7           0        0.150450    1.683891   -3.876607
     47          1           0        0.486439    0.961634   -4.502040
     48          6           0        0.907224    1.813959   -2.641877
     49          1           0        0.737469    2.823553   -2.253921
     50          6           0        2.389694    1.625663   -3.001726
     51          6           0        0.491302    0.760730   -1.574494
     52          1           0        1.285829    0.660457   -0.827762
     53          1           0        0.399564   -0.206514   -2.082064
     54          8           0        2.732588    1.018396   -4.010018
     55          6           0       -0.831859    1.120077   -0.865757
     56          1           0       -0.673316    2.020572   -0.261130
     57          1           0       -1.609040    1.338675   -1.597065
     58          6           0       -1.335476    0.003068    0.042038
     59          7           0       -0.669322   -0.156319    1.184522
     60          1           0        0.167627    0.420258    1.436746
     61          1           0       -0.968529   -0.894129    1.808448
     62          8           0       -2.315370   -0.718540   -0.271301
     63          7           0        3.263052    2.194222   -2.119243
     64          1           0        2.874554    2.471667   -1.224284
     65          6           0        4.679287    1.837332   -2.114665
     66          1           0        4.827419    1.241868   -3.021533
     67          6           0        4.893803    0.886336   -0.910872
     68          6           0        5.543472    3.119028   -2.189323
     69          1           0        5.404313    3.703688   -1.270689
     70          1           0        5.112994    3.721528   -2.998565
     71          8           0        4.023839    0.057483   -0.638812
     72          6           0        7.026408    2.915268   -2.441959
     73          6           0        7.988451    3.497561   -1.601422
     74          1           0        7.662936    4.097227   -0.753227
     75          6           0        7.486647    2.174808   -3.540511
     76          1           0        6.775260    1.721819   -4.226737
     77          6           0        9.354000    3.343691   -1.831765
     78          1           0       10.091207    3.799535   -1.178633
     79          6           0        8.848095    2.012203   -3.785427
     80          1           0        9.179898    1.433695   -4.645640
     81          8           0       11.136259    2.470807   -3.111299
     82          1           0       11.305498    1.941904   -3.906638
     83          6           0        9.790057    2.595038   -2.928789
     84          7           0        6.012796    1.031865   -0.163133
     85          1           0        6.722476    1.698344   -0.439794
     86          6           0        6.243228    0.244157    1.053612
     87          1           0        5.749411   -0.719817    0.888055
     88          6           0        5.563951    0.907537    2.285460
     89          6           0        7.737400    0.041609    1.282183
     90          1           0        7.900783   -0.541957    2.190567
     91          1           0        8.184069   -0.483792    0.432368
     92          1           0        8.250098    0.999860    1.418424
     93          8           0        6.203702    1.171576    3.307644
     94          7           0        4.244718    1.166150    2.138845
     95          1           0        3.716070    0.799493    1.346004
     96          6           0        3.413887    1.663775    3.222648
     97          1           0        3.565519    1.026187    4.105663
     98          6           0        1.906860    1.567570    2.823690
     99          6           0        3.787449    3.109906    3.620213
    100          1           0        3.371907    3.811422    2.883762
    101          1           0        4.878657    3.202827    3.594192
    102          8           0        1.081844    1.881682    3.701605
    103          6           0        3.271291    3.444339    5.022693
    104          1           0        3.722012    2.737746    5.737305
    105          1           0        2.191768    3.262204    5.047136
    106          6           0        3.604247    4.879535    5.430663
    107          1           0        3.050857    5.600999    4.823639
    108          1           0        4.668144    5.111201    5.302323
    109          7           0        3.259580    5.178150    6.840779
    110          1           0        2.302749    5.448977    7.031702
    111          7           0        5.150472    4.167477    7.739050
    112          1           0        5.845565    4.136389    8.470750
    113          1           0        5.326513    3.632843    6.899099
    114          7           0        3.680800    5.298035    9.121604
    115          1           0        4.039112    4.838849    9.946626
    116          1           0        2.942000    5.973873    9.252459
    117          6           0        4.018021    4.869041    7.888425
    118          8           0        1.679845    1.178577    1.633242
 ---------------------------------------------------------------------

 SCF Done:  E(RB3LYP) =  -2837.63251873     A.U. after    2 cycles

 Alpha  occ. eigenvalues --  -19.25721 -19.22664 -19.21038 -19.18235 -19.16582
 Alpha  occ. eigenvalues --  -19.16488 -19.15971 -19.15817 -19.14501 -19.11384
 Alpha  occ. eigenvalues --  -19.10126 -14.54922 -14.51780 -14.51570 -14.51464
 Alpha  occ. eigenvalues --  -14.43324 -14.41983 -14.40716 -14.40713 -14.40540
 Alpha  occ. eigenvalues --  -14.37801 -14.37442 -10.47919 -10.37920 -10.35280
 Alpha  occ. eigenvalues --  -10.34795 -10.34594 -10.33506 -10.33450 -10.33277
 Alpha  occ. eigenvalues --  -10.33252 -10.33105 -10.31412 -10.30431 -10.29995
 Alpha  occ. eigenvalues --  -10.29041 -10.28974 -10.28297 -10.27986 -10.27167
 Alpha  occ. eigenvalues --  -10.26078 -10.25672 -10.24897 -10.24768 -10.24699
 Alpha  occ. eigenvalues --  -10.24552 -10.24383 -10.24312 -10.24141 -10.24035
 Alpha  occ. eigenvalues --  -10.23896 -10.23630 -10.23589 -10.23271 -10.23086
 Alpha  occ. eigenvalues --  -10.22931 -10.22791 -10.21967  -1.16338  -1.14146
 Alpha  occ. eigenvalues --   -1.12421  -1.10761  -1.10445  -1.08806  -1.08410
 Alpha  occ. eigenvalues --   -1.07920  -1.07478  -1.06944  -1.05953  -1.05360
 Alpha  occ. eigenvalues --   -1.04581  -1.03985  -1.00686  -0.98313  -0.97325
 Alpha  occ. eigenvalues --   -0.97009  -0.96890  -0.95641  -0.93937  -0.93208
 Alpha  occ. eigenvalues --   -0.90535  -0.88604  -0.87891  -0.86655  -0.84698
 Alpha  occ. eigenvalues --   -0.83414  -0.82213  -0.81735  -0.80609  -0.80488
 Alpha  occ. eigenvalues --   -0.79924  -0.78714  -0.78361  -0.77971  -0.76648
 Alpha  occ. eigenvalues --   -0.75906  -0.73918  -0.73411  -0.72357  -0.71142
 Alpha  occ. eigenvalues --   -0.70630  -0.70017  -0.69280  -0.69132  -0.68226
 Alpha  occ. eigenvalues --   -0.67401  -0.67201  -0.66806  -0.66524  -0.65872
 Alpha  occ. eigenvalues --   -0.64941  -0.64803  -0.64734  -0.63938  -0.63702
 Alpha  occ. eigenvalues --   -0.63338  -0.63029  -0.62519  -0.61608  -0.61277
 Alpha  occ. eigenvalues --   -0.60446  -0.60044  -0.59476  -0.58967  -0.58238
 Alpha  occ. eigenvalues --   -0.57872  -0.57305  -0.57009  -0.56424  -0.55590
 Alpha  occ. eigenvalues --   -0.55202  -0.54804  -0.54701  -0.54085  -0.53822
 Alpha  occ. eigenvalues --   -0.53483  -0.52754  -0.52559  -0.52309  -0.51546
 Alpha  occ. eigenvalues --   -0.51489  -0.51460  -0.51032  -0.50716  -0.50292
 Alpha  occ. eigenvalues --   -0.50029  -0.49743  -0.49640  -0.48831  -0.48723
 Alpha  occ. eigenvalues --   -0.48428  -0.48137  -0.48014  -0.47619  -0.47336
 Alpha  occ. eigenvalues --   -0.47317  -0.47121  -0.46879  -0.46509  -0.46323
 Alpha  occ. eigenvalues --   -0.46002  -0.45733  -0.45528  -0.45213  -0.45017
 Alpha  occ. eigenvalues --   -0.44857  -0.44787  -0.44450  -0.44120  -0.44014
 Alpha  occ. eigenvalues --   -0.43691  -0.43410  -0.43147  -0.43131  -0.42987
 Alpha  occ. eigenvalues --   -0.42938  -0.42756  -0.42514  -0.42384  -0.42150
 Alpha  occ. eigenvalues --   -0.42013  -0.41748  -0.41588  -0.41406  -0.41017
 Alpha  occ. eigenvalues --   -0.40658  -0.40554  -0.40115  -0.40002  -0.39657
 Alpha  occ. eigenvalues --   -0.39152  -0.38973  -0.38940  -0.38739  -0.38615
 Alpha  occ. eigenvalues --   -0.38434  -0.38333  -0.38167  -0.37821  -0.37604
 Alpha  occ. eigenvalues --   -0.37246  -0.35764  -0.33542  -0.33070  -0.31996
 Alpha  occ. eigenvalues --   -0.31842  -0.31217  -0.30795  -0.30496  -0.30344
 Alpha  occ. eigenvalues --   -0.30275  -0.29612  -0.29471  -0.28767  -0.28433
 Alpha  occ. eigenvalues --   -0.27436  -0.26699  -0.26244  -0.26144  -0.24286
 Alpha virt. eigenvalues --   -0.12019  -0.07897  -0.07502  -0.05751  -0.05366
 Alpha virt. eigenvalues --   -0.05069  -0.04409  -0.03911  -0.03679  -0.03498
 Alpha virt. eigenvalues --   -0.02673  -0.02429  -0.01881  -0.01729  -0.00719

 Mulliken charges:
               1
     1  N   -0.749950
     2  H    0.406688
     3  H    0.422114
     4  H    0.413885
     5  C   -0.132812
     6  H    0.238263
     7  C    0.619301
     8  C    0.124796
     9  H    0.159130
    10  O   -0.562775
    11  C   -0.495400
    12  H    0.225058
    13  H    0.187787
    14  H    0.151626
    15  O   -0.658530
    16  H    0.424419
    17  N   -0.595436
    18  H    0.428464
    19  C   -0.122018
    20  H    0.194048
    21  C    0.632712
    22  C   -0.060945
    23  H    0.153628
    24  O   -0.520570
    25  C   -0.254841
    26  H    0.131724
    27  H    0.141094
    28  C   -0.523123
    29  H    0.137594
    30  H    0.201641
    31  H    0.166164
    32  C   -0.455276
    33  H    0.149916
    34  H    0.155703
    35  H    0.149926
    36  N   -0.596483
    37  H    0.343173
    38  C   -0.029417
    39  H    0.164155
    40  C    0.630610
    41  C   -0.485246
    42  H    0.174590
    43  H    0.175934
    44  H    0.165214
    45  O   -0.553290
    46  N   -0.576153
    47  H    0.350194
    48  C   -0.083184
    49  H    0.180221
    50  C    0.623561
    51  C   -0.288477
    52  H    0.216609
    53  H    0.158358
    54  O   -0.526154
    55  C   -0.355887
    56  H    0.172075
    57  H    0.171069
    58  C    0.582885
    59  N   -0.749443
    60  H    0.436363
    61  H    0.318926
    62  O   -0.598939
    63  N   -0.590524
    64  H    0.343128
    65  C   -0.071726
    66  H    0.209556
    67  C    0.603149
    68  C   -0.361024
    69  H    0.142481
    70  H    0.179978
    71  O   -0.524893
    72  C    0.136692
    73  C   -0.216164
    74  H    0.131811
    75  C   -0.186677
    76  H    0.148323
    77  C   -0.151610
    78  H    0.148421
    79  C   -0.189772
    80  H    0.132308
    81  O   -0.636066
    82  H    0.413061
    83  C    0.353449
    84  N   -0.613568
    85  H    0.351747
    86  C   -0.059223
    87  H    0.189571
    88  C    0.614644
    89  C   -0.454880
    90  H    0.173285
    91  H    0.152753
    92  H    0.152857
    93  O   -0.561822
    94  N   -0.650277
    95  H    0.391400
    96  C   -0.017727
    97  H    0.143304
    98  C    0.580768
    99  C   -0.266869
   100  H    0.136665
   101  H    0.154255
   102  O   -0.580703
   103  C   -0.291637
   104  H    0.122250
   105  H    0.213711
   106  C   -0.187654
   107  H    0.195253
   108  H    0.176810
   109  N   -0.580802
   110  H    0.367823
   111  N   -0.755133
   112  H    0.382673
   113  H    0.408103
   114  N   -0.764120
   115  H    0.382321
   116  H    0.382031
   117  C    0.821691
   118  O   -0.628664
 Sum of Mulliken charges =   1.00000

 Dipole moment (field-independent basis, Debye):
    X=              2.0265    Y=              7.7839    Z=             18.5024  Tot=             20.1751
 Quadrupole moment (field-independent basis, Debye-Ang):
   XX=           -184.1707   YY=           -193.6058   ZZ=            -74.6734
   XY=            108.8368   XZ=             96.6872   YZ=            141.9413

 Normal termination of Gaussian 16 at Sat Jul  2 15:33:30 2022.
