 Gaussian 16, Revision C.01,
 Gaussian 16:  ES64L-G16RevC.01  3-Jul-2019

 -------------------------------------------------------------------
 # B3LYP/6-31G* guess=read geom=check nosymm integral(ultrafinegrid)
 -------------------------------------------------------------------

 ------------------------------------------------------
 Candidate Structure: Conf:156 Charge calc in gas phase
 ------------------------------------------------------
 Structure from the checkpoint file:  "conf-156.chk"
 Charge =  1 Multiplicity = 1

                          Input orientation:
 ---------------------------------------------------------------------
 Center     Atomic      Atomic             Coordinates (Angstroms)
 Number     Number       Type             X           Y           Z
 ---------------------------------------------------------------------
      1          7           0       -5.205447    1.141546   -6.469366
      2          1           0       -5.620927    1.312453   -5.524907
      3          1           0       -5.863360    1.365020   -7.218026
      4          1           0       -4.321032    1.704357   -6.538294
      5          6           0       -4.736307   -0.284653   -6.434153
      6          1           0       -5.263607   -0.862215   -7.195904
      7          6           0       -5.083265   -0.780974   -5.014355
      8          6           0       -3.172935   -0.257345   -6.713906
      9          1           0       -2.711569   -1.041532   -6.102908
     10          8           0       -5.408276    0.064893   -4.159975
     11          6           0       -2.860697   -0.486200   -8.187102
     12          1           0       -3.218133   -1.467107   -8.517684
     13          1           0       -3.321317    0.285180   -8.815521
     14          1           0       -1.779672   -0.440173   -8.339248
     15          8           0       -2.677698    1.019143   -6.344112
     16          1           0       -2.514722    1.044256   -5.367215
     17          7           0       -4.985153   -2.090995   -4.815178
     18          1           0       -4.580756   -2.691824   -5.533221
     19          6           0       -4.982450   -2.747369   -3.496011
     20          1           0       -5.067950   -1.962574   -2.739818
     21          6           0       -3.600999   -3.441632   -3.459765
     22          6           0       -6.155749   -3.752038   -3.354232
     23          1           0       -6.044394   -4.479519   -4.171604
     24          8           0       -3.217333   -4.033434   -4.474109
     25          6           0       -7.513584   -3.037160   -3.512211
     26          1           0       -7.488366   -2.417823   -4.418026
     27          1           0       -7.653328   -2.344231   -2.670201
     28          6           0       -6.050046   -4.507012   -2.019572
     29          1           0       -6.123157   -3.818365   -1.167785
     30          1           0       -5.108108   -5.056203   -1.931598
     31          1           0       -6.859624   -5.235168   -1.924893
     32          6           0       -8.715507   -3.984814   -3.606066
     33          1           0       -9.635218   -3.419924   -3.791371
     34          1           0       -8.865383   -4.555884   -2.684611
     35          1           0       -8.593564   -4.701025   -4.427656
     36          7           0       -2.906108   -3.301365   -2.323474
     37          1           0       -3.269597   -2.760711   -1.539469
     38          6           0       -1.544108   -3.769308   -2.086672
     39          1           0       -1.516976   -4.865018   -2.141582
     40          6           0       -1.220496   -3.305496   -0.649149
     41          6           0       -0.540183   -3.175495   -3.093773
     42          1           0        0.470820   -3.548172   -2.908357
     43          1           0       -0.509161   -2.085836   -3.002368
     44          1           0       -0.834435   -3.458491   -4.106320
     45          8           0       -1.990380   -2.555899   -0.046792
     46          7           0       -0.054798   -3.755339   -0.122307
     47          1           0        0.598121   -4.183482   -0.767691
     48          6           0        0.574136   -3.014862    0.971667
     49          1           0       -0.205806   -2.807376    1.709580
     50          6           0        1.118393   -1.687275    0.389580
     51          6           0        1.693750   -3.865368    1.599142
     52          1           0        2.507131   -3.984507    0.871534
     53          1           0        1.304556   -4.867656    1.801220
     54          8           0        1.494294   -1.622888   -0.777111
     55          6           0        2.248047   -3.283260    2.902115
     56          1           0        2.689302   -2.291718    2.756976
     57          1           0        1.431817   -3.153133    3.628801
     58          6           0        3.278727   -4.218262    3.539621
     59          7           0        4.120564   -3.607002    4.421815
     60          1           0        4.067551   -2.619780    4.625212
     61          1           0        4.791134   -4.173786    4.921659
     62          8           0        3.330754   -5.414070    3.289694
     63          7           0        1.140869   -0.632980    1.248564
     64          1           0        1.030244   -0.801606    2.243521
     65          6           0        1.838475    0.601547    0.939783
     66          1           0        2.399262    0.435395    0.014910
     67          6           0        2.811403    0.886337    2.107463
     68          6           0        0.852360    1.787873    0.733075
     69          1           0        1.438042    2.699769    0.567771
     70          1           0        0.298978    1.935747    1.668465
     71          8           0        2.713018    0.271152    3.175550
     72          6           0       -0.114283    1.586261   -0.414212
     73          6           0        0.217157    1.992320   -1.714564
     74          1           0        1.177472    2.467088   -1.900786
     75          6           0       -1.361061    0.982209   -0.213449
     76          1           0       -1.643691    0.644498    0.778740
     77          6           0       -0.662440    1.814731   -2.780665
     78          1           0       -0.400803    2.147946   -3.780765
     79          6           0       -2.254146    0.793030   -1.268570
     80          1           0       -3.216160    0.318536   -1.088769
     81          8           0       -2.764078    1.062885   -3.627442
     82          1           0       -3.652282    0.791905   -3.331141
     83          6           0       -1.899741    1.216743   -2.547344
     84          7           0        3.729606    1.837986    1.871314
     85          1           0        3.751417    2.376167    1.006779
     86          6           0        4.679709    2.324407    2.860928
     87          1           0        4.153205    2.470868    3.811939
     88          6           0        5.170044    3.689520    2.324168
     89          6           0        5.841762    1.339832    3.078467
     90          1           0        6.533517    1.709673    3.841871
     91          1           0        5.444247    0.376416    3.408415
     92          1           0        6.400326    1.193580    2.148247
     93          8           0        4.865145    4.058327    1.182828
     94          7           0        5.937568    4.395227    3.166239
     95          1           0        6.199872    4.057750    4.091633
     96          6           0        6.630943    5.633077    2.825429
     97          1           0        7.011966    5.565325    1.801944
     98          6           0        7.799425    5.762315    3.837896
     99          6           0        5.654635    6.836033    2.943354
    100          1           0        5.436600    6.996628    4.007878
    101          1           0        4.715811    6.518789    2.476147
    102          8           0        8.754039    6.531588    3.465771
    103          6           0        6.052638    8.161674    2.267793
    104          1           0        5.165160    8.812743    2.268044
    105          1           0        6.281543    7.977016    1.209927
    106          6           0        7.241108    8.952479    2.835851
    107          1           0        7.363872    9.878971    2.260026
    108          1           0        8.147635    8.357786    2.753004
    109          7           0        7.055763    9.321947    4.250540
    110          1           0        6.173910    9.756429    4.490852
    111          7           0        8.991601    8.396513    5.184333
    112          1           0        9.617874    8.382307    5.978361
    113          1           0        9.021409    7.536555    4.493240
    114          7           0        7.616208    9.822863    6.427538
    115          1           0        8.204264    9.680985    7.235686
    116          1           0        7.152333   10.718849    6.377668
    117          6           0        7.918465    9.160821    5.270269
    118          8           0        7.676656    5.184796    4.929007
 ---------------------------------------------------------------------

 SCF Done:  E(RB3LYP) =  -2837.65338794     A.U. after    1 cycles

 Alpha  occ. eigenvalues --  -19.28124 -19.27864 -19.26917 -19.20718 -19.20023
 Alpha  occ. eigenvalues --  -19.17510 -19.17452 -19.15988 -19.15131 -19.12860
 Alpha  occ. eigenvalues --  -19.12252 -14.58309 -14.49784 -14.45388 -14.45039
 Alpha  occ. eigenvalues --  -14.44705 -14.43149 -14.41782 -14.41729 -14.41116
 Alpha  occ. eigenvalues --  -14.39700 -14.39191 -10.43755 -10.40636 -10.39828
 Alpha  occ. eigenvalues --  -10.38602 -10.38022 -10.36654 -10.34530 -10.34529
 Alpha  occ. eigenvalues --  -10.33767 -10.33068 -10.32966 -10.32748 -10.31678
 Alpha  occ. eigenvalues --  -10.30386 -10.29767 -10.29677 -10.29387 -10.28575
 Alpha  occ. eigenvalues --  -10.28356 -10.27912 -10.26584 -10.26362 -10.26133
 Alpha  occ. eigenvalues --  -10.26056 -10.25980 -10.25912 -10.25865 -10.25597
 Alpha  occ. eigenvalues --  -10.25509 -10.25164 -10.24873 -10.24867 -10.24504
 Alpha  occ. eigenvalues --  -10.24445 -10.23129 -10.22811  -1.19138  -1.16313
 Alpha  occ. eigenvalues --   -1.14754  -1.12894  -1.12001  -1.11703  -1.09683
 Alpha  occ. eigenvalues --   -1.09041  -1.08879  -1.07611  -1.06994  -1.06105
 Alpha  occ. eigenvalues --   -1.05970  -1.01263  -0.99827  -0.98738  -0.98397
 Alpha  occ. eigenvalues --   -0.97980  -0.97681  -0.96162  -0.95549  -0.94338
 Alpha  occ. eigenvalues --   -0.92514  -0.92307  -0.89992  -0.86823  -0.85581
 Alpha  occ. eigenvalues --   -0.85179  -0.84541  -0.84168  -0.82380  -0.81942
 Alpha  occ. eigenvalues --   -0.81893  -0.79774  -0.79054  -0.78253  -0.77360
 Alpha  occ. eigenvalues --   -0.74514  -0.74035  -0.73492  -0.73055  -0.72989
 Alpha  occ. eigenvalues --   -0.72430  -0.71746  -0.70932  -0.70573  -0.69995
 Alpha  occ. eigenvalues --   -0.69531  -0.68320  -0.67594  -0.66780  -0.66577
 Alpha  occ. eigenvalues --   -0.66241  -0.65545  -0.65272  -0.64882  -0.64286
 Alpha  occ. eigenvalues --   -0.63842  -0.63392  -0.62508  -0.62417  -0.62262
 Alpha  occ. eigenvalues --   -0.61918  -0.61641  -0.61186  -0.59847  -0.58811
 Alpha  occ. eigenvalues --   -0.58606  -0.58060  -0.57897  -0.57735  -0.56892
 Alpha  occ. eigenvalues --   -0.56584  -0.56202  -0.55647  -0.55543  -0.55096
 Alpha  occ. eigenvalues --   -0.54683  -0.54385  -0.53471  -0.53242  -0.52932
 Alpha  occ. eigenvalues --   -0.52795  -0.52561  -0.52339  -0.52147  -0.52094
 Alpha  occ. eigenvalues --   -0.51728  -0.51659  -0.51226  -0.50984  -0.50499
 Alpha  occ. eigenvalues --   -0.50355  -0.49974  -0.49678  -0.49478  -0.49414
 Alpha  occ. eigenvalues --   -0.48974  -0.48945  -0.48802  -0.48756  -0.48346
 Alpha  occ. eigenvalues --   -0.48197  -0.48044  -0.47591  -0.47137  -0.46949
 Alpha  occ. eigenvalues --   -0.46719  -0.46703  -0.46211  -0.46144  -0.46012
 Alpha  occ. eigenvalues --   -0.45633  -0.45271  -0.45198  -0.44668  -0.44425
 Alpha  occ. eigenvalues --   -0.44178  -0.44077  -0.44000  -0.43581  -0.43139
 Alpha  occ. eigenvalues --   -0.42849  -0.42436  -0.42363  -0.42161  -0.42069
 Alpha  occ. eigenvalues --   -0.41986  -0.41674  -0.41523  -0.41286  -0.41052
 Alpha  occ. eigenvalues --   -0.40949  -0.40825  -0.40747  -0.40693  -0.40494
 Alpha  occ. eigenvalues --   -0.40029  -0.39647  -0.39357  -0.39015  -0.38642
 Alpha  occ. eigenvalues --   -0.37513  -0.35849  -0.35031  -0.34431  -0.33849
 Alpha  occ. eigenvalues --   -0.33419  -0.33080  -0.32312  -0.31938  -0.31721
 Alpha  occ. eigenvalues --   -0.31136  -0.30777  -0.30657  -0.30121  -0.29825
 Alpha  occ. eigenvalues --   -0.29399  -0.28979  -0.28216  -0.27209  -0.26403
 Alpha virt. eigenvalues --   -0.12881  -0.09699  -0.07328  -0.07062  -0.06388
 Alpha virt. eigenvalues --   -0.05662  -0.05321  -0.04919  -0.03776  -0.03564
 Alpha virt. eigenvalues --   -0.03295  -0.02462  -0.01747  -0.01581  -0.01287

 Mulliken charges:
               1
     1  N   -0.757152
     2  H    0.423543
     3  H    0.410239
     4  H    0.425180
     5  C   -0.129347
     6  H    0.215600
     7  C    0.627030
     8  C    0.088723
     9  H    0.193811
    10  O   -0.559768
    11  C   -0.449594
    12  H    0.169615
    13  H    0.156070
    14  H    0.206027
    15  O   -0.653841
    16  H    0.468812
    17  N   -0.573797
    18  H    0.365047
    19  C   -0.081250
    20  H    0.173370
    21  C    0.636682
    22  C   -0.074975
    23  H    0.147022
    24  O   -0.554905
    25  C   -0.253763
    26  H    0.121398
    27  H    0.143859
    28  C   -0.474021
    29  H    0.151390
    30  H    0.168781
    31  H    0.174902
    32  C   -0.452581
    33  H    0.157203
    34  H    0.162773
    35  H    0.150966
    36  N   -0.625563
    37  H    0.364596
    38  C   -0.038889
    39  H    0.187433
    40  C    0.633189
    41  C   -0.464001
    42  H    0.168561
    43  H    0.177087
    44  H    0.183876
    45  O   -0.542240
    46  N   -0.590343
    47  H    0.343459
    48  C   -0.072964
    49  H    0.177849
    50  C    0.624510
    51  C   -0.278258
    52  H    0.161469
    53  H    0.189590
    54  O   -0.537529
    55  C   -0.405430
    56  H    0.179908
    57  H    0.168772
    58  C    0.608401
    59  N   -0.754599
    60  H    0.348384
    61  H    0.346580
    62  O   -0.505649
    63  N   -0.595657
    64  H    0.349436
    65  C   -0.070939
    66  H    0.193911
    67  C    0.630076
    68  C   -0.368387
    69  H    0.164828
    70  H    0.159543
    71  O   -0.557928
    72  C    0.190228
    73  C   -0.180189
    74  H    0.143485
    75  C   -0.171991
    76  H    0.148115
    77  C   -0.161700
    78  H    0.139985
    79  C   -0.187137
    80  H    0.131444
    81  O   -0.740794
    82  H    0.439840
    83  C    0.351514
    84  N   -0.613606
    85  H    0.358179
    86  C   -0.039052
    87  H    0.176097
    88  C    0.619688
    89  C   -0.449347
    90  H    0.166666
    91  H    0.169436
    92  H    0.162801
    93  O   -0.562776
    94  N   -0.617926
    95  H    0.354483
    96  C   -0.025124
    97  H    0.163127
    98  C    0.584737
    99  C   -0.264208
   100  H    0.134472
   101  H    0.163048
   102  O   -0.633272
   103  C   -0.286437
   104  H    0.129104
   105  H    0.164293
   106  C   -0.158951
   107  H    0.155552
   108  H    0.234235
   109  N   -0.601056
   110  H    0.339671
   111  N   -0.762786
   112  H    0.340750
   113  H    0.448913
   114  N   -0.764088
   115  H    0.360517
   116  H    0.355632
   117  C    0.774467
   118  O   -0.556171
 Sum of Mulliken charges =   1.00000

 Dipole moment (field-independent basis, Debye):
    X=            -12.4456    Y=             16.0606    Z=            -12.7829  Tot=             24.0049
 Quadrupole moment (field-independent basis, Debye-Ang):
   XX=           -187.9832   YY=           -154.0362   ZZ=           -121.4042
   XY=            117.5167   XZ=            186.8821   YZ=            101.6494

 Normal termination of Gaussian 16 at Sat Jul  2 15:32:59 2022.
