 Gaussian 16, Revision C.01,
 Gaussian 16:  ES64L-G16RevC.01  3-Jul-2019

 -------------------------------------------------------------------
 # B3LYP/6-31G* guess=read geom=check nosymm integral(ultrafinegrid)
 -------------------------------------------------------------------

 ------------------------------------------------------
 Candidate Structure: Conf:662 Charge calc in gas phase
 ------------------------------------------------------
 Structure from the checkpoint file:  "conf-662.chk"
 Charge =  1 Multiplicity = 1

                          Input orientation:
 ---------------------------------------------------------------------
 Center     Atomic      Atomic             Coordinates (Angstroms)
 Number     Number       Type             X           Y           Z
 ---------------------------------------------------------------------
      1          7           0       -7.780670   -6.441079    0.829100
      2          1           0       -7.530539   -6.535605    1.816857
      3          1           0       -8.143591   -7.339102    0.469385
      4          1           0       -8.456972   -5.643112    0.726372
      5          6           0       -6.619732   -6.024857   -0.037917
      6          1           0       -5.693385   -6.352971    0.438576
      7          6           0       -6.763011   -4.483037   -0.125060
      8          6           0       -6.797164   -6.718425   -1.412931
      9          1           0       -7.606985   -6.202781   -1.951494
     10          8           0       -7.886211   -4.015120    0.105876
     11          6           0       -5.522121   -6.715085   -2.247991
     12          1           0       -5.194502   -5.700970   -2.499750
     13          1           0       -4.715385   -7.234486   -1.719845
     14          1           0       -5.702424   -7.240405   -3.192271
     15          8           0       -7.217549   -8.046516   -1.069229
     16          1           0       -7.411633   -8.542126   -1.880841
     17          7           0       -5.666135   -3.809134   -0.453026
     18          1           0       -4.840936   -4.312429   -0.780627
     19          6           0       -5.632049   -2.402326   -0.867433
     20          1           0       -6.648509   -2.116837   -1.158529
     21          6           0       -4.707579   -2.395110   -2.111841
     22          6           0       -5.139760   -1.443367    0.256569
     23          1           0       -5.140642   -0.439347   -0.190426
     24          8           0       -4.096007   -3.421697   -2.429557
     25          6           0       -3.691745   -1.737704    0.702494
     26          1           0       -3.056280   -1.855275   -0.184342
     27          1           0       -3.662802   -2.702023    1.231229
     28          6           0       -6.132712   -1.429174    1.427778
     29          1           0       -6.133164   -2.388498    1.959547
     30          1           0       -7.156079   -1.233081    1.089940
     31          1           0       -5.861324   -0.653325    2.148606
     32          6           0       -3.087002   -0.638744    1.585991
     33          1           0       -2.022804   -0.819915    1.769236
     34          1           0       -3.589588   -0.570550    2.557438
     35          1           0       -3.171102    0.335957    1.090573
     36          7           0       -4.640040   -1.226948   -2.781834
     37          1           0       -4.966690   -0.395905   -2.293948
     38          6           0       -3.520209   -0.905568   -3.674724
     39          1           0       -3.003170   -1.842594   -3.892148
     40          6           0       -2.613851    0.052380   -2.863967
     41          6           0       -4.013100   -0.248253   -4.968622
     42          1           0       -3.166254   -0.013997   -5.621480
     43          1           0       -4.540075    0.686375   -4.748021
     44          1           0       -4.693443   -0.917744   -5.503777
     45          8           0       -3.128313    0.812487   -2.036955
     46          7           0       -1.301287   -0.018288   -3.129801
     47          1           0       -0.917183   -0.704190   -3.775697
     48          6           0       -0.272178    0.691082   -2.373462
     49          1           0       -0.570002    1.735596   -2.240461
     50          6           0        1.010162    0.560707   -3.216374
     51          6           0       -0.071775    0.006992   -0.996308
     52          1           0        0.325945   -0.997857   -1.186634
     53          1           0       -1.054063   -0.111119   -0.532498
     54          8           0        1.168104   -0.437917   -3.926129
     55          6           0        0.854527    0.773938   -0.039866
     56          1           0        1.734318    1.135568   -0.571210
     57          1           0        0.339391    1.652408    0.366346
     58          6           0        1.293389   -0.116121    1.115315
     59          7           0        2.647694   -0.241814    1.238442
     60          1           0        3.262140    0.020735    0.473893
     61          1           0        2.987809   -0.912714    1.914378
     62          8           0        0.504276   -0.670638    1.878323
     63          7           0        1.904909    1.556693   -3.076036
     64          1           0        1.721046    2.370059   -2.467260
     65          6           0        3.255822    1.464636   -3.598577
     66          1           0        3.300272    0.533048   -4.172833
     67          6           0        4.210675    1.292588   -2.384934
     68          6           0        3.582477    2.666038   -4.522618
     69          1           0        4.582427    2.513092   -4.951930
     70          1           0        3.610825    3.574327   -3.908875
     71          8           0        3.950392    0.492694   -1.487612
     72          6           0        2.584108    2.868458   -5.641053
     73          6           0        2.710559    2.199481   -6.865883
     74          1           0        3.549261    1.524791   -7.025459
     75          6           0        1.495708    3.732230   -5.469769
     76          1           0        1.374834    4.256736   -4.524832
     77          6           0        1.787138    2.380502   -7.891611
     78          1           0        1.889873    1.865361   -8.841512
     79          6           0        0.562711    3.924671   -6.488030
     80          1           0       -0.275508    4.603358   -6.337501
     81          8           0       -0.173286    3.397540   -8.742173
     82          1           0       -0.850587    4.042755   -8.486440
     83          6           0        0.706907    3.248458   -7.703317
     84          7           0        5.333145    2.067534   -2.339357
     85          1           0        5.477201    2.767534   -3.053108
     86          6           0        6.157598    2.132982   -1.135217
     87          1           0        6.339897    1.108676   -0.800177
     88          6           0        5.443675    2.812218    0.065206
     89          6           0        7.492720    2.820481   -1.433101
     90          1           0        8.085740    2.865415   -0.516018
     91          1           0        8.057997    2.267894   -2.190658
     92          1           0        7.340116    3.846938   -1.790269
     93          8           0        5.872547    2.608371    1.205356
     94          7           0        4.411827    3.623112   -0.249910
     95          1           0        4.058565    3.600977   -1.209378
     96          6           0        3.275766    3.942559    0.614206
     97          1           0        3.093385    3.091778    1.285333
     98          6           0        2.000745    4.065133   -0.312276
     99          6           0        3.457149    5.204875    1.465571
    100          1           0        2.458587    5.502385    1.804229
    101          1           0        3.849626    6.009166    0.827600
    102          8           0        0.946380    4.366619    0.257038
    103          6           0        4.389499    4.970610    2.659501
    104          1           0        5.322517    4.513199    2.308137
    105          1           0        3.927431    4.245085    3.342319
    106          6           0        4.692146    6.251383    3.431804
    107          1           0        3.782061    6.663000    3.885084
    108          1           0        5.129793    7.008749    2.768203
    109          7           0        5.655152    5.945305    4.515485
    110          1           0        6.146195    5.062652    4.425599
    111          7           0        5.514412    7.996101    5.588192
    112          1           0        5.482749    8.497700    6.464177
    113          1           0        4.990752    8.382378    4.815959
    114          7           0        6.706062    6.269274    6.564395
    115          1           0        7.206550    6.912264    7.161524
    116          1           0        6.997795    5.302454    6.592866
    117          6           0        5.957746    6.728379    5.539900
    118          8           0        2.210719    3.806989   -1.546691
 ---------------------------------------------------------------------

 SCF Done:  E(RB3LYP) =  -2837.61161082     A.U. after    2 cycles

 Alpha  occ. eigenvalues --  -19.28781 -19.24532 -19.20207 -19.19860 -19.15615
 Alpha  occ. eigenvalues --  -19.15326 -19.13980 -19.13708 -19.12087 -19.10169
 Alpha  occ. eigenvalues --  -19.08670 -14.57741 -14.51570 -14.51481 -14.51086
 Alpha  occ. eigenvalues --  -14.47241 -14.42638 -14.40199 -14.39561 -14.37050
 Alpha  occ. eigenvalues --  -14.36709 -14.36094 -10.47673 -10.41569 -10.38840
 Alpha  occ. eigenvalues --  -10.38144 -10.36651 -10.33212 -10.32762 -10.32504
 Alpha  occ. eigenvalues --  -10.31738 -10.30996 -10.30748 -10.29636 -10.28756
 Alpha  occ. eigenvalues --  -10.28713 -10.27590 -10.27124 -10.26861 -10.26175
 Alpha  occ. eigenvalues --  -10.26104 -10.25827 -10.25105 -10.23765 -10.23601
 Alpha  occ. eigenvalues --  -10.23469 -10.23231 -10.22849 -10.22496 -10.22385
 Alpha  occ. eigenvalues --  -10.21369 -10.21299 -10.21160 -10.21069 -10.21047
 Alpha  occ. eigenvalues --  -10.20690 -10.20189 -10.19551  -1.17505  -1.16171
 Alpha  occ. eigenvalues --   -1.15813  -1.11755  -1.11269  -1.08160  -1.07524
 Alpha  occ. eigenvalues --   -1.07344  -1.05440  -1.05266  -1.05124  -1.04493
 Alpha  occ. eigenvalues --   -1.03863  -1.03569  -1.02588  -0.99303  -0.96627
 Alpha  occ. eigenvalues --   -0.96006  -0.94806  -0.94300  -0.92766  -0.91636
 Alpha  occ. eigenvalues --   -0.90781  -0.87879  -0.87645  -0.87479  -0.83494
 Alpha  occ. eigenvalues --   -0.83320  -0.82317  -0.81079  -0.80509  -0.79730
 Alpha  occ. eigenvalues --   -0.79478  -0.77604  -0.76881  -0.76865  -0.75711
 Alpha  occ. eigenvalues --   -0.75434  -0.74173  -0.73892  -0.72368  -0.72260
 Alpha  occ. eigenvalues --   -0.70885  -0.69966  -0.69722  -0.69552  -0.68872
 Alpha  occ. eigenvalues --   -0.68313  -0.67902  -0.66246  -0.65299  -0.64968
 Alpha  occ. eigenvalues --   -0.64734  -0.64616  -0.64327  -0.63636  -0.63326
 Alpha  occ. eigenvalues --   -0.63004  -0.61789  -0.61737  -0.61157  -0.60967
 Alpha  occ. eigenvalues --   -0.60313  -0.59988  -0.58945  -0.58785  -0.58350
 Alpha  occ. eigenvalues --   -0.57206  -0.57138  -0.56848  -0.56523  -0.56212
 Alpha  occ. eigenvalues --   -0.55568  -0.54757  -0.54383  -0.54128  -0.53817
 Alpha  occ. eigenvalues --   -0.53100  -0.52942  -0.51744  -0.51551  -0.51263
 Alpha  occ. eigenvalues --   -0.51151  -0.50394  -0.50258  -0.50131  -0.50036
 Alpha  occ. eigenvalues --   -0.49630  -0.49496  -0.49356  -0.49149  -0.48795
 Alpha  occ. eigenvalues --   -0.48255  -0.47987  -0.47721  -0.47441  -0.46687
 Alpha  occ. eigenvalues --   -0.46392  -0.46173  -0.46054  -0.45926  -0.45752
 Alpha  occ. eigenvalues --   -0.45552  -0.45305  -0.45224  -0.44668  -0.44334
 Alpha  occ. eigenvalues --   -0.44231  -0.43802  -0.43565  -0.43499  -0.43152
 Alpha  occ. eigenvalues --   -0.42872  -0.42734  -0.42676  -0.42557  -0.42490
 Alpha  occ. eigenvalues --   -0.41921  -0.41844  -0.41584  -0.41302  -0.41039
 Alpha  occ. eigenvalues --   -0.40858  -0.40443  -0.40314  -0.40117  -0.39864
 Alpha  occ. eigenvalues --   -0.39672  -0.39618  -0.39457  -0.39130  -0.38755
 Alpha  occ. eigenvalues --   -0.38673  -0.38344  -0.38032  -0.37817  -0.37561
 Alpha  occ. eigenvalues --   -0.37353  -0.37011  -0.36602  -0.36102  -0.35994
 Alpha  occ. eigenvalues --   -0.35851  -0.35352  -0.34816  -0.33739  -0.33028
 Alpha  occ. eigenvalues --   -0.31368  -0.29880  -0.29475  -0.29031  -0.28202
 Alpha  occ. eigenvalues --   -0.27727  -0.27618  -0.27572  -0.26900  -0.26768
 Alpha  occ. eigenvalues --   -0.25644  -0.25130  -0.24879  -0.23919  -0.22679
 Alpha virt. eigenvalues --   -0.11584  -0.10643  -0.08400  -0.07655  -0.05718
 Alpha virt. eigenvalues --   -0.04489  -0.03662  -0.02722  -0.02635  -0.02535
 Alpha virt. eigenvalues --   -0.02115  -0.02098  -0.01903  -0.01082  -0.00717

 Mulliken charges:
               1
     1  N   -0.748680
     2  H    0.413969
     3  H    0.428117
     4  H    0.423419
     5  C   -0.125919
     6  H    0.214276
     7  C    0.641157
     8  C    0.127172
     9  H    0.170672
    10  O   -0.538074
    11  C   -0.498598
    12  H    0.212835
    13  H    0.178698
    14  H    0.177531
    15  O   -0.651091
    16  H    0.432016
    17  N   -0.580303
    18  H    0.371351
    19  C   -0.095475
    20  H    0.191121
    21  C    0.623304
    22  C   -0.084892
    23  H    0.160255
    24  O   -0.548221
    25  C   -0.273177
    26  H    0.156180
    27  H    0.118588
    28  C   -0.452014
    29  H    0.128250
    30  H    0.153933
    31  H    0.174045
    32  C   -0.483834
    33  H    0.210265
    34  H    0.133712
    35  H    0.168269
    36  N   -0.577641
    37  H    0.355888
    38  C   -0.090355
    39  H    0.184736
    40  C    0.637038
    41  C   -0.444609
    42  H    0.173972
    43  H    0.165817
    44  H    0.162287
    45  O   -0.554682
    46  N   -0.614665
    47  H    0.353992
    48  C   -0.049245
    49  H    0.192418
    50  C    0.622474
    51  C   -0.276909
    52  H    0.149161
    53  H    0.183554
    54  O   -0.558025
    55  C   -0.394716
    56  H    0.172088
    57  H    0.198710
    58  C    0.580215
    59  N   -0.767858
    60  H    0.387186
    61  H    0.321738
    62  O   -0.529914
    63  N   -0.623451
    64  H    0.410473
    65  C   -0.049584
    66  H    0.201236
    67  C    0.622853
    68  C   -0.416214
    69  H    0.138355
    70  H    0.174169
    71  O   -0.533025
    72  C    0.177444
    73  C   -0.179195
    74  H    0.122575
    75  C   -0.193186
    76  H    0.160692
    77  C   -0.159469
    78  H    0.138120
    79  C   -0.199598
    80  H    0.119680
    81  O   -0.645047
    82  H    0.406041
    83  C    0.349025
    84  N   -0.630254
    85  H    0.341297
    86  C   -0.012531
    87  H    0.187680
    88  C    0.599470
    89  C   -0.477155
    90  H    0.175964
    91  H    0.164329
    92  H    0.146944
    93  O   -0.566246
    94  N   -0.613431
    95  H    0.356754
    96  C   -0.068675
    97  H    0.161757
    98  C    0.600595
    99  C   -0.262448
   100  H    0.174027
   101  H    0.130625
   102  O   -0.562349
   103  C   -0.326987
   104  H    0.194840
   105  H    0.159596
   106  C   -0.149283
   107  H    0.179049
   108  H    0.181389
   109  N   -0.600175
   110  H    0.375323
   111  N   -0.755690
   112  H    0.382602
   113  H    0.395887
   114  N   -0.761737
   115  H    0.381387
   116  H    0.384418
   117  C    0.825472
   118  O   -0.645850
 Sum of Mulliken charges =   1.00000

 Dipole moment (field-independent basis, Debye):
    X=             -4.7039    Y=             -1.2520    Z=             18.4981  Tot=             19.1278
 Quadrupole moment (field-independent basis, Debye-Ang):
   XX=             -7.4456   YY=            -13.3020   ZZ=           -204.1475
   XY=            320.8149   XZ=            132.7469   YZ=            141.0320

 Normal termination of Gaussian 16 at Sat Jul  2 15:33:18 2022.
