 Gaussian 16, Revision C.01,
 Gaussian 16:  ES64L-G16RevC.01  3-Jul-2019

 -------------------------------------------------------------------
 # B3LYP/6-31G* guess=read geom=check nosymm integral(ultrafinegrid)
 -------------------------------------------------------------------

 ------------------------------------------------------
 Candidate Structure: Conf:876 Charge calc in gas phase
 ------------------------------------------------------
 Structure from the checkpoint file:  "conf-876.chk"
 Charge =  1 Multiplicity = 1

                          Input orientation:
 ---------------------------------------------------------------------
 Center     Atomic      Atomic             Coordinates (Angstroms)
 Number     Number       Type             X           Y           Z
 ---------------------------------------------------------------------
      1          7           0       -7.565944   -6.545163   -5.074808
      2          1           0       -7.873098   -5.674128   -5.598261
      3          1           0       -8.354973   -7.148112   -4.835644
      4          1           0       -6.879129   -7.049593   -5.659759
      5          6           0       -6.821765   -5.969243   -3.898005
      6          1           0       -7.435501   -6.085187   -3.001292
      7          6           0       -6.714684   -4.454949   -4.264181
      8          6           0       -5.475800   -6.714250   -3.743232
      9          1           0       -4.795517   -6.069373   -3.171524
     10          8           0       -7.316757   -4.070034   -5.274967
     11          6           0       -5.608635   -8.064991   -3.041248
     12          1           0       -5.971756   -7.942062   -2.015274
     13          1           0       -6.289599   -8.736737   -3.576773
     14          1           0       -4.631934   -8.557545   -2.985020
     15          8           0       -5.012477   -6.844111   -5.088074
     16          1           0       -4.170418   -7.326308   -5.101803
     17          7           0       -6.020994   -3.695714   -3.423611
     18          1           0       -5.448629   -4.105936   -2.685524
     19          6           0       -5.650696   -2.291943   -3.653674
     20          1           0       -5.806854   -2.072814   -4.714549
     21          6           0       -4.146297   -2.271085   -3.289602
     22          6           0       -6.495967   -1.310760   -2.785551
     23          1           0       -6.295074   -1.569978   -1.735206
     24          8           0       -3.721339   -3.065687   -2.445757
     25          6           0       -8.004059   -1.506053   -3.052442
     26          1           0       -8.250751   -2.570682   -2.961149
     27          1           0       -8.223728   -1.228980   -4.092713
     28          6           0       -6.054728    0.143620   -3.020012
     29          1           0       -6.190996    0.427637   -4.073338
     30          1           0       -5.013656    0.319503   -2.734667
     31          1           0       -6.668130    0.825562   -2.425324
     32          6           0       -8.916650   -0.720749   -2.102368
     33          1           0       -9.966322   -0.971682   -2.288226
     34          1           0       -8.815495    0.361477   -2.227480
     35          1           0       -8.699022   -0.958885   -1.053857
     36          7           0       -3.361338   -1.409064   -3.967209
     37          1           0       -3.808842   -0.686345   -4.516504
     38          6           0       -1.961782   -1.196369   -3.613278
     39          1           0       -1.532630   -2.180099   -3.402314
     40          6           0       -1.848029   -0.309313   -2.350505
     41          6           0       -1.225808   -0.537457   -4.788527
     42          1           0       -0.165943   -0.409056   -4.551209
     43          1           0       -1.643345    0.454089   -4.999140
     44          1           0       -1.306421   -1.153655   -5.689323
     45          8           0       -2.725813    0.498348   -2.052743
     46          7           0       -0.695994   -0.478346   -1.662461
     47          1           0        0.054820   -1.037510   -2.063539
     48          6           0       -0.206825    0.461007   -0.660055
     49          1           0       -0.648523    1.443280   -0.869975
     50          6           0        1.324027    0.532987   -0.871484
     51          6           0       -0.549197    0.054469    0.786935
     52          1           0       -0.059645    0.738707    1.487800
     53          1           0       -0.130617   -0.940569    0.982000
     54          8           0        1.892075   -0.235562   -1.653099
     55          6           0       -2.048701    0.067794    1.103984
     56          1           0       -2.544322    0.881909    0.558844
     57          1           0       -2.534180   -0.855056    0.766433
     58          6           0       -2.299082    0.283279    2.599809
     59          7           0       -3.521243   -0.139290    3.045747
     60          1           0       -4.251464   -0.412765    2.405143
     61          1           0       -3.789394    0.115854    3.986736
     62          8           0       -1.477303    0.798478    3.345047
     63          7           0        1.972645    1.471164   -0.153103
     64          1           0        1.502173    2.013221    0.564633
     65          6           0        3.423182    1.574832   -0.140438
     66          1           0        3.840554    0.562083   -0.149603
     67          6           0        3.800071    2.282111    1.171111
     68          6           0        3.970683    2.333502   -1.393605
     69          1           0        3.829844    3.410517   -1.251375
     70          1           0        3.334570    2.026894   -2.229682
     71          8           0        2.914661    2.829552    1.859312
     72          6           0        5.415898    2.020306   -1.721636
     73          6           0        6.456869    2.917806   -1.429445
     74          1           0        6.231873    3.857977   -0.931938
     75          6           0        5.743338    0.803582   -2.338036
     76          1           0        4.951551    0.096510   -2.577544
     77          6           0        7.779789    2.611995   -1.742868
     78          1           0        8.583543    3.306905   -1.521148
     79          6           0        7.062420    0.487383   -2.656022
     80          1           0        7.295993   -0.459844   -3.139027
     81          8           0        9.397873    1.150450   -2.648665
     82          1           0        9.478143    0.283249   -3.075631
     83          6           0        8.087598    1.394947   -2.361045
     84          7           0        5.096041    2.259614    1.496549
     85          1           0        5.739128    1.901015    0.798436
     86          6           0        5.690694    3.016820    2.595323
     87          1           0        5.079115    2.847738    3.487665
     88          6           0        5.723112    4.543504    2.303101
     89          6           0        7.117997    2.503552    2.848991
     90          1           0        7.592518    3.078794    3.650496
     91          1           0        7.100780    1.445407    3.129714
     92          1           0        7.728881    2.616765    1.945157
     93          8           0        5.540782    4.991230    1.160329
     94          7           0        5.983600    5.278464    3.403215
     95          1           0        6.345268    4.762448    4.241756
     96          6           0        6.840470    6.481420    3.395871
     97          1           0        7.339659    6.548711    2.422838
     98          6           0        7.934097    6.197165    4.526271
     99          6           0        6.157225    7.821895    3.694775
    100          1           0        6.982470    8.532395    3.789953
    101          1           0        5.700965    7.774868    4.694785
    102          8           0        8.768413    7.094282    4.684925
    103          6           0        5.126630    8.309345    2.649216
    104          1           0        5.162604    7.650996    1.772550
    105          1           0        5.387645    9.308932    2.279127
    106          6           0        3.688504    8.421893    3.186903
    107          1           0        2.970195    8.623800    2.385551
    108          1           0        3.620094    9.250574    3.897419
    109          7           0        3.200822    7.241083    3.922063
    110          1           0        3.471929    7.177037    4.894211
    111          7           0        2.756004    6.002395    2.003811
    112          1           0        2.508462    5.075245    1.667733
    113          1           0        3.560973    6.372402    1.505088
    114          7           0        2.327352    5.093743    4.092732
    115          1           0        2.341425    4.160872    3.688164
    116          1           0        2.280518    5.175341    5.098018
    117          6           0        2.800649    6.106763    3.347274
    118          8           0        7.774257    5.089724    5.128419
 ---------------------------------------------------------------------

 SCF Done:  E(RB3LYP) =  -2837.60508508     A.U. after    1 cycles

 Alpha  occ. eigenvalues --  -19.31360 -19.27420 -19.22892 -19.22252 -19.19839
 Alpha  occ. eigenvalues --  -19.19806 -19.19426 -19.17304 -19.15707 -19.07125
 Alpha  occ. eigenvalues --  -19.05780 -14.59820 -14.50070 -14.46811 -14.46342
 Alpha  occ. eigenvalues --  -14.46092 -14.44713 -14.43430 -14.43030 -14.42706
 Alpha  occ. eigenvalues --  -14.41833 -14.36563 -10.44348 -10.42070 -10.41666
 Alpha  occ. eigenvalues --  -10.40989 -10.39849 -10.36829 -10.36308 -10.36303
 Alpha  occ. eigenvalues --  -10.35032 -10.34962 -10.32815 -10.32670 -10.32039
 Alpha  occ. eigenvalues --  -10.30925 -10.30273 -10.29869 -10.29605 -10.29582
 Alpha  occ. eigenvalues --  -10.28357 -10.27662 -10.27382 -10.25934 -10.25833
 Alpha  occ. eigenvalues --  -10.25808 -10.25789 -10.25157 -10.24739 -10.24042
 Alpha  occ. eigenvalues --  -10.23977 -10.23756 -10.23577 -10.23313 -10.22889
 Alpha  occ. eigenvalues --  -10.22264 -10.22029 -10.20914  -1.20334  -1.18518
 Alpha  occ. eigenvalues --   -1.14897  -1.13669  -1.11817  -1.11210  -1.10845
 Alpha  occ. eigenvalues --   -1.10516  -1.10366  -1.09125  -1.06739  -1.06449
 Alpha  occ. eigenvalues --   -1.03103  -1.00342  -1.00232  -1.00000  -0.99635
 Alpha  occ. eigenvalues --   -0.99219  -0.98579  -0.96422  -0.94339  -0.93921
 Alpha  occ. eigenvalues --   -0.91233  -0.91044  -0.90133  -0.87886  -0.87048
 Alpha  occ. eigenvalues --   -0.85955  -0.84681  -0.84171  -0.83319  -0.81676
 Alpha  occ. eigenvalues --   -0.80143  -0.79971  -0.79321  -0.77903  -0.77799
 Alpha  occ. eigenvalues --   -0.77214  -0.75010  -0.74606  -0.73853  -0.73236
 Alpha  occ. eigenvalues --   -0.72889  -0.72205  -0.71969  -0.70490  -0.70216
 Alpha  occ. eigenvalues --   -0.69256  -0.68497  -0.67969  -0.67647  -0.66877
 Alpha  occ. eigenvalues --   -0.66756  -0.66608  -0.65568  -0.65175  -0.64933
 Alpha  occ. eigenvalues --   -0.64411  -0.63974  -0.63244  -0.62936  -0.62691
 Alpha  occ. eigenvalues --   -0.62221  -0.60189  -0.60086  -0.59536  -0.59466
 Alpha  occ. eigenvalues --   -0.58979  -0.58865  -0.58609  -0.58300  -0.57952
 Alpha  occ. eigenvalues --   -0.57784  -0.57339  -0.56654  -0.56122  -0.55829
 Alpha  occ. eigenvalues --   -0.55593  -0.55396  -0.54418  -0.54109  -0.53579
 Alpha  occ. eigenvalues --   -0.53395  -0.53341  -0.53142  -0.52961  -0.52660
 Alpha  occ. eigenvalues --   -0.52336  -0.51806  -0.51736  -0.51479  -0.51133
 Alpha  occ. eigenvalues --   -0.50604  -0.50487  -0.50226  -0.49760  -0.49705
 Alpha  occ. eigenvalues --   -0.49398  -0.49157  -0.48912  -0.48737  -0.48419
 Alpha  occ. eigenvalues --   -0.48173  -0.48006  -0.47609  -0.47299  -0.47063
 Alpha  occ. eigenvalues --   -0.46992  -0.46762  -0.46405  -0.46305  -0.46050
 Alpha  occ. eigenvalues --   -0.45833  -0.45173  -0.45020  -0.44927  -0.44860
 Alpha  occ. eigenvalues --   -0.44273  -0.44001  -0.43924  -0.43504  -0.43241
 Alpha  occ. eigenvalues --   -0.42740  -0.42640  -0.42462  -0.42376  -0.42176
 Alpha  occ. eigenvalues --   -0.42048  -0.41619  -0.41493  -0.41364  -0.40991
 Alpha  occ. eigenvalues --   -0.40663  -0.40130  -0.39869  -0.39522  -0.38810
 Alpha  occ. eigenvalues --   -0.38083  -0.37824  -0.37448  -0.37151  -0.36950
 Alpha  occ. eigenvalues --   -0.36646  -0.36519  -0.35852  -0.35053  -0.34222
 Alpha  occ. eigenvalues --   -0.34047  -0.33942  -0.33613  -0.33135  -0.32966
 Alpha  occ. eigenvalues --   -0.32785  -0.32247  -0.31056  -0.29942  -0.29427
 Alpha  occ. eigenvalues --   -0.28422  -0.26438  -0.22087  -0.22030  -0.19789
 Alpha virt. eigenvalues --   -0.13368  -0.10762  -0.08747  -0.07323  -0.06333
 Alpha virt. eigenvalues --   -0.06103  -0.05854  -0.05626  -0.04943  -0.04589
 Alpha virt. eigenvalues --   -0.03694  -0.03268  -0.03017  -0.02951  -0.02535

 Mulliken charges:
               1
     1  N   -0.760128
     2  H    0.435894
     3  H    0.411527
     4  H    0.428974
     5  C   -0.121271
     6  H    0.226052
     7  C    0.660828
     8  C    0.101801
     9  H    0.190850
    10  O   -0.534595
    11  C   -0.475495
    12  H    0.184095
    13  H    0.158339
    14  H    0.191389
    15  O   -0.638312
    16  H    0.436390
    17  N   -0.599258
    18  H    0.368346
    19  C   -0.084408
    20  H    0.184973
    21  C    0.638635
    22  C   -0.064892
    23  H    0.136714
    24  O   -0.552256
    25  C   -0.250322
    26  H    0.119554
    27  H    0.149572
    28  C   -0.514556
    29  H    0.138882
    30  H    0.208218
    31  H    0.171862
    32  C   -0.453215
    33  H    0.158051
    34  H    0.164064
    35  H    0.145869
    36  N   -0.582154
    37  H    0.347916
    38  C   -0.067935
    39  H    0.182276
    40  C    0.632024
    41  C   -0.476727
    42  H    0.187849
    43  H    0.170659
    44  H    0.172543
    45  O   -0.530856
    46  N   -0.599268
    47  H    0.355967
    48  C   -0.074196
    49  H    0.180124
    50  C    0.622197
    51  C   -0.265356
    52  H    0.183310
    53  H    0.156884
    54  O   -0.549039
    55  C   -0.379425
    56  H    0.193266
    57  H    0.158409
    58  C    0.594012
    59  N   -0.744501
    60  H    0.332419
    61  H    0.345379
    62  O   -0.502547
    63  N   -0.622505
    64  H    0.356932
    65  C   -0.052025
    66  H    0.189542
    67  C    0.633287
    68  C   -0.346819
    69  H    0.161483
    70  H    0.175741
    71  O   -0.599318
    72  C    0.111879
    73  C   -0.226838
    74  H    0.186603
    75  C   -0.191556
    76  H    0.146282
    77  C   -0.165245
    78  H    0.159355
    79  C   -0.192613
    80  H    0.124594
    81  O   -0.632193
    82  H    0.410873
    83  C    0.354568
    84  N   -0.577799
    85  H    0.360519
    86  C   -0.058745
    87  H    0.165900
    88  C    0.591823
    89  C   -0.502544
    90  H    0.231567
    91  H    0.158949
    92  H    0.161895
    93  O   -0.572761
    94  N   -0.617468
    95  H    0.358052
    96  C   -0.090597
    97  H    0.153789
    98  C    0.589611
    99  C   -0.268255
   100  H    0.195462
   101  H    0.106271
   102  O   -0.561515
   103  C   -0.289105
   104  H    0.164520
   105  H    0.161411
   106  C   -0.181270
   107  H    0.180505
   108  H    0.181606
   109  N   -0.571430
   110  H    0.360458
   111  N   -0.748761
   112  H    0.374784
   113  H    0.394324
   114  N   -0.764558
   115  H    0.399873
   116  H    0.366455
   117  C    0.775701
   118  O   -0.616095
 Sum of Mulliken charges =   1.00000

 Dipole moment (field-independent basis, Debye):
    X=            -39.3811    Y=            -26.7542    Z=            -22.0007  Tot=             52.4470
 Quadrupole moment (field-independent basis, Debye-Ang):
   XX=           -264.3970   YY=           -140.0660   ZZ=           -274.4398
   XY=             86.6363   XZ=             24.4358   YZ=            102.3689

 Normal termination of Gaussian 16 at Sat Jul  2 15:32:42 2022.
