 Gaussian 16, Revision C.01,
 Gaussian 16:  ES64L-G16RevC.01  3-Jul-2019

 -------------------------------------------------------------------
 # B3LYP/6-31G* guess=read geom=check nosymm integral(ultrafinegrid)
 -------------------------------------------------------------------

 ------------------------------------------------------
 Candidate Structure: Conf:234 Charge calc in gas phase
 ------------------------------------------------------
 Structure from the checkpoint file:  "conf-234.chk"
 Charge =  1 Multiplicity = 1

                          Input orientation:
 ---------------------------------------------------------------------
 Center     Atomic      Atomic             Coordinates (Angstroms)
 Number     Number       Type             X           Y           Z
 ---------------------------------------------------------------------
      1          7           0       -8.079323   -2.358244   -9.078910
      2          1           0       -8.310334   -3.331260   -9.296194
      3          1           0       -8.243793   -1.761017   -9.908409
      4          1           0       -8.632980   -2.065186   -8.234934
      5          6           0       -6.651085   -2.162532   -8.648317
      6          1           0       -6.040807   -2.961078   -9.077827
      7          6           0       -6.720420   -2.207070   -7.100882
      8          6           0       -6.205189   -0.763289   -9.187074
      9          1           0       -6.665602   -0.001931   -8.546820
     10          8           0       -7.825327   -1.997552   -6.581328
     11          6           0       -4.692531   -0.589032   -9.208328
     12          1           0       -4.253032   -0.679301   -8.210313
     13          1           0       -4.219162   -1.338255   -9.856668
     14          1           0       -4.448363    0.405855   -9.591621
     15          8           0       -6.800478   -0.576677  -10.473779
     16          1           0       -6.158584   -0.808210  -11.165755
     17          7           0       -5.575634   -2.428603   -6.467177
     18          1           0       -4.683791   -2.502271   -6.962513
     19          6           0       -5.371791   -2.299600   -5.021130
     20          1           0       -6.034491   -1.509284   -4.657125
     21          6           0       -3.893661   -1.849742   -4.909035
     22          6           0       -5.711995   -3.632020   -4.283350
     23          1           0       -6.713676   -3.893625   -4.652872
     24          8           0       -3.151325   -1.941728   -5.897876
     25          6           0       -5.828233   -3.488729   -2.750181
     26          1           0       -4.845978   -3.278834   -2.308356
     27          1           0       -6.112257   -4.477326   -2.367845
     28          6           0       -4.743766   -4.762166   -4.661635
     29          1           0       -3.732091   -4.568985   -4.286898
     30          1           0       -4.677633   -4.902249   -5.746234
     31          1           0       -5.080809   -5.708375   -4.226205
     32          6           0       -6.856015   -2.461297   -2.258350
     33          1           0       -6.972933   -2.530411   -1.172434
     34          1           0       -7.839484   -2.630386   -2.712954
     35          1           0       -6.564213   -1.426639   -2.477423
     36          7           0       -3.500781   -1.375802   -3.721537
     37          1           0       -4.114082   -1.362905   -2.908659
     38          6           0       -2.120643   -1.027514   -3.401889
     39          1           0       -1.459671   -1.766726   -3.867815
     40          6           0       -2.020170   -1.131647   -1.864183
     41          6           0       -1.745429    0.376543   -3.907089
     42          1           0       -0.707754    0.619175   -3.656720
     43          1           0       -2.394826    1.133711   -3.455678
     44          1           0       -1.855133    0.414554   -4.994200
     45          8           0       -3.042408   -1.225859   -1.177177
     46          7           0       -0.769005   -1.108875   -1.371879
     47          1           0        0.020788   -0.892191   -1.977481
     48          6           0       -0.438449   -0.948733    0.039811
     49          1           0       -1.294029   -0.482107    0.540711
     50          6           0        0.781522    0.000341    0.070076
     51          6           0       -0.091657   -2.290151    0.722409
     52          1           0        0.329050   -2.081801    1.713960
     53          1           0        0.692265   -2.793805    0.147623
     54          8           0        1.450080    0.193104   -0.950137
     55          6           0       -1.284858   -3.241570    0.864689
     56          1           0       -2.019882   -2.842932    1.574625
     57          1           0       -1.805804   -3.335984   -0.095233
     58          6           0       -0.819704   -4.644126    1.261560
     59          7           0       -1.629374   -5.303896    2.143358
     60          1           0       -2.363714   -4.835739    2.652289
     61          1           0       -1.326125   -6.210904    2.471733
     62          8           0        0.181838   -5.156373    0.782031
     63          7           0        1.056680    0.554233    1.263735
     64          1           0        0.507232    0.360079    2.097821
     65          6           0        2.232143    1.372801    1.520562
     66          1           0        3.089275    0.925595    1.006252
     67          6           0        2.437957    1.316954    3.048251
     68          6           0        2.033000    2.822327    0.987261
     69          1           0        1.229319    3.294967    1.563543
     70          1           0        1.676938    2.715736   -0.043418
     71          8           0        1.500934    0.996486    3.787368
     72          6           0        3.281135    3.676869    1.017464
     73          6           0        3.397778    4.773971    1.882476
     74          1           0        2.569614    5.024517    2.541348
     75          6           0        4.363817    3.389942    0.174167
     76          1           0        4.296186    2.559083   -0.525092
     77          6           0        4.548982    5.555754    1.916700
     78          1           0        4.630529    6.408111    2.583626
     79          6           0        5.528470    4.155493    0.205046
     80          1           0        6.358908    3.911927   -0.455202
     81          8           0        6.743096    6.027263    1.163583
     82          1           0        7.410314    5.689862    0.545598
     83          6           0        5.625140    5.239193    1.083044
     84          7           0        3.667907    1.627371    3.493894
     85          1           0        4.399726    1.960676    2.871109
     86          6           0        4.006214    1.682658    4.909094
     87          1           0        3.194518    2.189071    5.444623
     88          6           0        5.296572    2.515584    5.011461
     89          6           0        4.199649    0.277615    5.510515
     90          1           0        4.443380    0.334848    6.576616
     91          1           0        3.275161   -0.293745    5.396184
     92          1           0        5.011398   -0.248279    4.997534
     93          8           0        5.987256    2.739107    4.014848
     94          7           0        5.597944    2.959946    6.252212
     95          1           0        5.089055    2.607120    7.058368
     96          6           0        6.892971    3.531687    6.593339
     97          1           0        7.622234    3.183050    5.857168
     98          6           0        7.299308    2.979261    7.966678
     99          6           0        6.880861    5.080584    6.619586
    100          1           0        7.722629    5.435449    7.223456
    101          1           0        5.967826    5.400804    7.135709
    102          8           0        8.563122    3.201069    8.308458
    103          6           0        6.953403    5.721663    5.228722
    104          1           0        6.780374    6.802751    5.326125
    105          1           0        6.156188    5.329707    4.587767
    106          6           0        8.285952    5.495615    4.498096
    107          1           0        8.195483    5.890027    3.479408
    108          1           0        8.507397    4.430387    4.407851
    109          7           0        9.444053    6.130414    5.123326
    110          1           0        9.499425    7.138498    5.078310
    111          7           0       10.195098    4.326304    6.411623
    112          1           0       11.069771    3.967690    6.794726
    113          1           0        9.073979    3.642369    7.557870
    114          7           0       11.497039    6.306759    6.133745
    115          1           0       12.224837    5.886665    6.696203
    116          1           0       11.854532    6.817882    5.335589
    117          6           0       10.374420    5.514123    5.910881
    118          8           0        6.506980    2.407597    8.690410
 ---------------------------------------------------------------------

 SCF Done:  E(RB3LYP) =  -2837.64981855     A.U. after    2 cycles

 Alpha  occ. eigenvalues --  -19.30634 -19.26211 -19.22722 -19.21779 -19.19800
 Alpha  occ. eigenvalues --  -19.19597 -19.17962 -19.16706 -19.16332 -19.15642
 Alpha  occ. eigenvalues --  -19.15593 -14.59400 -14.49009 -14.45110 -14.43007
 Alpha  occ. eigenvalues --  -14.41662 -14.40488 -14.40466 -14.40399 -14.40259
 Alpha  occ. eigenvalues --  -14.39985 -14.34657 -10.43289 -10.40456 -10.39893
 Alpha  occ. eigenvalues --  -10.38762 -10.36592 -10.34977 -10.34486 -10.33946
 Alpha  occ. eigenvalues --  -10.33926 -10.33797 -10.33549 -10.33292 -10.31783
 Alpha  occ. eigenvalues --  -10.31397 -10.29933 -10.29519 -10.28893 -10.28879
 Alpha  occ. eigenvalues --  -10.28021 -10.26831 -10.26423 -10.25995 -10.25975
 Alpha  occ. eigenvalues --  -10.25792 -10.25241 -10.24859 -10.24726 -10.24305
 Alpha  occ. eigenvalues --  -10.23824 -10.23772 -10.23652 -10.23615 -10.23036
 Alpha  occ. eigenvalues --  -10.22657 -10.22303 -10.22227  -1.19205  -1.17640
 Alpha  occ. eigenvalues --   -1.13736  -1.13079  -1.11378  -1.11363  -1.10555
 Alpha  occ. eigenvalues --   -1.09809  -1.08670  -1.07840  -1.07525  -1.05666
 Alpha  occ. eigenvalues --   -1.03477  -1.03182  -1.01694  -0.99727  -0.98314
 Alpha  occ. eigenvalues --   -0.97103  -0.96613  -0.94952  -0.93999  -0.93300
 Alpha  occ. eigenvalues --   -0.90320  -0.90000  -0.89721  -0.86783  -0.85727
 Alpha  occ. eigenvalues --   -0.84723  -0.84062  -0.83377  -0.82313  -0.81046
 Alpha  occ. eigenvalues --   -0.80152  -0.79334  -0.79217  -0.77617  -0.77448
 Alpha  occ. eigenvalues --   -0.76597  -0.74179  -0.74017  -0.72802  -0.72168
 Alpha  occ. eigenvalues --   -0.71924  -0.71450  -0.70551  -0.69809  -0.69496
 Alpha  occ. eigenvalues --   -0.67086  -0.66799  -0.66584  -0.65870  -0.65602
 Alpha  occ. eigenvalues --   -0.65407  -0.64617  -0.64504  -0.64303  -0.63153
 Alpha  occ. eigenvalues --   -0.62841  -0.62675  -0.62567  -0.62326  -0.61706
 Alpha  occ. eigenvalues --   -0.61277  -0.59638  -0.59112  -0.59027  -0.58938
 Alpha  occ. eigenvalues --   -0.58600  -0.58421  -0.57925  -0.57381  -0.57290
 Alpha  occ. eigenvalues --   -0.56875  -0.55909  -0.54945  -0.54810  -0.54354
 Alpha  occ. eigenvalues --   -0.54042  -0.53323  -0.53208  -0.52973  -0.52471
 Alpha  occ. eigenvalues --   -0.51964  -0.51812  -0.51477  -0.51323  -0.51289
 Alpha  occ. eigenvalues --   -0.51241  -0.51081  -0.50888  -0.50753  -0.50542
 Alpha  occ. eigenvalues --   -0.50364  -0.49911  -0.49523  -0.49241  -0.48815
 Alpha  occ. eigenvalues --   -0.48696  -0.48128  -0.47989  -0.47904  -0.47853
 Alpha  occ. eigenvalues --   -0.47655  -0.47498  -0.46949  -0.46690  -0.46652
 Alpha  occ. eigenvalues --   -0.46336  -0.46272  -0.45952  -0.45207  -0.45078
 Alpha  occ. eigenvalues --   -0.44981  -0.44830  -0.44671  -0.44499  -0.44381
 Alpha  occ. eigenvalues --   -0.44129  -0.43937  -0.43796  -0.43441  -0.43324
 Alpha  occ. eigenvalues --   -0.42682  -0.42434  -0.42327  -0.42154  -0.41799
 Alpha  occ. eigenvalues --   -0.41680  -0.41251  -0.41098  -0.40918  -0.40514
 Alpha  occ. eigenvalues --   -0.40282  -0.40206  -0.40030  -0.39608  -0.39411
 Alpha  occ. eigenvalues --   -0.39063  -0.38229  -0.38206  -0.38139  -0.37620
 Alpha  occ. eigenvalues --   -0.37237  -0.35903  -0.35054  -0.33717  -0.33162
 Alpha  occ. eigenvalues --   -0.33028  -0.32723  -0.32133  -0.31587  -0.31422
 Alpha  occ. eigenvalues --   -0.31076  -0.30927  -0.30434  -0.30330  -0.29689
 Alpha  occ. eigenvalues --   -0.29452  -0.29409  -0.28978  -0.27915  -0.26289
 Alpha virt. eigenvalues --   -0.12254  -0.10274  -0.07535  -0.05583  -0.05318
 Alpha virt. eigenvalues --   -0.05077  -0.04644  -0.04243  -0.03227  -0.02696
 Alpha virt. eigenvalues --   -0.02682  -0.01734  -0.01529  -0.01319  -0.00953

 Mulliken charges:
               1
     1  N   -0.747324
     2  H    0.414260
     3  H    0.426372
     4  H    0.426768
     5  C   -0.140080
     6  H    0.202671
     7  C    0.646992
     8  C    0.130066
     9  H    0.193539
    10  O   -0.537245
    11  C   -0.512029
    12  H    0.205455
    13  H    0.165494
    14  H    0.206369
    15  O   -0.630348
    16  H    0.424637
    17  N   -0.604395
    18  H    0.374457
    19  C   -0.083064
    20  H    0.193841
    21  C    0.634592
    22  C   -0.074091
    23  H    0.149175
    24  O   -0.563066
    25  C   -0.283349
    26  H    0.158182
    27  H    0.155887
    28  C   -0.463581
    29  H    0.167211
    30  H    0.137144
    31  H    0.167403
    32  C   -0.461114
    33  H    0.171814
    34  H    0.156102
    35  H    0.142446
    36  N   -0.621521
    37  H    0.379327
    38  C   -0.050920
    39  H    0.189971
    40  C    0.620670
    41  C   -0.453781
    42  H    0.175622
    43  H    0.164869
    44  H    0.176380
    45  O   -0.551312
    46  N   -0.601870
    47  H    0.361291
    48  C   -0.073723
    49  H    0.178018
    50  C    0.626949
    51  C   -0.264169
    52  H    0.157231
    53  H    0.188382
    54  O   -0.552361
    55  C   -0.356835
    56  H    0.140152
    57  H    0.184472
    58  C    0.593634
    59  N   -0.746918
    60  H    0.336602
    61  H    0.345824
    62  O   -0.503656
    63  N   -0.619629
    64  H    0.358834
    65  C   -0.043632
    66  H    0.179469
    67  C    0.620932
    68  C   -0.351825
    69  H    0.153965
    70  H    0.179022
    71  O   -0.553624
    72  C    0.148756
    73  C   -0.189490
    74  H    0.133075
    75  C   -0.203144
    76  H    0.144622
    77  C   -0.152473
    78  H    0.144631
    79  C   -0.181133
    80  H    0.126528
    81  O   -0.646197
    82  H    0.411141
    83  C    0.361257
    84  N   -0.619827
    85  H    0.367846
    86  C   -0.036557
    87  H    0.177575
    88  C    0.613708
    89  C   -0.454564
    90  H    0.164984
    91  H    0.184145
    92  H    0.162168
    93  O   -0.544892
    94  N   -0.608650
    95  H    0.353551
    96  C   -0.089208
    97  H    0.196759
    98  C    0.602598
    99  C   -0.262862
   100  H    0.157420
   101  H    0.150067
   102  O   -0.613579
   103  C   -0.271918
   104  H    0.127737
   105  H    0.171778
   106  C   -0.151742
   107  H    0.161989
   108  H    0.192414
   109  N   -0.593665
   110  H    0.329218
   111  N   -0.731166
   112  H    0.292552
   113  H    0.472296
   114  N   -0.757835
   115  H    0.335895
   116  H    0.333038
   117  C    0.656951
   118  O   -0.482829
 Sum of Mulliken charges =   1.00000

 Dipole moment (field-independent basis, Debye):
    X=            -18.7538    Y=             -1.8734    Z=            -33.1306  Tot=             38.1163
 Quadrupole moment (field-independent basis, Debye-Ang):
   XX=            -18.4849   YY=           -260.2351   ZZ=            -42.4675
   XY=            165.8277   XZ=            253.1229   YZ=             94.2249

 Normal termination of Gaussian 16 at Sat Jul  2 15:33:34 2022.
