 Gaussian 16, Revision C.01,
 Gaussian 16:  ES64L-G16RevC.01  3-Jul-2019

 -------------------------------------------------------------------
 # B3LYP/6-31G* guess=read geom=check nosymm integral(ultrafinegrid)
 -------------------------------------------------------------------

 ------------------------------------------------------
 Candidate Structure: Conf:584 Charge calc in gas phase
 ------------------------------------------------------
 Structure from the checkpoint file:  "conf-584.chk"
 Charge =  1 Multiplicity = 1

                          Input orientation:
 ---------------------------------------------------------------------
 Center     Atomic      Atomic             Coordinates (Angstroms)
 Number     Number       Type             X           Y           Z
 ---------------------------------------------------------------------
      1          7           0       -2.352993   -8.971738   -4.161227
      2          1           0       -1.363671   -9.133180   -4.366624
      3          1           0       -2.935266   -9.680192   -4.640458
      4          1           0       -2.478940   -8.957432   -3.115833
      5          6           0       -2.838627   -7.611965   -4.583209
      6          1           0       -2.211769   -7.250985   -5.402531
      7          6           0       -2.714322   -6.761097   -3.292913
      8          6           0       -4.322296   -7.784644   -5.044040
      9          1           0       -4.935840   -7.898781   -4.142914
     10          8           0       -2.653214   -7.378666   -2.219627
     11          6           0       -4.825156   -6.614437   -5.878768
     12          1           0       -4.787996   -5.669477   -5.328352
     13          1           0       -4.227451   -6.497853   -6.792579
     14          1           0       -5.865422   -6.794275   -6.164812
     15          8           0       -4.431055   -9.036676   -5.727568
     16          1           0       -4.365551   -8.888687   -6.685798
     17          7           0       -2.725189   -5.446178   -3.455804
     18          1           0       -2.861107   -5.009392   -4.370717
     19          6           0       -2.809992   -4.453099   -2.378378
     20          1           0       -3.396620   -4.887479   -1.564107
     21          6           0       -3.589653   -3.289495   -3.043649
     22          6           0       -1.385184   -4.091814   -1.849225
     23          1           0       -0.890480   -5.067434   -1.738138
     24          8           0       -3.675471   -3.256484   -4.281152
     25          6           0       -1.391490   -3.436490   -0.453226
     26          1           0       -1.925206   -2.480401   -0.480452
     27          1           0       -0.348029   -3.187080   -0.221754
     28          6           0       -0.581418   -3.255864   -2.856724
     29          1           0       -0.947277   -2.224657   -2.914697
     30          1           0       -0.608443   -3.681687   -3.866209
     31          1           0        0.466748   -3.204396   -2.545103
     32          6           0       -1.955601   -4.307168    0.675522
     33          1           0       -1.796454   -3.820414    1.642622
     34          1           0       -1.466849   -5.288692    0.706971
     35          1           0       -3.035563   -4.466481    0.584164
     36          7           0       -4.134521   -2.369940   -2.234157
     37          1           0       -4.089877   -2.461586   -1.217123
     38          6           0       -4.897017   -1.221534   -2.752850
     39          1           0       -4.490215   -1.008571   -3.747154
     40          6           0       -4.634119   -0.007077   -1.831502
     41          6           0       -6.389916   -1.524880   -2.869329
     42          1           0       -6.922045   -0.647570   -3.245341
     43          1           0       -6.813826   -1.777067   -1.892913
     44          1           0       -6.545715   -2.360522   -3.558047
     45          8           0       -5.551900    0.650010   -1.345083
     46          7           0       -3.325768    0.231427   -1.599893
     47          1           0       -2.602652   -0.317241   -2.053455
     48          6           0       -2.809611    1.202514   -0.655889
     49          1           0       -3.414659    2.114008   -0.717891
     50          6           0       -1.357127    1.479890   -1.097694
     51          6           0       -2.778711    0.694484    0.812137
     52          1           0       -2.238585    1.439309    1.408611
     53          1           0       -2.189479   -0.227888    0.848667
     54          8           0       -0.738685    0.649873   -1.763517
     55          6           0       -4.141215    0.452399    1.475200
     56          1           0       -4.003680    0.454253    2.565541
     57          1           0       -4.836079    1.268201    1.246941
     58          6           0       -4.808840   -0.878073    1.132878
     59          7           0       -6.108246   -0.976189    1.511636
     60          1           0       -6.650843   -0.152655    1.729011
     61          1           0       -6.614250   -1.813918    1.258289
     62          8           0       -4.211780   -1.832474    0.624098
     63          7           0       -0.845717    2.657390   -0.666303
     64          1           0       -1.344182    3.155797    0.067806
     65          6           0        0.582776    2.933012   -0.629890
     66          1           0        1.102096    2.036354   -0.979753
     67          6           0        0.927592    3.226086    0.849575
     68          6           0        0.969099    4.140461   -1.527353
     69          1           0        2.040506    4.331233   -1.387849
     70          1           0        0.442176    5.024913   -1.148474
     71          8           0        0.033335    3.544982    1.641289
     72          6           0        0.662718    3.938710   -2.993995
     73          6           0        1.536391    3.216465   -3.820828
     74          1           0        2.454643    2.808568   -3.403031
     75          6           0       -0.503171    4.454149   -3.569220
     76          1           0       -1.197274    5.023353   -2.955805
     77          6           0        1.262205    3.011738   -5.168705
     78          1           0        1.943922    2.457125   -5.805832
     79          6           0       -0.794327    4.259582   -4.919913
     80          1           0       -1.705347    4.675438   -5.347288
     81          8           0       -0.133156    3.309732   -7.055682
     82          1           0       -0.961078    3.743915   -7.313722
     83          6           0        0.089502    3.535305   -5.724246
     84          7           0        2.226786    3.132234    1.172615
     85          1           0        2.948266    2.916681    0.486831
     86          6           0        2.770988    3.426423    2.491196
     87          1           0        2.335235    4.364963    2.853227
     88          6           0        4.292929    3.603638    2.291430
     89          6           0        2.466974    2.309229    3.506326
     90          1           0        2.911934    2.532774    4.481070
     91          1           0        1.384805    2.208307    3.624815
     92          1           0        2.877254    1.356658    3.153768
     93          8           0        4.817497    3.305820    1.206273
     94          7           0        4.946689    4.073046    3.362815
     95          1           0        4.500715    4.078075    4.298789
     96          6           0        6.371648    3.899049    3.610665
     97          1           0        6.714619    2.964542    3.148007
     98          6           0        6.533235    3.791709    5.196342
     99          6           0        7.260784    5.042306    3.120496
    100          1           0        8.247345    4.823173    3.548122
    101          1           0        6.891632    5.959511    3.613207
    102          8           0        7.711239    3.782889    5.594561
    103          6           0        7.338610    5.248204    1.600702
    104          1           0        6.423719    5.715208    1.220497
    105          1           0        7.415099    4.281957    1.092643
    106          6           0        8.561243    6.081578    1.192563
    107          1           0        8.511455    6.374748    0.136875
    108          1           0        9.479805    5.503463    1.360403
    109          7           0        8.628133    7.311216    2.013083
    110          1           0        8.119389    7.261985    2.890297
    111          7           0       10.354829    8.325160    0.839826
    112          1           0       10.770782    9.183399    0.508506
    113          1           0       10.490320    7.496173    0.280240
    114          7           0        9.334648    9.449329    2.587221
    115          1           0       10.138537   10.050288    2.705888
    116          1           0        8.644035    9.484474    3.324912
    117          6           0        9.435480    8.340641    1.820431
    118          8           0        5.440413    3.763698    5.822767
 ---------------------------------------------------------------------

 SCF Done:  E(RB3LYP) =  -2837.59256138     A.U. after    3 cycles

 Alpha  occ. eigenvalues --  -19.29822 -19.25111 -19.21833 -19.20420 -19.18544
 Alpha  occ. eigenvalues --  -19.17206 -19.17005 -19.15595 -19.13985 -19.06048
 Alpha  occ. eigenvalues --  -19.05101 -14.58453 -14.50495 -14.50100 -14.49579
 Alpha  occ. eigenvalues --  -14.47830 -14.43756 -14.42165 -14.40952 -14.40664
 Alpha  occ. eigenvalues --  -14.39266 -14.35650 -10.46368 -10.42169 -10.39494
 Alpha  occ. eigenvalues --  -10.39025 -10.37394 -10.35943 -10.34313 -10.34125
 Alpha  occ. eigenvalues --  -10.32613 -10.32548 -10.32323 -10.30567 -10.30509
 Alpha  occ. eigenvalues --  -10.29765 -10.28988 -10.28826 -10.27786 -10.27191
 Alpha  occ. eigenvalues --  -10.26061 -10.25529 -10.24871 -10.24482 -10.24211
 Alpha  occ. eigenvalues --  -10.24154 -10.24080 -10.23898 -10.23782 -10.23086
 Alpha  occ. eigenvalues --  -10.23016 -10.22987 -10.22955 -10.22913 -10.22397
 Alpha  occ. eigenvalues --  -10.21919 -10.21828 -10.20321  -1.18242  -1.16683
 Alpha  occ. eigenvalues --   -1.14914  -1.12476  -1.11966  -1.10000  -1.09809
 Alpha  occ. eigenvalues --   -1.09307  -1.08519  -1.07281  -1.05186  -1.04494
 Alpha  occ. eigenvalues --   -1.03898  -1.03273  -1.00352  -0.99150  -0.97642
 Alpha  occ. eigenvalues --   -0.97465  -0.96956  -0.95770  -0.92968  -0.92311
 Alpha  occ. eigenvalues --   -0.90382  -0.89244  -0.88713  -0.86642  -0.85632
 Alpha  occ. eigenvalues --   -0.84649  -0.83405  -0.83141  -0.80684  -0.80287
 Alpha  occ. eigenvalues --   -0.79035  -0.78643  -0.78527  -0.78358  -0.76868
 Alpha  occ. eigenvalues --   -0.76622  -0.75982  -0.73064  -0.72612  -0.72426
 Alpha  occ. eigenvalues --   -0.71464  -0.71169  -0.71042  -0.70535  -0.69510
 Alpha  occ. eigenvalues --   -0.68822  -0.68468  -0.67482  -0.66516  -0.66066
 Alpha  occ. eigenvalues --   -0.65311  -0.64518  -0.64061  -0.63957  -0.63601
 Alpha  occ. eigenvalues --   -0.63414  -0.63337  -0.62991  -0.62823  -0.62588
 Alpha  occ. eigenvalues --   -0.61841  -0.61059  -0.60011  -0.59461  -0.58835
 Alpha  occ. eigenvalues --   -0.58349  -0.58269  -0.58013  -0.57654  -0.57453
 Alpha  occ. eigenvalues --   -0.56429  -0.55527  -0.55413  -0.55129  -0.54648
 Alpha  occ. eigenvalues --   -0.54038  -0.53320  -0.53220  -0.53034  -0.52658
 Alpha  occ. eigenvalues --   -0.52350  -0.52217  -0.51747  -0.51593  -0.50907
 Alpha  occ. eigenvalues --   -0.50702  -0.50265  -0.49941  -0.49899  -0.49686
 Alpha  occ. eigenvalues --   -0.49258  -0.48946  -0.48820  -0.48528  -0.48258
 Alpha  occ. eigenvalues --   -0.47923  -0.47610  -0.47225  -0.47050  -0.46843
 Alpha  occ. eigenvalues --   -0.46743  -0.46656  -0.46206  -0.46135  -0.45937
 Alpha  occ. eigenvalues --   -0.45522  -0.44757  -0.44674  -0.44455  -0.44242
 Alpha  occ. eigenvalues --   -0.43940  -0.43688  -0.43457  -0.43345  -0.43120
 Alpha  occ. eigenvalues --   -0.43006  -0.42684  -0.42527  -0.42427  -0.42153
 Alpha  occ. eigenvalues --   -0.41865  -0.41550  -0.41502  -0.41097  -0.40678
 Alpha  occ. eigenvalues --   -0.40476  -0.40047  -0.39952  -0.39839  -0.39684
 Alpha  occ. eigenvalues --   -0.39402  -0.39393  -0.38984  -0.38663  -0.38576
 Alpha  occ. eigenvalues --   -0.37713  -0.37594  -0.37236  -0.36732  -0.36607
 Alpha  occ. eigenvalues --   -0.36477  -0.35475  -0.34590  -0.34171  -0.33625
 Alpha  occ. eigenvalues --   -0.33587  -0.32432  -0.31584  -0.31201  -0.30586
 Alpha  occ. eigenvalues --   -0.29970  -0.29637  -0.29124  -0.28878  -0.27964
 Alpha  occ. eigenvalues --   -0.27013  -0.25572  -0.21226  -0.20898  -0.19465
 Alpha virt. eigenvalues --   -0.11153  -0.10475  -0.09401  -0.06434  -0.06158
 Alpha virt. eigenvalues --   -0.04829  -0.04591  -0.04160  -0.03690  -0.03669
 Alpha virt. eigenvalues --   -0.03175  -0.02743  -0.02617  -0.01788  -0.01300

 Mulliken charges:
               1
     1  N   -0.747983
     2  H    0.412906
     3  H    0.424424
     4  H    0.426375
     5  C   -0.139845
     6  H    0.201194
     7  C    0.648850
     8  C    0.129408
     9  H    0.192782
    10  O   -0.539390
    11  C   -0.511107
    12  H    0.207200
    13  H    0.163963
    14  H    0.204201
    15  O   -0.630675
    16  H    0.422903
    17  N   -0.603333
    18  H    0.374297
    19  C   -0.086832
    20  H    0.191144
    21  C    0.636513
    22  C   -0.071904
    23  H    0.141123
    24  O   -0.565971
    25  C   -0.282923
    26  H    0.166667
    27  H    0.151915
    28  C   -0.471945
    29  H    0.181922
    30  H    0.132536
    31  H    0.165220
    32  C   -0.449269
    33  H    0.164068
    34  H    0.142919
    35  H    0.147996
    36  N   -0.646000
    37  H    0.407841
    38  C   -0.065512
    39  H    0.195032
    40  C    0.612390
    41  C   -0.428761
    42  H    0.178165
    43  H    0.149132
    44  H    0.147553
    45  O   -0.548413
    46  N   -0.605918
    47  H    0.363347
    48  C   -0.047312
    49  H    0.174273
    50  C    0.611724
    51  C   -0.279997
    52  H    0.169609
    53  H    0.176155
    54  O   -0.538110
    55  C   -0.369874
    56  H    0.186524
    57  H    0.179975
    58  C    0.628662
    59  N   -0.724835
    60  H    0.354229
    61  H    0.342522
    62  O   -0.557902
    63  N   -0.589232
    64  H    0.350326
    65  C   -0.077522
    66  H    0.184427
    67  C    0.629023
    68  C   -0.365719
    69  H    0.157476
    70  H    0.154352
    71  O   -0.556555
    72  C    0.188624
    73  C   -0.180922
    74  H    0.125419
    75  C   -0.186343
    76  H    0.126401
    77  C   -0.155858
    78  H    0.138397
    79  C   -0.194687
    80  H    0.120019
    81  O   -0.643623
    82  H    0.407709
    83  C    0.349266
    84  N   -0.615705
    85  H    0.351771
    86  C   -0.034330
    87  H    0.174743
    88  C    0.597046
    89  C   -0.461164
    90  H    0.190580
    91  H    0.170448
    92  H    0.150111
    93  O   -0.577179
    94  N   -0.611837
    95  H    0.363177
    96  C   -0.078766
    97  H    0.147233
    98  C    0.583068
    99  C   -0.294908
   100  H    0.175339
   101  H    0.115404
   102  O   -0.591178
   103  C   -0.285829
   104  H    0.166653
   105  H    0.188999
   106  C   -0.167724
   107  H    0.167477
   108  H    0.185549
   109  N   -0.589945
   110  H    0.376094
   111  N   -0.756803
   112  H    0.380606
   113  H    0.391980
   114  N   -0.758154
   115  H    0.378334
   116  H    0.385625
   117  C    0.816939
   118  O   -0.608477
 Sum of Mulliken charges =   1.00000

 Dipole moment (field-independent basis, Debye):
    X=              3.4093    Y=             -6.6497    Z=            -24.8990  Tot=             25.9962
 Quadrupole moment (field-independent basis, Debye-Ang):
   XX=            -57.2554   YY=            148.1491   ZZ=           -326.7037
   XY=            309.2955   XZ=             -3.1322   YZ=            144.2782

 Normal termination of Gaussian 16 at Sat Jul  2 15:33:36 2022.
