 Gaussian 16, Revision C.01,
 Gaussian 16:  ES64L-G16RevC.01  3-Jul-2019

 -------------------------------------------------------------------
 # B3LYP/6-31G* guess=read geom=check nosymm integral(ultrafinegrid)
 -------------------------------------------------------------------

 ------------------------------------------------------
 Candidate Structure: Conf:474 Charge calc in gas phase
 ------------------------------------------------------
 Structure from the checkpoint file:  "conf-474.chk"
 Charge =  1 Multiplicity = 1

                          Input orientation:
 ---------------------------------------------------------------------
 Center     Atomic      Atomic             Coordinates (Angstroms)
 Number     Number       Type             X           Y           Z
 ---------------------------------------------------------------------
      1          7           0       -2.122153   -6.633946   -2.885775
      2          1           0       -2.664875   -6.965167   -2.084128
      3          1           0       -1.222253   -7.138462   -2.942381
      4          1           0       -2.699049   -6.732958   -3.753664
      5          6           0       -1.820193   -5.154907   -2.829219
      6          1           0       -1.737412   -4.835456   -1.788208
      7          6           0       -3.004134   -4.510633   -3.584680
      8          6           0       -0.480895   -4.957660   -3.577818
      9          1           0       -0.667599   -5.126361   -4.649592
     10          8           0       -3.532055   -5.192629   -4.478175
     11          6           0        0.123242   -3.578165   -3.361040
     12          1           0       -0.542185   -2.791936   -3.731305
     13          1           0        0.314743   -3.408380   -2.297902
     14          1           0        1.070657   -3.503891   -3.906693
     15          8           0        0.350351   -6.013022   -3.065842
     16          1           0        1.199223   -6.004970   -3.535742
     17          7           0       -3.329286   -3.285107   -3.198092
     18          1           0       -2.805125   -2.865937   -2.414131
     19          6           0       -4.303186   -2.426927   -3.870679
     20          1           0       -4.668255   -2.964487   -4.751547
     21          6           0       -3.491365   -1.181785   -4.328760
     22          6           0       -5.496470   -2.141393   -2.893562
     23          1           0       -5.062873   -1.633697   -2.020454
     24          8           0       -2.291749   -1.096059   -4.063584
     25          6           0       -6.123695   -3.459277   -2.373567
     26          1           0       -6.848324   -3.177222   -1.599074
     27          1           0       -5.356117   -4.050151   -1.859715
     28          6           0       -6.587262   -1.216373   -3.469451
     29          1           0       -6.874310   -1.494129   -4.492363
     30          1           0       -6.286296   -0.166067   -3.440172
     31          1           0       -7.493044   -1.298431   -2.859322
     32          6           0       -6.825778   -4.331174   -3.423373
     33          1           0       -7.289150   -5.199563   -2.941812
     34          1           0       -6.128121   -4.710164   -4.177884
     35          1           0       -7.623835   -3.785762   -3.938582
     36          7           0       -4.131766   -0.194756   -5.008747
     37          1           0       -5.139755   -0.239680   -5.067860
     38          6           0       -3.563483    1.165784   -4.983559
     39          1           0       -2.535465    1.098699   -5.347273
     40          6           0       -3.596010    1.624275   -3.504909
     41          6           0       -4.389327    2.095919   -5.869694
     42          1           0       -3.935871    3.091357   -5.897592
     43          1           0       -5.404416    2.200679   -5.472595
     44          1           0       -4.438237    1.710432   -6.892738
     45          8           0       -4.660390    1.633059   -2.884656
     46          7           0       -2.410315    1.941606   -2.936437
     47          1           0       -1.536749    1.863348   -3.445920
     48          6           0       -2.276501    2.116518   -1.500409
     49          1           0       -3.059503    2.800434   -1.155759
     50          6           0       -0.882455    2.694349   -1.224927
     51          6           0       -2.430092    0.772289   -0.730050
     52          1           0       -3.423624    0.375197   -0.959440
     53          1           0       -2.402041    0.977453    0.345787
     54          8           0        0.018287    2.610403   -2.054648
     55          6           0       -1.335276   -0.253057   -1.094661
     56          1           0       -1.399124   -0.501671   -2.154113
     57          1           0       -0.349826    0.179369   -0.898946
     58          6           0       -1.464368   -1.543859   -0.305494
     59          7           0       -0.960881   -1.502892    0.944880
     60          1           0       -0.531794   -0.655992    1.316215
     61          1           0       -1.063115   -2.313554    1.540316
     62          8           0       -1.994123   -2.572778   -0.767548
     63          7           0       -0.716879    3.221728    0.021534
     64          1           0       -1.475071    3.091419    0.679393
     65          6           0        0.601922    3.370265    0.609071
     66          1           0        1.283772    3.613574   -0.210323
     67          6           0        1.038323    2.029393    1.248490
     68          6           0        0.619513    4.509060    1.661850
     69          1           0        1.617701    4.529196    2.116237
     70          1           0       -0.077279    4.246415    2.469134
     71          8           0        0.207607    1.163405    1.556765
     72          6           0        0.272331    5.867622    1.094371
     73          6           0        1.193669    6.572787    0.304698
     74          1           0        2.175580    6.145395    0.110605
     75          6           0       -0.972490    6.457514    1.331592
     76          1           0       -1.704219    5.942967    1.950855
     77          6           0        0.886363    7.816009   -0.234800
     78          1           0        1.602375    8.360966   -0.841465
     79          6           0       -1.297712    7.706146    0.800722
     80          1           0       -2.271041    8.148651    1.004068
     81          8           0       -0.614573    9.612749   -0.538680
     82          1           0       -1.503497    9.906649   -0.285032
     83          6           0       -0.367455    8.389569    0.012194
     84          7           0        2.358504    1.900232    1.467404
     85          1           0        3.016291    2.640504    1.234452
     86          6           0        2.967329    0.771676    2.154430
     87          1           0        2.337839    0.503927    3.011013
     88          6           0        4.342127    1.262553    2.649210
     89          6           0        3.123034   -0.455288    1.235211
     90          1           0        3.590252   -1.290096    1.768138
     91          1           0        2.140401   -0.777559    0.880693
     92          1           0        3.745665   -0.205453    0.370159
     93          8           0        4.839877    2.299116    2.201056
     94          7           0        4.937297    0.472840    3.566385
     95          1           0        4.547187   -0.438491    3.795025
     96          6           0        6.346709    0.584827    3.921602
     97          1           0        6.854384    1.097493    3.102659
     98          6           0        6.892007   -0.856100    4.033425
     99          6           0        6.567171    1.355023    5.247886
    100          1           0        7.541939    1.076285    5.661925
    101          1           0        5.820210    0.995546    5.965453
    102          8           0        8.205535   -1.002966    4.004834
    103          6           0        6.470004    2.886883    5.138175
    104          1           0        6.499697    3.303835    6.154063
    105          1           0        5.502802    3.172058    4.707830
    106          6           0        7.569462    3.561424    4.293414
    107          1           0        7.424947    4.646086    4.310196
    108          1           0        7.475697    3.267810    3.244296
    109          7           0        8.934791    3.299645    4.750349
    110          1           0        9.274648    3.859145    5.521472
    111          7           0        9.432856    1.351475    3.467187
    112          1           0        8.710773   -0.144608    3.781559
    113          1           0        8.925911    1.835920    2.727816
    114          7           0       10.540045    1.780796    5.448303
    115          1           0       11.044386    0.927678    5.244643
    116          1           0       10.327337    1.931740    6.425642
    117          6           0        9.600833    2.124957    4.504713
    118          8           0        6.125722   -1.793064    4.173659
 ---------------------------------------------------------------------

 SCF Done:  E(RB3LYP) =  -2837.66377745     A.U. after    3 cycles

 Alpha  occ. eigenvalues --  -19.28016 -19.23527 -19.23096 -19.22138 -19.20726
 Alpha  occ. eigenvalues --  -19.20616 -19.20337 -19.19688 -19.19652 -19.18584
 Alpha  occ. eigenvalues --  -19.18237 -14.57285 -14.46173 -14.44252 -14.43964
 Alpha  occ. eigenvalues --  -14.43697 -14.43425 -14.43170 -14.43111 -14.42667
 Alpha  occ. eigenvalues --  -14.41826 -14.36119 -10.40515 -10.37719 -10.37556
 Alpha  occ. eigenvalues --  -10.37476 -10.37089 -10.37051 -10.36723 -10.36604
 Alpha  occ. eigenvalues --  -10.36588 -10.36298 -10.35753 -10.32649 -10.31533
 Alpha  occ. eigenvalues --  -10.31170 -10.31129 -10.31126 -10.30433 -10.30061
 Alpha  occ. eigenvalues --  -10.29211 -10.28098 -10.27609 -10.27143 -10.26959
 Alpha  occ. eigenvalues --  -10.26013 -10.25937 -10.25920 -10.25821 -10.25601
 Alpha  occ. eigenvalues --  -10.25454 -10.25078 -10.25074 -10.24998 -10.24778
 Alpha  occ. eigenvalues --  -10.24534 -10.24277 -10.23988  -1.16575  -1.14866
 Alpha  occ. eigenvalues --   -1.13817  -1.12810  -1.12223  -1.11544  -1.11404
 Alpha  occ. eigenvalues --   -1.11195  -1.10998  -1.10821  -1.10282  -1.05882
 Alpha  occ. eigenvalues --   -1.05266  -1.03266  -1.00628  -1.00562  -1.00478
 Alpha  occ. eigenvalues --   -0.99787  -0.99616  -0.98377  -0.96135  -0.91453
 Alpha  occ. eigenvalues --   -0.91163  -0.91004  -0.88800  -0.87746  -0.86938
 Alpha  occ. eigenvalues --   -0.85716  -0.84724  -0.83976  -0.82920  -0.80870
 Alpha  occ. eigenvalues --   -0.80597  -0.80370  -0.80200  -0.78714  -0.78401
 Alpha  occ. eigenvalues --   -0.74977  -0.74700  -0.73706  -0.73184  -0.72222
 Alpha  occ. eigenvalues --   -0.71693  -0.71571  -0.70236  -0.69388  -0.69192
 Alpha  occ. eigenvalues --   -0.68082  -0.67904  -0.67432  -0.66871  -0.66538
 Alpha  occ. eigenvalues --   -0.66248  -0.65712  -0.64939  -0.64873  -0.64738
 Alpha  occ. eigenvalues --   -0.64603  -0.64203  -0.63788  -0.63045  -0.62689
 Alpha  occ. eigenvalues --   -0.62433  -0.61605  -0.61157  -0.59973  -0.59916
 Alpha  occ. eigenvalues --   -0.58854  -0.58617  -0.57729  -0.57260  -0.56886
 Alpha  occ. eigenvalues --   -0.56534  -0.56318  -0.55862  -0.55355  -0.55106
 Alpha  occ. eigenvalues --   -0.54798  -0.54649  -0.54346  -0.53956  -0.53842
 Alpha  occ. eigenvalues --   -0.53421  -0.53003  -0.52797  -0.52580  -0.52498
 Alpha  occ. eigenvalues --   -0.52115  -0.51729  -0.51487  -0.50907  -0.50473
 Alpha  occ. eigenvalues --   -0.50261  -0.50131  -0.49960  -0.49874  -0.49693
 Alpha  occ. eigenvalues --   -0.49624  -0.49489  -0.49052  -0.48996  -0.48651
 Alpha  occ. eigenvalues --   -0.48469  -0.48248  -0.47982  -0.47835  -0.47407
 Alpha  occ. eigenvalues --   -0.47329  -0.46965  -0.46915  -0.46660  -0.46178
 Alpha  occ. eigenvalues --   -0.46125  -0.45967  -0.45901  -0.45824  -0.45595
 Alpha  occ. eigenvalues --   -0.45409  -0.45199  -0.45061  -0.44674  -0.44396
 Alpha  occ. eigenvalues --   -0.44243  -0.43915  -0.43810  -0.43609  -0.43106
 Alpha  occ. eigenvalues --   -0.42746  -0.42523  -0.42338  -0.42197  -0.41698
 Alpha  occ. eigenvalues --   -0.41288  -0.40932  -0.40658  -0.40350  -0.40321
 Alpha  occ. eigenvalues --   -0.40096  -0.39906  -0.39292  -0.38295  -0.38145
 Alpha  occ. eigenvalues --   -0.35993  -0.35403  -0.35377  -0.35253  -0.35032
 Alpha  occ. eigenvalues --   -0.34927  -0.34663  -0.34256  -0.34092  -0.33961
 Alpha  occ. eigenvalues --   -0.33551  -0.32887  -0.32862  -0.32664  -0.32452
 Alpha  occ. eigenvalues --   -0.31765  -0.31467  -0.30733  -0.29959  -0.27293
 Alpha virt. eigenvalues --   -0.10009  -0.07632  -0.07449  -0.06894  -0.06677
 Alpha virt. eigenvalues --   -0.05810  -0.05394  -0.05160  -0.04808  -0.04030
 Alpha virt. eigenvalues --   -0.03979  -0.03789  -0.02904  -0.00675  -0.00423

 Mulliken charges:
               1
     1  N   -0.747846
     2  H    0.411093
     3  H    0.425105
     4  H    0.418154
     5  C   -0.132567
     6  H    0.235243
     7  C    0.623695
     8  C    0.124596
     9  H    0.165459
    10  O   -0.552097
    11  C   -0.494043
    12  H    0.218075
    13  H    0.178858
    14  H    0.162309
    15  O   -0.653888
    16  H    0.427897
    17  N   -0.594367
    18  H    0.416133
    19  C   -0.113356
    20  H    0.201454
    21  C    0.627311
    22  C   -0.070099
    23  H    0.150461
    24  O   -0.521573
    25  C   -0.256177
    26  H    0.150847
    27  H    0.120859
    28  C   -0.522250
    29  H    0.147478
    30  H    0.199389
    31  H    0.169110
    32  C   -0.472666
    33  H    0.151959
    34  H    0.166496
    35  H    0.157460
    36  N   -0.587265
    37  H    0.347744
    38  C   -0.043651
    39  H    0.172396
    40  C    0.626344
    41  C   -0.479364
    42  H    0.176836
    43  H    0.177023
    44  H    0.171863
    45  O   -0.540993
    46  N   -0.600322
    47  H    0.359866
    48  C   -0.051238
    49  H    0.186109
    50  C    0.624814
    51  C   -0.290133
    52  H    0.184264
    53  H    0.154332
    54  O   -0.531293
    55  C   -0.402645
    56  H    0.217768
    57  H    0.177906
    58  C    0.587890
    59  N   -0.756575
    60  H    0.412576
    61  H    0.339398
    62  O   -0.570776
    63  N   -0.577551
    64  H    0.335767
    65  C   -0.076724
    66  H    0.198574
    67  C    0.640734
    68  C   -0.391979
    69  H    0.166203
    70  H    0.154554
    71  O   -0.573080
    72  C    0.199906
    73  C   -0.187695
    74  H    0.127017
    75  C   -0.194029
    76  H    0.121405
    77  C   -0.154200
    78  H    0.151297
    79  C   -0.191721
    80  H    0.128050
    81  O   -0.634807
    82  H    0.412376
    83  C    0.353007
    84  N   -0.602897
    85  H    0.362668
    86  C   -0.040724
    87  H    0.176595
    88  C    0.615622
    89  C   -0.456357
    90  H    0.168714
    91  H    0.167162
    92  H    0.170173
    93  O   -0.547824
    94  N   -0.605081
    95  H    0.355938
    96  C   -0.075051
    97  H    0.167686
    98  C    0.599049
    99  C   -0.269003
   100  H    0.150865
   101  H    0.159558
   102  O   -0.599696
   103  C   -0.259456
   104  H    0.138286
   105  H    0.165219
   106  C   -0.165755
   107  H    0.167013
   108  H    0.176923
   109  N   -0.583295
   110  H    0.330797
   111  N   -0.743038
   112  H    0.465456
   113  H    0.299965
   114  N   -0.741279
   115  H    0.358744
   116  H    0.333189
   117  C    0.656676
   118  O   -0.485331
 Sum of Mulliken charges =   1.00000

 Dipole moment (field-independent basis, Debye):
    X=             -1.9997    Y=             -8.2647    Z=             -1.8194  Tot=              8.6957
 Quadrupole moment (field-independent basis, Debye-Ang):
   XX=           -243.8397   YY=           -190.8323   ZZ=           -250.8113
   XY=             56.0587   XZ=             78.4473   YZ=             83.7241

 Normal termination of Gaussian 16 at Sat Jul  2 15:33:49 2022.
