 Gaussian 16, Revision C.01,
 Gaussian 16:  ES64L-G16RevC.01  3-Jul-2019

 -------------------------------------------------------------------
 # B3LYP/6-31G* guess=read geom=check nosymm integral(ultrafinegrid)
 -------------------------------------------------------------------

 ------------------------------------------------------
 Candidate Structure: Conf:772 Charge calc in gas phase
 ------------------------------------------------------
 Structure from the checkpoint file:  "conf-772.chk"
 Charge =  1 Multiplicity = 1

                          Input orientation:
 ---------------------------------------------------------------------
 Center     Atomic      Atomic             Coordinates (Angstroms)
 Number     Number       Type             X           Y           Z
 ---------------------------------------------------------------------
      1          7           0       -8.165531   -5.799839   -6.096932
      2          1           0       -8.458304   -6.534927   -5.447876
      3          1           0       -8.340295   -6.102304   -7.069428
      4          1           0       -8.656169   -4.906575   -5.838294
      5          6           0       -6.705973   -5.446454   -5.971024
      6          1           0       -6.174261   -6.305657   -5.556277
      7          6           0       -6.707611   -4.209572   -5.034271
      8          6           0       -6.177696   -5.120475   -7.392200
      9          1           0       -6.551672   -4.124798   -7.675722
     10          8           0       -7.775729   -3.590895   -4.923669
     11          6           0       -4.655541   -5.157807   -7.478001
     12          1           0       -4.187657   -4.409744   -6.830370
     13          1           0       -4.279605   -6.150820   -7.210389
     14          1           0       -4.339814   -4.939756   -8.503836
     15          8           0       -6.788549   -6.118891   -8.219347
     16          1           0       -6.574253   -5.944251   -9.149861
     17          7           0       -5.554302   -3.908508   -4.453546
     18          1           0       -4.691182   -4.420598   -4.650905
     19          6           0       -5.289821   -2.692740   -3.677767
     20          1           0       -5.869892   -1.877551   -4.119602
     21          6           0       -3.776238   -2.452680   -3.896776
     22          6           0       -5.715420   -2.873462   -2.186279
     23          1           0       -6.747416   -3.247143   -2.247529
     24          8           0       -3.076275   -3.357980   -4.372537
     25          6           0       -5.767630   -1.555509   -1.383086
     26          1           0       -4.757505   -1.154932   -1.232908
     27          1           0       -6.123605   -1.819273   -0.379396
     28          6           0       -4.858643   -3.924984   -1.466462
     29          1           0       -3.823442   -3.586843   -1.344143
     30          1           0       -4.838425   -4.879561   -2.004074
     31          1           0       -5.260123   -4.116260   -0.466257
     32          6           0       -6.685003   -0.467603   -1.956216
     33          1           0       -6.769626    0.366049   -1.252398
     34          1           0       -7.694572   -0.852883   -2.143559
     35          1           0       -6.312217   -0.046462   -2.898500
     36          7           0       -3.306274   -1.248938   -3.547665
     37          1           0       -3.891234   -0.549946   -3.093298
     38          6           0       -1.886908   -0.912060   -3.515213
     39          1           0       -1.329048   -1.804345   -3.211194
     40          6           0       -1.759752    0.182641   -2.433580
     41          6           0       -1.371299   -0.434699   -4.883148
     42          1           0       -0.303493   -0.197268   -4.836815
     43          1           0       -1.911182    0.460734   -5.207659
     44          1           0       -1.514976   -1.225895   -5.624173
     45          8           0       -2.763190    0.778338   -2.030288
     46          7           0       -0.513514    0.421759   -1.990164
     47          1           0        0.302963   -0.029172   -2.396246
     48          6           0       -0.195170    1.450798   -1.011460
     49          1           0       -0.684335    2.387041   -1.309816
     50          6           0        1.337120    1.628747   -1.072430
     51          6           0       -0.675338    1.087939    0.414339
     52          1           0       -1.753773    0.912010    0.374150
     53          1           0       -0.531388    1.960347    1.064783
     54          8           0        2.028451    0.922325   -1.803263
     55          6           0        0.033886   -0.133147    1.026069
     56          1           0       -0.233220   -1.037065    0.471524
     57          1           0        1.121297   -0.013375    0.975899
     58          6           0       -0.415476   -0.333466    2.473756
     59          7           0        0.405078    0.231433    3.406280
     60          1           0        1.175611    0.846529    3.153718
     61          1           0        0.087688    0.223296    4.366345
     62          8           0       -1.444985   -0.934463    2.753825
     63          7           0        1.837619    2.599707   -0.262138
     64          1           0        1.221315    2.962855    0.456058
     65          6           0        3.249371    2.644772    0.114119
     66          1           0        3.809057    2.134865   -0.672688
     67          6           0        3.402705    1.911445    1.461166
     68          6           0        3.705618    4.121846    0.235028
     69          1           0        3.041150    4.619888    0.951680
     70          1           0        3.534941    4.591574   -0.740580
     71          8           0        2.548492    2.079459    2.346145
     72          6           0        5.144278    4.297491    0.671672
     73          6           0        5.461157    4.596305    2.004867
     74          1           0        4.659348    4.719697    2.729096
     75          6           0        6.200280    4.152701   -0.236390
     76          1           0        5.989005    3.933815   -1.280976
     77          6           0        6.780535    4.741682    2.424475
     78          1           0        7.018782    4.984418    3.455316
     79          6           0        7.527434    4.290329    0.168243
     80          1           0        8.332526    4.172145   -0.554556
     81          8           0        9.103301    4.729269    1.963961
     82          1           0        9.717574    4.611771    1.222464
     83          6           0        7.820262    4.583755    1.503473
     84          7           0        4.486290    1.135589    1.593804
     85          1           0        5.182764    1.063844    0.854816
     86          6           0        4.913117    0.521433    2.846612
     87          1           0        4.642224    1.195527    3.666299
     88          6           0        6.445895    0.387046    2.730611
     89          6           0        4.264559   -0.854498    3.076594
     90          1           0        4.622438   -1.291312    4.014801
     91          1           0        3.176332   -0.759072    3.132289
     92          1           0        4.522199   -1.534306    2.258180
     93          8           0        6.967447    0.257261    1.618640
     94          7           0        7.118037    0.385444    3.893402
     95          1           0        6.664653    0.615298    4.773355
     96          6           0        8.570701    0.274278    4.011168
     97          1           0        8.915740   -0.602559    3.457772
     98          6           0        8.918952    0.097039    5.505148
     99          6           0        9.252998    1.551817    3.438126
    100          1           0        8.661193    2.416057    3.766304
    101          1           0        9.139674    1.514218    2.351716
    102          8           0        9.943733   -0.535945    5.794804
    103          6           0       10.739756    1.757454    3.819413
    104          1           0       11.312789    2.050347    2.930679
    105          1           0       11.170117    0.822461    4.192549
    106          6           0       10.957070    2.876119    4.856565
    107          1           0       10.545110    3.816311    4.474222
    108          1           0       12.026856    3.048183    5.012646
    109          7           0       10.310808    2.623298    6.154358
    110          1           0        9.307958    2.422714    6.097889
    111          7           0       12.194181    2.096534    7.455997
    112          1           0       12.623139    1.391980    8.037692
    113          1           0       12.800100    2.538642    6.782478
    114          7           0       10.052221    1.427143    8.096217
    115          1           0       10.468260    0.932614    8.873215
    116          1           0        9.185221    1.017184    7.660761
    117          6           0       10.864674    2.016481    7.215012
    118          8           0        8.155449    0.753538    6.312093
 ---------------------------------------------------------------------

 SCF Done:  E(RB3LYP) =  -2837.65334121     A.U. after    2 cycles

 Alpha  occ. eigenvalues --  -19.30029 -19.25773 -19.23122 -19.21239 -19.19180
 Alpha  occ. eigenvalues --  -19.18838 -19.17417 -19.15346 -19.13963 -19.12820
 Alpha  occ. eigenvalues --  -19.11467 -14.58851 -14.48548 -14.44622 -14.44570
 Alpha  occ. eigenvalues --  -14.42910 -14.42833 -14.42387 -14.41244 -14.41102
 Alpha  occ. eigenvalues --  -14.39155 -14.38105 -10.42855 -10.40107 -10.39507
 Alpha  occ. eigenvalues --  -10.39474 -10.38218 -10.36209 -10.35703 -10.34347
 Alpha  occ. eigenvalues --  -10.33354 -10.32470 -10.31912 -10.31388 -10.30429
 Alpha  occ. eigenvalues --  -10.30166 -10.29899 -10.29814 -10.29282 -10.28911
 Alpha  occ. eigenvalues --  -10.28184 -10.28023 -10.25712 -10.25520 -10.25206
 Alpha  occ. eigenvalues --  -10.25081 -10.25018 -10.25002 -10.24481 -10.24198
 Alpha  occ. eigenvalues --  -10.24145 -10.23961 -10.23919 -10.23633 -10.23425
 Alpha  occ. eigenvalues --  -10.23265 -10.22442 -10.22283  -1.18736  -1.17093
 Alpha  occ. eigenvalues --   -1.13206  -1.12519  -1.11245  -1.10925  -1.10458
 Alpha  occ. eigenvalues --   -1.08939  -1.08224  -1.07129  -1.05747  -1.05244
 Alpha  occ. eigenvalues --   -1.05191  -1.01205  -0.99555  -0.99068  -0.97919
 Alpha  occ. eigenvalues --   -0.97640  -0.96812  -0.95861  -0.95064  -0.93000
 Alpha  occ. eigenvalues --   -0.92892  -0.90372  -0.89682  -0.86615  -0.85050
 Alpha  occ. eigenvalues --   -0.84680  -0.83881  -0.83537  -0.81709  -0.81639
 Alpha  occ. eigenvalues --   -0.79667  -0.79464  -0.78938  -0.77776  -0.76812
 Alpha  occ. eigenvalues --   -0.76728  -0.73686  -0.73547  -0.72340  -0.72180
 Alpha  occ. eigenvalues --   -0.71600  -0.71198  -0.70199  -0.70125  -0.69587
 Alpha  occ. eigenvalues --   -0.69020  -0.67145  -0.66759  -0.66524  -0.65672
 Alpha  occ. eigenvalues --   -0.65091  -0.65024  -0.64888  -0.64639  -0.63914
 Alpha  occ. eigenvalues --   -0.63559  -0.63217  -0.62619  -0.61599  -0.61413
 Alpha  occ. eigenvalues --   -0.61109  -0.60761  -0.59593  -0.59263  -0.58532
 Alpha  occ. eigenvalues --   -0.58047  -0.57151  -0.57010  -0.56786  -0.56370
 Alpha  occ. eigenvalues --   -0.55982  -0.55519  -0.54964  -0.54559  -0.54368
 Alpha  occ. eigenvalues --   -0.54218  -0.53488  -0.53193  -0.53058  -0.52726
 Alpha  occ. eigenvalues --   -0.52561  -0.52327  -0.51858  -0.51721  -0.51515
 Alpha  occ. eigenvalues --   -0.50967  -0.50881  -0.50607  -0.50321  -0.50043
 Alpha  occ. eigenvalues --   -0.49931  -0.49853  -0.49559  -0.49415  -0.49173
 Alpha  occ. eigenvalues --   -0.48573  -0.48424  -0.48248  -0.47892  -0.47856
 Alpha  occ. eigenvalues --   -0.47710  -0.47318  -0.47220  -0.46942  -0.46776
 Alpha  occ. eigenvalues --   -0.46466  -0.46256  -0.45830  -0.45532  -0.45068
 Alpha  occ. eigenvalues --   -0.44853  -0.44586  -0.44388  -0.44177  -0.43891
 Alpha  occ. eigenvalues --   -0.43753  -0.43664  -0.43306  -0.43068  -0.42877
 Alpha  occ. eigenvalues --   -0.42584  -0.42366  -0.42118  -0.41708  -0.41613
 Alpha  occ. eigenvalues --   -0.41382  -0.41086  -0.40908  -0.40699  -0.40514
 Alpha  occ. eigenvalues --   -0.40504  -0.40294  -0.39906  -0.39723  -0.39093
 Alpha  occ. eigenvalues --   -0.38844  -0.38668  -0.38538  -0.37668  -0.37565
 Alpha  occ. eigenvalues --   -0.37328  -0.35371  -0.34983  -0.34630  -0.33587
 Alpha  occ. eigenvalues --   -0.33042  -0.32574  -0.32291  -0.31957  -0.31396
 Alpha  occ. eigenvalues --   -0.30743  -0.30068  -0.29646  -0.29418  -0.28965
 Alpha  occ. eigenvalues --   -0.28088  -0.27749  -0.27468  -0.26752  -0.25123
 Alpha virt. eigenvalues --   -0.11779  -0.09594  -0.07023  -0.05727  -0.05429
 Alpha virt. eigenvalues --   -0.05230  -0.04612  -0.04375  -0.04030  -0.03861
 Alpha virt. eigenvalues --   -0.03545  -0.01832  -0.01267  -0.00951  -0.00602

 Mulliken charges:
               1
     1  N   -0.749198
     2  H    0.415426
     3  H    0.429374
     4  H    0.425004
     5  C   -0.123338
     6  H    0.214603
     7  C    0.643836
     8  C    0.126806
     9  H    0.171480
    10  O   -0.539634
    11  C   -0.488404
    12  H    0.195880
    13  H    0.183280
    14  H    0.181610
    15  O   -0.648429
    16  H    0.433605
    17  N   -0.604305
    18  H    0.376778
    19  C   -0.082173
    20  H    0.192599
    21  C    0.632617
    22  C   -0.076359
    23  H    0.148054
    24  O   -0.561993
    25  C   -0.283895
    26  H    0.163698
    27  H    0.160180
    28  C   -0.462655
    29  H    0.168633
    30  H    0.134298
    31  H    0.170596
    32  C   -0.461690
    33  H    0.174509
    34  H    0.153724
    35  H    0.139025
    36  N   -0.619235
    37  H    0.380135
    38  C   -0.052337
    39  H    0.187474
    40  C    0.629968
    41  C   -0.448327
    42  H    0.168733
    43  H    0.166188
    44  H    0.176018
    45  O   -0.544891
    46  N   -0.622878
    47  H    0.363053
    48  C   -0.044955
    49  H    0.186827
    50  C    0.609039
    51  C   -0.291299
    52  H    0.199020
    53  H    0.149126
    54  O   -0.530654
    55  C   -0.358000
    56  H    0.163079
    57  H    0.158840
    58  C    0.568815
    59  N   -0.778740
    60  H    0.393702
    61  H    0.334521
    62  O   -0.512973
    63  N   -0.593169
    64  H    0.345682
    65  C   -0.075349
    66  H    0.185706
    67  C    0.645491
    68  C   -0.358872
    69  H    0.157809
    70  H    0.167495
    71  O   -0.582835
    72  C    0.158369
    73  C   -0.191387
    74  H    0.142126
    75  C   -0.193700
    76  H    0.134722
    77  C   -0.159808
    78  H    0.143675
    79  C   -0.181881
    80  H    0.129450
    81  O   -0.652357
    82  H    0.411817
    83  C    0.361088
    84  N   -0.592255
    85  H    0.363566
    86  C   -0.039951
    87  H    0.166732
    88  C    0.622660
    89  C   -0.451133
    90  H    0.163181
    91  H    0.171403
    92  H    0.166304
    93  O   -0.553429
    94  N   -0.622664
    95  H    0.348923
    96  C   -0.002188
    97  H    0.169172
    98  C    0.571226
    99  C   -0.300816
   100  H    0.142560
   101  H    0.177025
   102  O   -0.568985
   103  C   -0.270710
   104  H    0.136446
   105  H    0.188442
   106  C   -0.177695
   107  H    0.189445
   108  H    0.136320
   109  N   -0.587539
   110  H    0.374509
   111  N   -0.758755
   112  H    0.365109
   113  H    0.365471
   114  N   -0.747865
   115  H    0.339317
   116  H    0.411896
   117  C    0.777364
   118  O   -0.650950
 Sum of Mulliken charges =   1.00000

 Dipole moment (field-independent basis, Debye):
    X=            -10.4012    Y=            -12.2737    Z=            -19.2070  Tot=             25.0547
 Quadrupole moment (field-independent basis, Debye-Ang):
   XX=             61.7241   YY=           -208.7504   ZZ=           -108.1720
   XY=            224.2259   XZ=            272.7053   YZ=            159.4636

 Normal termination of Gaussian 16 at Sat Jul  2 15:33:22 2022.
