 Gaussian 16, Revision C.01,
 Gaussian 16:  ES64L-G16RevC.01  3-Jul-2019

 -------------------------------------------------------------------
 # B3LYP/6-31G* guess=read geom=check nosymm integral(ultrafinegrid)
 -------------------------------------------------------------------

 -----------------------------------------------------
 Candidate Structure: Conf:34 Charge calc in gas phase
 -----------------------------------------------------
 Structure from the checkpoint file:  "conf-34.chk"
 Charge =  1 Multiplicity = 1

                          Input orientation:
 ---------------------------------------------------------------------
 Center     Atomic      Atomic             Coordinates (Angstroms)
 Number     Number       Type             X           Y           Z
 ---------------------------------------------------------------------
      1          7           0       -2.962681   -3.848235   -7.476511
      2          1           0       -3.675787   -3.217137   -7.919802
      3          1           0       -2.951990   -4.785812   -7.880294
      4          1           0       -2.037944   -3.383777   -7.573140
      5          6           0       -3.274005   -3.784206   -6.003102
      6          1           0       -3.851494   -4.666905   -5.715374
      7          6           0       -4.127437   -2.489411   -5.899599
      8          6           0       -1.912289   -3.680105   -5.261710
      9          1           0       -2.107981   -3.416524   -4.218273
     10          8           0       -4.498828   -1.956160   -6.952925
     11          6           0       -1.113957   -4.978926   -5.305118
     12          1           0       -1.662537   -5.794154   -4.821824
     13          1           0       -0.868821   -5.279751   -6.331260
     14          1           0       -0.167858   -4.835860   -4.777148
     15          8           0       -1.165441   -2.666566   -5.923139
     16          1           0       -1.481353   -1.795558   -5.589388
     17          7           0       -4.375452   -2.019025   -4.674424
     18          1           0       -3.950550   -2.469982   -3.859828
     19          6           0       -4.759549   -0.620907   -4.477869
     20          1           0       -5.425213   -0.335960   -5.299918
     21          6           0       -3.442198    0.208810   -4.618216
     22          6           0       -5.539293   -0.518701   -3.125178
     23          1           0       -4.896953   -0.975890   -2.358923
     24          8           0       -2.354188   -0.352221   -4.819005
     25          6           0       -6.834243   -1.364051   -3.230068
     26          1           0       -6.625781   -2.286307   -3.783150
     27          1           0       -7.568806   -0.805804   -3.828040
     28          6           0       -5.873374    0.913625   -2.674802
     29          1           0       -6.376730    1.479008   -3.472458
     30          1           0       -5.001454    1.470871   -2.322138
     31          1           0       -6.574670    0.878598   -1.836746
     32          6           0       -7.443415   -1.741200   -1.874833
     33          1           0       -8.344486   -2.347002   -2.016949
     34          1           0       -7.731976   -0.865647   -1.284088
     35          1           0       -6.736813   -2.330361   -1.277817
     36          7           0       -3.523270    1.551688   -4.512686
     37          1           0       -4.410454    1.953822   -4.239896
     38          6           0       -2.332366    2.372126   -4.195684
     39          1           0       -1.534356    2.058536   -4.872488
     40          6           0       -1.993699    2.026463   -2.724180
     41          6           0       -2.645665    3.852722   -4.375601
     42          1           0       -1.745695    4.448066   -4.195714
     43          1           0       -3.404863    4.172413   -3.655235
     44          1           0       -2.995747    4.052681   -5.392764
     45          8           0       -2.711274    2.423139   -1.813900
     46          7           0       -0.932981    1.179008   -2.540517
     47          1           0       -0.540961    0.780174   -3.385745
     48          6           0       -0.864733    0.326762   -1.345959
     49          1           0       -1.601078    0.752370   -0.654794
     50          6           0        0.493715    0.364485   -0.622345
     51          6           0       -1.261639   -1.121948   -1.712582
     52          1           0       -0.377485   -1.661567   -2.074253
     53          1           0       -1.969009   -1.077005   -2.540994
     54          8           0        0.794778   -0.543631    0.155134
     55          6           0       -1.911419   -1.918777   -0.578825
     56          1           0       -1.174937   -2.153331    0.194166
     57          1           0       -2.693123   -1.310594   -0.099472
     58          6           0       -2.603688   -3.172928   -1.101188
     59          7           0       -2.580760   -4.241398   -0.275537
     60          1           0       -2.119478   -4.213854    0.622204
     61          1           0       -3.082469   -5.079920   -0.535918
     62          8           0       -3.180700   -3.227316   -2.199729
     63          7           0        1.265404    1.437409   -0.875518
     64          1           0        0.973630    2.152542   -1.535045
     65          6           0        2.541203    1.690138   -0.224561
     66          1           0        2.454856    1.423284    0.833700
     67          6           0        2.804673    3.196876   -0.394952
     68          6           0        3.676265    0.837066   -0.868174
     69          1           0        3.687004    1.058902   -1.941498
     70          1           0        3.380381   -0.211064   -0.747777
     71          8           0        2.402307    3.781289   -1.406847
     72          6           0        5.042806    1.085629   -0.271186
     73          6           0        5.387712    0.581931    0.993184
     74          1           0        4.681021   -0.047094    1.530719
     75          6           0        5.985859    1.873098   -0.940976
     76          1           0        5.749157    2.273886   -1.923870
     77          6           0        6.614958    0.872261    1.581939
     78          1           0        6.873418    0.490528    2.564304
     79          6           0        7.223017    2.166941   -0.368871
     80          1           0        7.940271    2.784068   -0.907484
     81          8           0        8.723512    1.954426    1.526409
     82          1           0        9.271541    2.481748    0.924639
     83          6           0        7.534283    1.676474    0.901707
     84          7           0        3.489834    3.781683    0.600951
     85          1           0        3.868015    3.243071    1.378330
     86          6           0        4.005384    5.142045    0.546915
     87          1           0        4.418061    5.324518   -0.452745
     88          6           0        5.136409    5.193288    1.596943
     89          6           0        2.914666    6.188040    0.835336
     90          1           0        3.321785    7.202834    0.776856
     91          1           0        2.114184    6.089802    0.097371
     92          1           0        2.497432    6.038425    1.836515
     93          8           0        5.240358    4.303131    2.448366
     94          7           0        5.960157    6.251172    1.519665
     95          1           0        5.830617    7.017169    0.859295
     96          6           0        6.987444    6.545696    2.510512
     97          1           0        6.571932    6.379057    3.510709
     98          6           0        7.323461    8.060262    2.339454
     99          6           0        8.210373    5.590186    2.320588
    100          1           0        8.857144    5.984495    1.523771
    101          1           0        7.790664    4.652766    1.948707
    102          8           0        7.982913    8.587300    3.308036
    103          6           0        9.043545    5.235381    3.580330
    104          1           0        9.246471    4.158211    3.573831
    105          1           0        8.453866    5.423138    4.486552
    106          6           0       10.402309    5.938393    3.722408
    107          1           0       11.039500    5.707656    2.856155
    108          1           0       10.913358    5.563624    4.619947
    109          7           0       10.201261    7.382854    3.814111
    110          1           0        9.196347    7.720642    3.825713
    111          7           0       12.369990    8.117479    3.318792
    112          1           0       12.935576    8.689684    2.709835
    113          1           0       12.754726    7.230321    3.604895
    114          7           0       10.523972    9.515389    3.036550
    115          1           0       11.092338   10.348942    3.059940
    116          1           0        9.487816    9.576510    3.021717
    117          6           0       11.031994    8.325775    3.391784
    118          8           0        6.947163    8.622440    1.304005
 ---------------------------------------------------------------------

 SCF Done:  E(RB3LYP) =  -2837.66115082     A.U. after    2 cycles

 Alpha  occ. eigenvalues --  -19.26212 -19.25219 -19.23489 -19.22552 -19.22043
 Alpha  occ. eigenvalues --  -19.20101 -19.17058 -19.15942 -19.14845 -19.12740
 Alpha  occ. eigenvalues --  -19.11709 -14.57386 -14.47534 -14.46668 -14.45779
 Alpha  occ. eigenvalues --  -14.45108 -14.44434 -14.42212 -14.41617 -14.41251
 Alpha  occ. eigenvalues --  -14.39657 -14.38170 -10.41951 -10.40147 -10.39618
 Alpha  occ. eigenvalues --  -10.39286 -10.38449 -10.37149 -10.36551 -10.34529
 Alpha  occ. eigenvalues --  -10.34240 -10.33036 -10.32683 -10.31811 -10.30651
 Alpha  occ. eigenvalues --  -10.30045 -10.29332 -10.29267 -10.29265 -10.29006
 Alpha  occ. eigenvalues --  -10.28371 -10.27824 -10.27100 -10.26944 -10.26554
 Alpha  occ. eigenvalues --  -10.26237 -10.26207 -10.25104 -10.25056 -10.24046
 Alpha  occ. eigenvalues --  -10.23974 -10.23537 -10.23485 -10.23403 -10.23353
 Alpha  occ. eigenvalues --  -10.22824 -10.22731 -10.21618  -1.17886  -1.14949
 Alpha  occ. eigenvalues --   -1.14253  -1.13141  -1.11972  -1.10973  -1.10366
 Alpha  occ. eigenvalues --   -1.09026  -1.08383  -1.07728  -1.06580  -1.05332
 Alpha  occ. eigenvalues --   -1.04670  -1.02858  -1.00853  -1.00382  -0.98195
 Alpha  occ. eigenvalues --   -0.97612  -0.96722  -0.96321  -0.96223  -0.94598
 Alpha  occ. eigenvalues --   -0.91431  -0.89737  -0.89478  -0.87847  -0.86138
 Alpha  occ. eigenvalues --   -0.84505  -0.84132  -0.83728  -0.81791  -0.80838
 Alpha  occ. eigenvalues --   -0.80523  -0.79412  -0.79089  -0.77770  -0.76795
 Alpha  occ. eigenvalues --   -0.74345  -0.73107  -0.72691  -0.72462  -0.72063
 Alpha  occ. eigenvalues --   -0.71687  -0.71096  -0.70726  -0.70177  -0.69979
 Alpha  occ. eigenvalues --   -0.68939  -0.68335  -0.67424  -0.66554  -0.66300
 Alpha  occ. eigenvalues --   -0.66182  -0.65648  -0.64773  -0.64612  -0.63891
 Alpha  occ. eigenvalues --   -0.63297  -0.62964  -0.62892  -0.62190  -0.61945
 Alpha  occ. eigenvalues --   -0.61446  -0.60532  -0.60467  -0.59914  -0.59157
 Alpha  occ. eigenvalues --   -0.58726  -0.58628  -0.57938  -0.57416  -0.57289
 Alpha  occ. eigenvalues --   -0.57113  -0.56668  -0.56029  -0.55152  -0.54742
 Alpha  occ. eigenvalues --   -0.54521  -0.53934  -0.53649  -0.53262  -0.53136
 Alpha  occ. eigenvalues --   -0.53011  -0.52746  -0.52439  -0.52089  -0.51731
 Alpha  occ. eigenvalues --   -0.51374  -0.51081  -0.50813  -0.50595  -0.50431
 Alpha  occ. eigenvalues --   -0.50152  -0.50029  -0.49832  -0.49565  -0.48986
 Alpha  occ. eigenvalues --   -0.48545  -0.48284  -0.48163  -0.47989  -0.47887
 Alpha  occ. eigenvalues --   -0.47619  -0.47257  -0.47026  -0.46707  -0.46596
 Alpha  occ. eigenvalues --   -0.46445  -0.46275  -0.46203  -0.45529  -0.45457
 Alpha  occ. eigenvalues --   -0.45159  -0.45085  -0.44882  -0.44750  -0.44673
 Alpha  occ. eigenvalues --   -0.44551  -0.44081  -0.44018  -0.43705  -0.43365
 Alpha  occ. eigenvalues --   -0.42917  -0.42708  -0.42446  -0.41997  -0.41727
 Alpha  occ. eigenvalues --   -0.41499  -0.41337  -0.41127  -0.40828  -0.40524
 Alpha  occ. eigenvalues --   -0.40222  -0.39890  -0.39731  -0.39361  -0.39254
 Alpha  occ. eigenvalues --   -0.38723  -0.38154  -0.38025  -0.38007  -0.37580
 Alpha  occ. eigenvalues --   -0.37097  -0.37052  -0.36972  -0.36724  -0.35928
 Alpha  occ. eigenvalues --   -0.35436  -0.34825  -0.33159  -0.32412  -0.31419
 Alpha  occ. eigenvalues --   -0.30610  -0.30119  -0.29642  -0.29492  -0.28968
 Alpha  occ. eigenvalues --   -0.28755  -0.27769  -0.26926  -0.25998  -0.25919
 Alpha virt. eigenvalues --   -0.11321  -0.09835  -0.07920  -0.07732  -0.06561
 Alpha virt. eigenvalues --   -0.04751  -0.04601  -0.04097  -0.02917  -0.02673
 Alpha virt. eigenvalues --   -0.02116  -0.01618  -0.01161  -0.01144  -0.00640

 Mulliken charges:
               1
     1  N   -0.752731
     2  H    0.427691
     3  H    0.406356
     4  H    0.420510
     5  C   -0.122782
     6  H    0.216076
     7  C    0.635307
     8  C    0.061156
     9  H    0.208430
    10  O   -0.537292
    11  C   -0.453709
    12  H    0.165416
    13  H    0.140819
    14  H    0.200760
    15  O   -0.661108
    16  H    0.461728
    17  N   -0.617260
    18  H    0.417334
    19  C   -0.103934
    20  H    0.205433
    21  C    0.655212
    22  C   -0.087699
    23  H    0.148425
    24  O   -0.572895
    25  C   -0.258857
    26  H    0.144757
    27  H    0.146421
    28  C   -0.525688
    29  H    0.146746
    30  H    0.194989
    31  H    0.179553
    32  C   -0.455830
    33  H    0.161841
    34  H    0.159752
    35  H    0.147894
    36  N   -0.583656
    37  H    0.357319
    38  C   -0.053924
    39  H    0.173514
    40  C    0.613344
    41  C   -0.478089
    42  H    0.188731
    43  H    0.184349
    44  H    0.170042
    45  O   -0.506500
    46  N   -0.612156
    47  H    0.344079
    48  C   -0.067711
    49  H    0.209265
    50  C    0.618842
    51  C   -0.288413
    52  H    0.157282
    53  H    0.162534
    54  O   -0.546918
    55  C   -0.375688
    56  H    0.200021
    57  H    0.184646
    58  C    0.616020
    59  N   -0.728886
    60  H    0.363714
    61  H    0.351319
    62  O   -0.563043
    63  N   -0.615776
    64  H    0.359310
    65  C   -0.026016
    66  H    0.172928
    67  C    0.616024
    68  C   -0.354054
    69  H    0.147429
    70  H    0.172092
    71  O   -0.564135
    72  C    0.157863
    73  C   -0.203338
    74  H    0.137215
    75  C   -0.188752
    76  H    0.134149
    77  C   -0.139849
    78  H    0.146393
    79  C   -0.192346
    80  H    0.122497
    81  O   -0.649713
    82  H    0.407147
    83  C    0.362967
    84  N   -0.611821
    85  H    0.365458
    86  C   -0.034149
    87  H    0.169175
    88  C    0.619576
    89  C   -0.450071
    90  H    0.162058
    91  H    0.178047
    92  H    0.159611
    93  O   -0.556183
    94  N   -0.625603
    95  H    0.355124
    96  C   -0.039227
    97  H    0.166123
    98  C    0.591395
    99  C   -0.289828
   100  H    0.130438
   101  H    0.181243
   102  O   -0.642974
   103  C   -0.307129
   104  H    0.166819
   105  H    0.169727
   106  C   -0.145973
   107  H    0.143462
   108  H    0.160694
   109  N   -0.609233
   110  H    0.418775
   111  N   -0.762224
   112  H    0.362190
   113  H    0.367948
   114  N   -0.779990
   115  H    0.347854
   116  H    0.416266
   117  C    0.769190
   118  O   -0.541661
 Sum of Mulliken charges =   1.00000

 Dipole moment (field-independent basis, Debye):
    X=              2.5462    Y=             -8.6761    Z=            -18.4535  Tot=             20.5497
 Quadrupole moment (field-independent basis, Debye-Ang):
   XX=            -20.4609   YY=           -224.0469   ZZ=           -189.9835
   XY=            171.4581   XZ=            115.8070   YZ=             92.1419

 Normal termination of Gaussian 16 at Sat Jul  2 15:33:52 2022.
