 Gaussian 16, Revision C.01,
 Gaussian 16:  ES64L-G16RevC.01  3-Jul-2019

 -------------------------------------------------------------------
 # B3LYP/6-31G* guess=read geom=check nosymm integral(ultrafinegrid)
 -------------------------------------------------------------------

 ------------------------------------------------------
 Candidate Structure: Conf:578 Charge calc in gas phase
 ------------------------------------------------------
 Structure from the checkpoint file:  "conf-578.chk"
 Charge =  1 Multiplicity = 1

                          Input orientation:
 ---------------------------------------------------------------------
 Center     Atomic      Atomic             Coordinates (Angstroms)
 Number     Number       Type             X           Y           Z
 ---------------------------------------------------------------------
      1          7           0       -1.264305   -2.041968    3.420441
      2          1           0       -0.843334   -2.886927    3.048283
      3          1           0       -0.561208   -1.323946    3.567492
      4          6           0       -2.423440   -1.567098    2.677460
      5          1           0       -3.059968   -2.440683    2.484870
      6          6           0       -2.177274   -0.941815    1.282594
      7          6           0       -3.265828   -0.604910    3.555544
      8          1           0       -4.166426   -0.337625    2.996891
      9          1           0       -3.577597   -1.182423    4.431075
     10          8           0       -3.064498   -0.364258    0.665510
     11          6           0       -2.559338    0.648137    4.002333
     12          6           0       -1.723446    0.776041    5.076909
     13          1           0       -1.416668    0.032133    5.799968
     14          6           0       -2.671241    1.970444    3.409213
     15          6           0       -1.882445    2.852361    4.186742
     16          6           0       -3.387145    2.482365    2.313599
     17          1           0       -3.972014    1.820802    1.683025
     18          7           0       -1.225254    2.087402    5.162159
     19          1           0       -0.962309    2.487808    6.055491
     20          6           0       -2.544248    4.708455    2.852326
     21          1           0       -2.527644    5.773073    2.635561
     22          6           0       -1.801787    4.220710    3.925037
     23          1           0       -1.187790    4.879485    4.531928
     24          6           0       -3.321694    3.847042    2.052776
     25          1           0       -3.889905    4.260234    1.223678
     26          7           0       -0.903034   -1.080784    0.779242
     27          1           0       -0.278129   -1.697742    1.281302
     28          6           0       -0.540116   -0.636591   -0.558464
     29          1           0       -1.470247   -0.266538   -1.001819
     30          6           0        0.413205    0.577968   -0.545612
     31          6           0        0.029892   -1.770133   -1.453447
     32          1           0        0.256467   -1.286509   -2.411574
     33          8           0        0.828091    1.051517   -1.618424
     34          6           0       -1.001139   -2.886778   -1.708736
     35          1           0       -0.509505   -3.648741   -2.327414
     36          1           0       -1.243095   -3.384107   -0.759055
     37          6           0        1.343098   -2.345204   -0.897838
     38          1           0        1.194797   -2.868082    0.056797
     39          1           0        1.759952   -3.080315   -1.593830
     40          1           0        2.101617   -1.568535   -0.747524
     41          6           0       -2.295720   -2.438834   -2.397678
     42          1           0       -2.914087   -3.306883   -2.649307
     43          1           0       -2.083426   -1.905478   -3.333070
     44          1           0       -2.899431   -1.783580   -1.760662
     45          7           0        0.711989    1.058947    0.671180
     46          1           0        0.267282    0.584567    1.448785
     47          6           0        1.618904    2.148809    1.044634
     48          1           0        2.646026    1.752938    1.083651
     49          6           0        1.273668    2.574333    2.484379
     50          6           0        1.624113    3.362973    0.101715
     51          1           0        2.216088    4.137831    0.600234
     52          1           0        2.148020    3.078529   -0.813241
     53          8           0        1.396645    3.700229    2.904537
     54          6           0        0.229310    3.900664   -0.230581
     55          1           0       -0.285826    4.216144    0.684609
     56          1           0       -0.390450    3.113255   -0.666315
     57          6           0        0.235219    5.120254   -1.158123
     58          1           0       -0.786437    5.347033   -1.482284
     59          1           0        0.609402    5.993826   -0.618289
     60          7           0        1.100117    5.044817   -2.365951
     61          1           0        1.776244    5.790110   -2.467415
     62          7           0        0.312974    3.100396   -3.394021
     63          1           0        0.072413    2.641132   -4.262895
     64          1           0        0.425478    2.466983   -2.584186
     65          7           0        1.376929    4.742480   -4.640889
     66          1           0        1.549623    5.725689   -4.795488
     67          1           0        1.536423    4.115445   -5.416847
     68          6           0        0.925304    4.283761   -3.455827
     69          8           0        0.839024    1.529703    3.214380
     70          1           0        0.428512    1.854535    4.054950
 ---------------------------------------------------------------------

 SCF Done:  E(RB3LYP) =  -1582.16072523     A.U. after    1 cycles

 Alpha  occ. eigenvalues --  -19.28757 -19.23658 -19.22527 -19.20121 -14.52623
 Alpha  occ. eigenvalues --  -14.52185 -14.50508 -14.46680 -14.46226 -14.45348
 Alpha  occ. eigenvalues --  -14.40635 -10.48260 -10.41917 -10.39555 -10.37083
 Alpha  occ. eigenvalues --  -10.35698 -10.34824 -10.32254 -10.30887 -10.29717
 Alpha  occ. eigenvalues --  -10.29690 -10.29625 -10.29374 -10.28028 -10.26566
 Alpha  occ. eigenvalues --  -10.26520 -10.26386 -10.26262 -10.26256 -10.26107
 Alpha  occ. eigenvalues --  -10.25922 -10.25692 -10.25610 -10.24373  -1.19862
 Alpha  occ. eigenvalues --   -1.16554  -1.13971  -1.11990  -1.11250  -1.05903
 Alpha  occ. eigenvalues --   -1.05460  -1.04484  -1.03753  -1.01356  -0.97414
 Alpha  occ. eigenvalues --   -0.91450  -0.91411  -0.89207  -0.87523  -0.87111
 Alpha  occ. eigenvalues --   -0.82496  -0.81877  -0.81021  -0.80895  -0.79553
 Alpha  occ. eigenvalues --   -0.78704  -0.77903  -0.74290  -0.73255  -0.72815
 Alpha  occ. eigenvalues --   -0.71432  -0.70378  -0.69513  -0.69137  -0.67651
 Alpha  occ. eigenvalues --   -0.67042  -0.66667  -0.65785  -0.65240  -0.64776
 Alpha  occ. eigenvalues --   -0.64282  -0.62725  -0.60905  -0.60747  -0.60249
 Alpha  occ. eigenvalues --   -0.59402  -0.59224  -0.58355  -0.57870  -0.57129
 Alpha  occ. eigenvalues --   -0.55726  -0.55414  -0.55218  -0.54872  -0.54445
 Alpha  occ. eigenvalues --   -0.53127  -0.52782  -0.52363  -0.52062  -0.51725
 Alpha  occ. eigenvalues --   -0.50849  -0.50525  -0.50338  -0.49645  -0.49503
 Alpha  occ. eigenvalues --   -0.49192  -0.48729  -0.48671  -0.48428  -0.47665
 Alpha  occ. eigenvalues --   -0.47047  -0.46416  -0.45636  -0.45359  -0.44815
 Alpha  occ. eigenvalues --   -0.44608  -0.44445  -0.44058  -0.43229  -0.43052
 Alpha  occ. eigenvalues --   -0.42398  -0.41646  -0.41182  -0.40966  -0.40736
 Alpha  occ. eigenvalues --   -0.40529  -0.40313  -0.40261  -0.37964  -0.37679
 Alpha  occ. eigenvalues --   -0.36436  -0.36031  -0.35068  -0.33790  -0.30924
 Alpha  occ. eigenvalues --   -0.30403  -0.28476
 Alpha virt. eigenvalues --   -0.13565  -0.09534  -0.08938  -0.08623  -0.08036
 Alpha virt. eigenvalues --   -0.06517  -0.05963  -0.04868  -0.03659  -0.03434
 Alpha virt. eigenvalues --   -0.02318  -0.00980  -0.00486   0.00360   0.01117

 Mulliken charges:
               1
     1  N   -0.734324
     2  H    0.314478
     3  H    0.309480
     4  C   -0.074399
     5  H    0.183741
     6  C    0.613147
     7  C   -0.331013
     8  H    0.180430
     9  H    0.171556
    10  O   -0.515994
    11  C    0.076742
    12  C   -0.046728
    13  H    0.174887
    14  C    0.090718
    15  C    0.243169
    16  C   -0.208764
    17  H    0.170684
    18  N   -0.715249
    19  H    0.350402
    20  C   -0.159348
    21  H    0.133230
    22  C   -0.157587
    23  H    0.145208
    24  C   -0.147829
    25  H    0.129961
    26  N   -0.656290
    27  H    0.318655
    28  C   -0.043443
    29  H    0.209790
    30  C    0.638799
    31  C   -0.084625
    32  H    0.150937
    33  O   -0.600263
    34  C   -0.250546
    35  H    0.148537
    36  H    0.129004
    37  C   -0.474599
    38  H    0.134032
    39  H    0.171649
    40  H    0.153866
    41  C   -0.470335
    42  H    0.161589
    43  H    0.137778
    44  H    0.173616
    45  N   -0.634054
    46  H    0.383042
    47  C   -0.023113
    48  H    0.199612
    49  C    0.608007
    50  C   -0.273569
    51  H    0.174115
    52  H    0.156426
    53  O   -0.455341
    54  C   -0.304459
    55  H    0.197784
    56  H    0.164846
    57  C   -0.157044
    58  H    0.193630
    59  H    0.186372
    60  N   -0.596121
    61  H    0.363021
    62  N   -0.765457
    63  H    0.365989
    64  H    0.451213
    65  N   -0.753475
    66  H    0.379276
    67  H    0.380817
    68  C    0.771601
    69  O   -0.611580
    70  H    0.453710
 Sum of Mulliken charges =   1.00000

 Dipole moment (field-independent basis, Debye):
    X=              4.3884    Y=             14.0681    Z=             -7.1162  Tot=             16.3648
 Quadrupole moment (field-independent basis, Debye-Ang):
   XX=           -197.9803   YY=           -101.7761   ZZ=           -108.4645
   XY=             19.8528   XZ=            -17.1758   YZ=            -52.3792

 Normal termination of Gaussian 16 at Thu May 26 00:39:57 2022.
