 Gaussian 16, Revision C.01,
 Gaussian 16:  ES64L-G16RevC.01  3-Jul-2019

 -------------------------------------------------------------------
 # B3LYP/6-31G* guess=read geom=check nosymm integral(ultrafinegrid)
 -------------------------------------------------------------------

 ------------------------------------------------------
 Candidate Structure: Conf:156 Charge calc in gas phase
 ------------------------------------------------------
 Structure from the checkpoint file:  "conf-156.chk"
 Charge =  1 Multiplicity = 1

                          Input orientation:
 ---------------------------------------------------------------------
 Center     Atomic      Atomic             Coordinates (Angstroms)
 Number     Number       Type             X           Y           Z
 ---------------------------------------------------------------------
      1          7           0       -1.284173   -4.021881    1.606919
      2          1           0       -2.143866   -4.170618    1.077699
      3          1           0       -0.535133   -4.385260    1.012142
      4          6           0       -1.046723   -2.580719    1.754293
      5          1           0       -1.954697   -2.126020    2.170809
      6          6           0       -0.656661   -1.924701    0.413033
      7          6           0        0.135607   -2.329502    2.715367
      8          1           0        1.022034   -2.816229    2.284168
      9          1           0        0.380545   -1.262149    2.741373
     10          8           0        0.216384   -2.441905   -0.276124
     11          6           0       -0.055296   -2.830841    4.115428
     12          6           0       -0.708119   -3.940689    4.500608
     13          1           0       -1.229006   -4.693929    3.928793
     14          6           0        0.494204   -2.158850    5.311108
     15          6           0        0.156049   -2.901308    6.443598
     16          6           0        1.232488   -0.983142    5.469083
     17          1           0        1.505687   -0.363337    4.612596
     18          7           0       -0.631036   -4.080508    5.992683
     19          1           0       -1.568430   -4.096989    6.415842
     20          6           0        1.241643   -1.388984    7.885618
     21          1           0        1.541060   -1.073670    8.880026
     22          6           0        0.497471   -2.568205    7.738704
     23          1           0        0.215372   -3.169822    8.597734
     24          6           0        1.595470   -0.619244    6.771645
     25          1           0        2.167058    0.291655    6.921111
     26          7           0       -1.273897   -0.755000    0.098739
     27          1           0       -2.058723   -0.458133    0.661342
     28          6           0       -0.924413    0.044526   -1.089002
     29          1           0       -1.517973    0.963012   -0.988147
     30          6           0        0.572272    0.468009   -1.003571
     31          6           0       -1.275083   -0.607188   -2.452549
     32          1           0       -0.454750   -1.285855   -2.707221
     33          8           0        1.312853    0.485505   -1.980259
     34          6           0       -1.352976    0.492186   -3.537611
     35          1           0       -2.266642    1.085636   -3.376050
     36          1           0       -0.503621    1.169605   -3.413429
     37          6           0       -2.582435   -1.409049   -2.379680
     38          1           0       -3.422862   -0.781407   -2.052409
     39          1           0       -2.839798   -1.811299   -3.363891
     40          1           0       -2.505078   -2.259068   -1.694660
     41          6           0       -1.334059   -0.044298   -4.973179
     42          1           0       -1.364120    0.780869   -5.693349
     43          1           0       -2.187841   -0.696127   -5.189422
     44          1           0       -0.417795   -0.615888   -5.161202
     45          7           0        0.969009    0.880016    0.228868
     46          1           0        0.394593    0.708786    1.046302
     47          6           0        2.366399    1.122708    0.545972
     48          1           0        2.966671    0.341245    0.060255
     49          6           0        2.536781    0.942910    2.084729
     50          6           0        2.840218    2.502669   -0.016516
     51          1           0        2.133802    2.753498   -0.809502
     52          1           0        2.729893    3.278556    0.752528
     53          8           0        1.529133    0.630712    2.757111
     54          6           0        4.266631    2.538780   -0.630790
     55          1           0        4.224604    2.971139   -1.635844
     56          1           0        4.646266    1.518253   -0.763218
     57          6           0        5.302176    3.348266    0.161125
     58          1           0        6.276970    3.296430   -0.342067
     59          1           0        5.004466    4.405148    0.212310
     60          7           0        5.394612    2.800033    1.514603
     61          1           0        4.769072    1.977274    1.737674
     62          7           0        6.664450    4.481128    2.532483
     63          1           0        6.728711    5.123017    3.308746
     64          1           0        6.992695    4.809449    1.636673
     65          7           0        5.405667    2.985731    3.802622
     66          1           0        4.731951    2.211772    3.787166
     67          1           0        5.999137    3.100901    4.611536
     68          6           0        5.825061    3.422907    2.595942
     69          8           0        3.714059    1.102606    2.544391
     70          1           0       -0.175588   -4.965056    6.254188
 ---------------------------------------------------------------------

 SCF Done:  E(RB3LYP) =  -1582.11124019     A.U. after    1 cycles

 Alpha  occ. eigenvalues --  -19.19089 -19.17185 -19.16673 -19.16417 -14.60595
 Alpha  occ. eigenvalues --  -14.48085 -14.45992 -14.44966 -14.44103 -14.40984
 Alpha  occ. eigenvalues --  -14.40093 -10.42894 -10.36724 -10.35987 -10.35232
 Alpha  occ. eigenvalues --  -10.34696 -10.33833 -10.33696 -10.32723 -10.32525
 Alpha  occ. eigenvalues --  -10.31794 -10.31578 -10.31228 -10.30518 -10.29978
 Alpha  occ. eigenvalues --  -10.29644 -10.28777 -10.28243 -10.26394 -10.25206
 Alpha  occ. eigenvalues --  -10.23854 -10.22677 -10.22130 -10.21223  -1.15832
 Alpha  occ. eigenvalues --   -1.11690  -1.11130  -1.09985  -1.08188  -1.01801
 Alpha  occ. eigenvalues --   -1.00496  -1.00075  -0.99743  -0.98606  -0.97916
 Alpha  occ. eigenvalues --   -0.96653  -0.93823  -0.87076  -0.86750  -0.86234
 Alpha  occ. eigenvalues --   -0.85742  -0.83776  -0.81287  -0.78839  -0.76277
 Alpha  occ. eigenvalues --   -0.75497  -0.74684  -0.73913  -0.72957  -0.72896
 Alpha  occ. eigenvalues --   -0.72242  -0.68784  -0.68707  -0.67765  -0.67164
 Alpha  occ. eigenvalues --   -0.66543  -0.66039  -0.65085  -0.62983  -0.61870
 Alpha  occ. eigenvalues --   -0.61341  -0.60705  -0.60474  -0.59959  -0.59763
 Alpha  occ. eigenvalues --   -0.59189  -0.58534  -0.56589  -0.56176  -0.55716
 Alpha  occ. eigenvalues --   -0.55604  -0.54600  -0.54137  -0.53491  -0.53307
 Alpha  occ. eigenvalues --   -0.51945  -0.51170  -0.50999  -0.50778  -0.50070
 Alpha  occ. eigenvalues --   -0.49733  -0.49423  -0.48807  -0.48400  -0.47930
 Alpha  occ. eigenvalues --   -0.47670  -0.47574  -0.46725  -0.46431  -0.45879
 Alpha  occ. eigenvalues --   -0.45601  -0.45157  -0.44504  -0.44111  -0.43084
 Alpha  occ. eigenvalues --   -0.42562  -0.42001  -0.41490  -0.41385  -0.41017
 Alpha  occ. eigenvalues --   -0.40129  -0.40003  -0.38689  -0.38486  -0.37612
 Alpha  occ. eigenvalues --   -0.37021  -0.36580  -0.35800  -0.35252  -0.35161
 Alpha  occ. eigenvalues --   -0.33868  -0.32689  -0.32024  -0.31799  -0.31079
 Alpha  occ. eigenvalues --   -0.30039  -0.29373
 Alpha virt. eigenvalues --   -0.15784  -0.12978  -0.09657  -0.07909  -0.07770
 Alpha virt. eigenvalues --   -0.05538  -0.03886  -0.03828  -0.03280  -0.02312
 Alpha virt. eigenvalues --   -0.02018  -0.01085  -0.00003   0.00844   0.02029

 Mulliken charges:
               1
     1  N   -0.724635
     2  H    0.317164
     3  H    0.329448
     4  C   -0.082984
     5  H    0.133607
     6  C    0.626986
     7  C   -0.387354
     8  H    0.204989
     9  H    0.230355
    10  O   -0.521568
    11  C    0.175157
    12  C   -0.107832
    13  H    0.237391
    14  C    0.111069
    15  C    0.160307
    16  C   -0.195731
    17  H    0.246775
    18  N   -0.730994
    19  H    0.419338
    20  C   -0.138005
    21  H    0.172598
    22  C   -0.158773
    23  H    0.169373
    24  C   -0.131968
    25  H    0.167571
    26  N   -0.635212
    27  H    0.331917
    28  C   -0.049142
    29  H    0.158225
    30  C    0.630883
    31  C   -0.060447
    32  H    0.171364
    33  O   -0.529345
    34  C   -0.265971
    35  H    0.116694
    36  H    0.163383
    37  C   -0.458595
    38  H    0.126929
    39  H    0.162308
    40  H    0.131945
    41  C   -0.452380
    42  H    0.147773
    43  H    0.142980
    44  H    0.156855
    45  N   -0.621587
    46  H    0.339684
    47  C   -0.045500
    48  H    0.177988
    49  C    0.599757
    50  C   -0.282156
    51  H    0.183307
    52  H    0.137982
    53  O   -0.557809
    54  C   -0.302981
    55  H    0.171800
    56  H    0.172184
    57  C   -0.153812
    58  H    0.167277
    59  H    0.160096
    60  N   -0.610841
    61  H    0.425637
    62  N   -0.759016
    63  H    0.368246
    64  H    0.375976
    65  N   -0.781067
    66  H    0.402514
    67  H    0.352232
    68  C    0.769239
    69  O   -0.622684
    70  H    0.421086
 Sum of Mulliken charges =   1.00000

 Dipole moment (field-independent basis, Debye):
    X=              7.6247    Y=             -2.1440    Z=             25.5989  Tot=             26.7962
 Quadrupole moment (field-independent basis, Debye-Ang):
   XX=            -99.3987   YY=            -96.7662   ZZ=            -43.0404
   XY=             80.9073   XZ=             27.9880   YZ=            -55.9459

 Normal termination of Gaussian 16 at Thu May 26 00:39:51 2022.
