 Gaussian 16, Revision C.01,
 Gaussian 16:  ES64L-G16RevC.01  3-Jul-2019

 -------------------------------------------------------------------
 # B3LYP/6-31G* guess=read geom=check nosymm integral(ultrafinegrid)
 -------------------------------------------------------------------

 ------------------------------------------------------
 Candidate Structure: Conf:217 Charge calc in gas phase
 ------------------------------------------------------
 Structure from the checkpoint file:  "conf-217.chk"
 Charge =  1 Multiplicity = 1

                          Input orientation:
 ---------------------------------------------------------------------
 Center     Atomic      Atomic             Coordinates (Angstroms)
 Number     Number       Type             X           Y           Z
 ---------------------------------------------------------------------
      1          7           0       -2.347788   -4.349802    0.521656
      2          1           0       -3.079016   -3.797319    0.079308
      3          1           0       -1.837278   -4.826155   -0.221039
      4          6           0       -1.429461   -3.521648    1.321984
      5          1           0       -2.033876   -3.003519    2.076608
      6          6           0       -0.726076   -2.469437    0.440353
      7          6           0       -0.427535   -4.465263    2.017558
      8          1           0       -1.021117   -5.320666    2.361841
      9          1           0        0.270050   -4.836897    1.258972
     10          8           0        0.404350   -2.607560   -0.017597
     11          6           0        0.347541   -3.900756    3.173227
     12          6           0        1.697738   -3.745581    3.243593
     13          1           0        2.449473   -3.950548    2.493293
     14          6           0       -0.186016   -3.494364    4.464422
     15          6           0        0.906991   -3.086686    5.261771
     16          6           0       -1.475533   -3.474652    5.016734
     17          1           0       -2.335924   -3.793880    4.434534
     18          7           0        2.074947   -3.166948    4.476163
     19          1           0        2.942319   -3.464304    4.912885
     20          6           0       -0.530709   -2.671320    7.113353
     21          1           0       -0.683163   -2.362198    8.143254
     22          6           0        0.758338   -2.674384    6.583902
     23          1           0        1.612048   -2.370891    7.184149
     24          6           0       -1.635025   -3.064620    6.337118
     25          1           0       -2.626761   -3.054180    6.780026
     26          7           0       -1.484403   -1.361941    0.126287
     27          1           0       -2.438969   -1.322522    0.457390
     28          6           0       -1.098745   -0.424184   -0.935801
     29          1           0       -1.754168    0.448146   -0.803410
     30          6           0        0.346003    0.061987   -0.659256
     31          6           0       -1.274539   -0.942226   -2.388393
     32          1           0       -0.406971   -1.572616   -2.613585
     33          8           0        1.214587    0.120153   -1.538447
     34          6           0       -1.289024    0.252842   -3.370504
     35          1           0       -2.263748    0.757401   -3.299492
     36          1           0       -0.538197    0.988578   -3.062301
     37          6           0       -2.550628   -1.783407   -2.535382
     38          1           0       -3.443552   -1.212907   -2.245886
     39          1           0       -2.688419   -2.097898   -3.574111
     40          1           0       -2.512708   -2.691027   -1.926399
     41          6           0       -1.020260   -0.136710   -4.828578
     42          1           0       -1.037313    0.745344   -5.478843
     43          1           0       -1.767751   -0.836861   -5.215412
     44          1           0       -0.038771   -0.617399   -4.931696
     45          7           0        0.563296    0.467238    0.612711
     46          1           0       -0.168659    0.240998    1.285297
     47          6           0        1.887500    0.408441    1.225855
     48          1           0        2.525606   -0.225656    0.602957
     49          6           0        1.687252   -0.318352    2.560493
     50          6           0        2.541237    1.791010    1.432249
     51          1           0        1.876889    2.398778    2.056958
     52          1           0        3.471717    1.653500    1.997326
     53          8           0        2.827500   -0.789064    3.061935
     54          6           0        2.819625    2.549275    0.124608
     55          1           0        3.113924    3.578021    0.368798
     56          1           0        1.899989    2.612780   -0.467732
     57          6           0        3.926737    1.900133   -0.717068
     58          1           0        4.867260    1.863933   -0.157142
     59          1           0        3.670966    0.874287   -0.986701
     60          7           0        4.203797    2.631342   -1.964736
     61          1           0        4.692575    3.513412   -1.877751
     62          7           0        2.824153    1.380900   -3.370084
     63          1           0        2.646637    1.032948   -4.301924
     64          1           0        2.269476    0.960821   -2.608015
     65          7           0        4.217954    3.015852   -4.242324
     66          1           0        5.106453    3.493079   -4.194182
     67          1           0        3.795739    2.922595   -5.154494
     68          6           0        3.737551    2.328107   -3.182836
     69          8           0        0.593698   -0.452489    3.071715
     70          1           0        2.586601   -1.417149    3.796483
 ---------------------------------------------------------------------

 SCF Done:  E(RB3LYP) =  -1582.16233442     A.U. after    1 cycles

 Alpha  occ. eigenvalues --  -19.27290 -19.23087 -19.22662 -19.20453 -14.52286
 Alpha  occ. eigenvalues --  -14.52186 -14.50609 -14.45324 -14.45286 -14.44876
 Alpha  occ. eigenvalues --  -14.40068 -10.48290 -10.40747 -10.39741 -10.37020
 Alpha  occ. eigenvalues --  -10.35495 -10.33474 -10.33233 -10.30385 -10.30356
 Alpha  occ. eigenvalues --  -10.29711 -10.28375 -10.28350 -10.27695 -10.26646
 Alpha  occ. eigenvalues --  -10.25841 -10.25822 -10.25723 -10.25524 -10.25153
 Alpha  occ. eigenvalues --  -10.24993 -10.24753 -10.24562 -10.24202  -1.18875
 Alpha  occ. eigenvalues --   -1.16633  -1.14446  -1.12087  -1.10198  -1.06083
 Alpha  occ. eigenvalues --   -1.04439  -1.03981  -1.02947  -1.00987  -0.96859
 Alpha  occ. eigenvalues --   -0.91624  -0.90133  -0.89478  -0.86671  -0.86482
 Alpha  occ. eigenvalues --   -0.82870  -0.81095  -0.80751  -0.79639  -0.79120
 Alpha  occ. eigenvalues --   -0.77739  -0.77495  -0.74084  -0.73038  -0.72235
 Alpha  occ. eigenvalues --   -0.71651  -0.70447  -0.69237  -0.68201  -0.67642
 Alpha  occ. eigenvalues --   -0.67491  -0.65701  -0.65464  -0.64812  -0.64621
 Alpha  occ. eigenvalues --   -0.62791  -0.61134  -0.60982  -0.60377  -0.59551
 Alpha  occ. eigenvalues --   -0.58493  -0.58293  -0.57859  -0.56845  -0.56331
 Alpha  occ. eigenvalues --   -0.55900  -0.55190  -0.54592  -0.54378  -0.54135
 Alpha  occ. eigenvalues --   -0.53494  -0.53157  -0.52409  -0.51864  -0.51769
 Alpha  occ. eigenvalues --   -0.50456  -0.50273  -0.50082  -0.49412  -0.49323
 Alpha  occ. eigenvalues --   -0.49170  -0.48135  -0.47719  -0.47430  -0.46786
 Alpha  occ. eigenvalues --   -0.46323  -0.45719  -0.45655  -0.45283  -0.44918
 Alpha  occ. eigenvalues --   -0.44425  -0.44295  -0.44020  -0.43063  -0.42784
 Alpha  occ. eigenvalues --   -0.42214  -0.41294  -0.41209  -0.40755  -0.40462
 Alpha  occ. eigenvalues --   -0.40266  -0.39655  -0.39247  -0.37664  -0.36535
 Alpha  occ. eigenvalues --   -0.36085  -0.35606  -0.34243  -0.33725  -0.30776
 Alpha  occ. eigenvalues --   -0.28997  -0.27394
 Alpha virt. eigenvalues --   -0.12219  -0.09268  -0.08581  -0.07958  -0.07248
 Alpha virt. eigenvalues --   -0.06624  -0.04827  -0.04518  -0.04096  -0.02438
 Alpha virt. eigenvalues --   -0.01407  -0.00906   0.00043   0.00897   0.01029

 Mulliken charges:
               1
     1  N   -0.705331
     2  H    0.307489
     3  H    0.316328
     4  C   -0.092163
     5  H    0.159292
     6  C    0.637366
     7  C   -0.348388
     8  H    0.179521
     9  H    0.161409
    10  O   -0.530150
    11  C    0.119422
    12  C   -0.054525
    13  H    0.161959
    14  C    0.120131
    15  C    0.267293
    16  C   -0.217859
    17  H    0.136593
    18  N   -0.732093
    19  H    0.346723
    20  C   -0.146988
    21  H    0.140496
    22  C   -0.167172
    23  H    0.134020
    24  C   -0.132569
    25  H    0.137213
    26  N   -0.637974
    27  H    0.336014
    28  C   -0.053530
    29  H    0.168587
    30  C    0.646204
    31  C   -0.059683
    32  H    0.162177
    33  O   -0.581786
    34  C   -0.262890
    35  H    0.138949
    36  H    0.125034
    37  C   -0.472404
    38  H    0.140116
    39  H    0.167051
    40  H    0.140200
    41  C   -0.454987
    42  H    0.147151
    43  H    0.165478
    44  H    0.133683
    45  N   -0.586414
    46  H    0.370587
    47  C   -0.056735
    48  H    0.195445
    49  C    0.607326
    50  C   -0.276616
    51  H    0.172831
    52  H    0.171089
    53  O   -0.596810
    54  C   -0.267600
    55  H    0.154866
    56  H    0.166404
    57  C   -0.173254
    58  H    0.187378
    59  H    0.200479
    60  N   -0.600481
    61  H    0.360049
    62  N   -0.793989
    63  H    0.370340
    64  H    0.461594
    65  N   -0.766478
    66  H    0.379149
    67  H    0.379699
    68  C    0.812916
    69  O   -0.470191
    70  H    0.453005
 Sum of Mulliken charges =   1.00000

 Dipole moment (field-independent basis, Debye):
    X=             12.4993    Y=              7.0290    Z=             -8.1856  Tot=             16.5119
 Quadrupole moment (field-independent basis, Debye-Ang):
   XX=           -117.9154   YY=           -164.0524   ZZ=           -123.4642
   XY=             39.6329   XZ=            -28.3272   YZ=            -36.6224

 Normal termination of Gaussian 16 at Thu May 26 00:39:54 2022.
