 Gaussian 16, Revision C.01,
 Gaussian 16:  ES64L-G16RevC.01  3-Jul-2019

 -------------------------------------------------------------------
 # B3LYP/6-31G* guess=read geom=check nosymm integral(ultrafinegrid)
 -------------------------------------------------------------------

 ------------------------------------------------------
 Candidate Structure: Conf:605 Charge calc in gas phase
 ------------------------------------------------------
 Structure from the checkpoint file:  "conf-605.chk"
 Charge =  1 Multiplicity = 1

                          Input orientation:
 ---------------------------------------------------------------------
 Center     Atomic      Atomic             Coordinates (Angstroms)
 Number     Number       Type             X           Y           Z
 ---------------------------------------------------------------------
      1          7           0       -1.973554   -1.900499    2.612674
      2          1           0       -2.105720   -2.816541    2.183225
      3          1           0       -2.420435   -1.948185    3.526325
      4          6           0       -0.538373   -1.612781    2.764604
      5          1           0       -0.469280   -0.734195    3.419277
      6          6           0        0.014207   -1.139285    1.409022
      7          6           0        0.318737   -2.740998    3.386746
      8          1           0       -0.283303   -3.178416    4.194865
      9          1           0        0.472649   -3.534991    2.648325
     10          8           0        1.146933   -1.402263    1.012878
     11          6           0        1.647797   -2.289098    3.940536
     12          6           0        1.866803   -1.373828    4.929228
     13          1           0        1.163678   -0.777784    5.495134
     14          6           0        2.954323   -2.765330    3.522794
     15          6           0        3.922517   -2.094841    4.304787
     16          6           0        3.383923   -3.700070    2.568340
     17          1           0        2.666951   -4.214055    1.934852
     18          7           0        3.246797   -1.165342    5.110765
     19          1           0        3.525833    0.408689    3.846032
     20          6           0        5.687558   -3.298999    3.256760
     21          1           0        6.743050   -3.531527    3.148344
     22          6           0        5.289812   -2.347699    4.192091
     23          1           0        6.016937   -1.828206    4.810724
     24          6           0        4.744166   -3.961461    2.448555
     25          1           0        5.088078   -4.691919    1.721660
     26          7           0       -0.836276   -0.326604    0.710953
     27          1           0       -1.801128   -0.341321    1.026679
     28          6           0       -0.510165    0.168099   -0.626862
     29          1           0       -1.179850    1.023757   -0.797370
     30          6           0        0.933351    0.728843   -0.599490
     31          6           0       -0.724614   -0.843094   -1.787430
     32          1           0        0.154847   -1.496987   -1.813007
     33          8           0        1.749585    0.504476   -1.501738
     34          6           0       -0.821078   -0.085934   -3.132575
     35          1           0       -1.804380    0.403356   -3.192586
     36          1           0       -0.075603    0.716378   -3.153588
     37          6           0       -1.975291   -1.703700   -1.555578
     38          1           0       -2.877457   -1.084643   -1.462466
     39          1           0       -2.133014   -2.388058   -2.394475
     40          1           0       -1.890902   -2.312699   -0.651349
     41          6           0       -0.616482   -0.974869   -4.364736
     42          1           0       -0.688205   -0.387497   -5.287402
     43          1           0       -1.365242   -1.770843   -4.430556
     44          1           0        0.370369   -1.454785   -4.342946
     45          7           0        1.222529    1.527685    0.458620
     46          1           0        0.527403    1.547652    1.202799
     47          6           0        2.584150    1.597924    0.989313
     48          1           0        3.174738    0.812418    0.511965
     49          6           0        2.489588    1.235189    2.476158
     50          6           0        3.247560    2.976904    0.786506
     51          1           0        2.620380    3.737868    1.263697
     52          1           0        4.209820    2.983263    1.313985
     53          8           0        3.660695    0.819755    2.956661
     54          6           0        3.447534    3.352236   -0.692002
     55          1           0        3.755982    4.403556   -0.756965
     56          1           0        2.493989    3.264303   -1.224394
     57          6           0        4.501347    2.477474   -1.386152
     58          1           0        5.482170    2.605542   -0.915511
     59          1           0        4.247020    1.419338   -1.314328
     60          7           0        4.664101    2.796470   -2.813573
     61          1           0        5.101880    3.680653   -3.039612
     62          7           0        3.292967    1.110005   -3.660910
     63          1           0        3.096057    0.474975   -4.421890
     64          1           0        2.779408    0.946290   -2.779391
     65          7           0        4.558819    2.421370   -5.090985
     66          1           0        5.411142    2.936757   -5.254225
     67          1           0        4.077751    2.054086   -5.898582
     68          6           0        4.161353    2.100067   -3.841106
     69          8           0        1.457796    1.318483    3.113726
     70          1           0        3.610460   -0.912123    6.022808
 ---------------------------------------------------------------------

 SCF Done:  E(RB3LYP) =  -1582.16931153     A.U. after    1 cycles

 Alpha  occ. eigenvalues --  -19.27245 -19.22763 -19.22684 -19.19909 -14.51967
 Alpha  occ. eigenvalues --  -14.51888 -14.50150 -14.44935 -14.44905 -14.43957
 Alpha  occ. eigenvalues --  -14.40746 -10.47935 -10.40764 -10.39432 -10.36502
 Alpha  occ. eigenvalues --  -10.35162 -10.33065 -10.32535 -10.30349 -10.30099
 Alpha  occ. eigenvalues --  -10.29417 -10.28429 -10.28324 -10.27108 -10.26420
 Alpha  occ. eigenvalues --  -10.26068 -10.25512 -10.25308 -10.25202 -10.25059
 Alpha  occ. eigenvalues --  -10.24871 -10.24619 -10.24594 -10.24174  -1.18688
 Alpha  occ. eigenvalues --   -1.16296  -1.14130  -1.11566  -1.10125  -1.05772
 Alpha  occ. eigenvalues --   -1.04146  -1.04051  -1.02446  -1.00518  -0.97183
 Alpha  occ. eigenvalues --   -0.91267  -0.90088  -0.88821  -0.86745  -0.86082
 Alpha  occ. eigenvalues --   -0.82460  -0.81042  -0.80514  -0.79614  -0.78652
 Alpha  occ. eigenvalues --   -0.77485  -0.77228  -0.73793  -0.73167  -0.71861
 Alpha  occ. eigenvalues --   -0.71544  -0.70233  -0.69161  -0.68235  -0.67368
 Alpha  occ. eigenvalues --   -0.66505  -0.65410  -0.65350  -0.64386  -0.64126
 Alpha  occ. eigenvalues --   -0.62568  -0.61171  -0.60663  -0.59954  -0.59821
 Alpha  occ. eigenvalues --   -0.58336  -0.57927  -0.57340  -0.56564  -0.56210
 Alpha  occ. eigenvalues --   -0.55474  -0.54781  -0.54465  -0.54136  -0.53735
 Alpha  occ. eigenvalues --   -0.53465  -0.53038  -0.51693  -0.51321  -0.51133
 Alpha  occ. eigenvalues --   -0.50865  -0.49843  -0.49579  -0.49093  -0.48928
 Alpha  occ. eigenvalues --   -0.48698  -0.48260  -0.47489  -0.47214  -0.46730
 Alpha  occ. eigenvalues --   -0.45983  -0.45759  -0.45647  -0.45421  -0.44873
 Alpha  occ. eigenvalues --   -0.44497  -0.44293  -0.43637  -0.42794  -0.42409
 Alpha  occ. eigenvalues --   -0.41501  -0.41401  -0.40721  -0.40205  -0.40179
 Alpha  occ. eigenvalues --   -0.40064  -0.40034  -0.39440  -0.37144  -0.36452
 Alpha  occ. eigenvalues --   -0.35459  -0.34787  -0.34420  -0.33074  -0.31880
 Alpha  occ. eigenvalues --   -0.28920  -0.27091
 Alpha virt. eigenvalues --   -0.11895  -0.08869  -0.08274  -0.07654  -0.07417
 Alpha virt. eigenvalues --   -0.06437  -0.04543  -0.04199  -0.03690  -0.01228
 Alpha virt. eigenvalues --   -0.00995  -0.00041   0.00330   0.01134   0.01372

 Mulliken charges:
               1
     1  N   -0.742871
     2  H    0.315814
     3  H    0.322105
     4  C   -0.089932
     5  H    0.192325
     6  C    0.622620
     7  C   -0.355114
     8  H    0.152932
     9  H    0.160083
    10  O   -0.532374
    11  C    0.115182
    12  C   -0.039654
    13  H    0.158600
    14  C    0.111696
    15  C    0.250430
    16  C   -0.194381
    17  H    0.134266
    18  N   -0.719733
    19  H    0.452173
    20  C   -0.149408
    21  H    0.135289
    22  C   -0.169522
    23  H    0.132199
    24  C   -0.139003
    25  H    0.131237
    26  N   -0.625627
    27  H    0.363800
    28  C   -0.043550
    29  H    0.168907
    30  C    0.636473
    31  C   -0.060914
    32  H    0.158334
    33  O   -0.578890
    34  C   -0.261693
    35  H    0.137700
    36  H    0.124642
    37  C   -0.466539
    38  H    0.143146
    39  H    0.162886
    40  H    0.149151
    41  C   -0.454395
    42  H    0.145435
    43  H    0.164174
    44  H    0.134668
    45  N   -0.583263
    46  H    0.365389
    47  C   -0.058128
    48  H    0.204107
    49  C    0.611603
    50  C   -0.276578
    51  H    0.171366
    52  H    0.169610
    53  O   -0.582863
    54  C   -0.268637
    55  H    0.154304
    56  H    0.167767
    57  C   -0.171324
    58  H    0.187998
    59  H    0.199727
    60  N   -0.601148
    61  H    0.358921
    62  N   -0.792240
    63  H    0.369471
    64  H    0.460363
    65  N   -0.767539
    66  H    0.378658
    67  H    0.379629
    68  C    0.813170
    69  O   -0.487235
    70  H    0.344202
 Sum of Mulliken charges =   1.00000

 Dipole moment (field-independent basis, Debye):
    X=             14.1477    Y=              7.1655    Z=             -8.0581  Tot=             17.7886
 Quadrupole moment (field-independent basis, Debye-Ang):
   XX=           -109.6131   YY=           -164.6886   ZZ=            -94.2709
   XY=             48.8760   XZ=            -48.6687   YZ=            -35.0167

 Normal termination of Gaussian 16 at Thu May 26 00:39:58 2022.
