 Gaussian 16, Revision C.01,
 Gaussian 16:  ES64L-G16RevC.01  3-Jul-2019

 -------------------------------------------------------------------
 # B3LYP/6-31G* guess=read geom=check nosymm integral(ultrafinegrid)
 -------------------------------------------------------------------

 ------------------------------------------------------
 Candidate Structure: Conf:474 Charge calc in gas phase
 ------------------------------------------------------
 Structure from the checkpoint file:  "conf-474.chk"
 Charge =  1 Multiplicity = 1

                          Input orientation:
 ---------------------------------------------------------------------
 Center     Atomic      Atomic             Coordinates (Angstroms)
 Number     Number       Type             X           Y           Z
 ---------------------------------------------------------------------
      1          7           0       -0.262748   -2.734087    1.043464
      2          1           0        0.528084   -3.230207    0.633052
      3          1           0       -0.725883   -3.389933    1.670592
      4          6           0        0.224625   -1.569348    1.799189
      5          1           0       -0.640959   -1.144001    2.321198
      6          6           0        0.687538   -0.567680    0.725651
      7          6           0        1.334473   -1.873239    2.832011
      8          1           0        1.022449   -2.769881    3.384842
      9          1           0        2.248906   -2.130705    2.286727
     10          8           0        1.848259   -0.505576    0.326726
     11          6           0        1.606040   -0.756483    3.799341
     12          6           0        2.709100    0.044753    3.837034
     13          1           0        3.589336    0.037166    3.209611
     14          6           0        0.727690   -0.305277    4.865579
     15          6           0        1.365573    0.784954    5.504810
     16          6           0       -0.519975   -0.736684    5.345394
     17          1           0       -1.035068   -1.575159    4.883568
     18          7           0        2.556045    1.046950    4.809551
     19          1           0        3.363718    1.456019    5.265613
     20          6           0       -0.421178    0.985442    7.065859
     21          1           0       -0.879299    1.467336    7.924389
     22          6           0        0.810998    1.440768    6.604115
     23          1           0        1.320180    2.270170    7.087544
     24          6           0       -1.080926   -0.089201    6.440965
     25          1           0       -2.040549   -0.420076    6.827132
     26          7           0       -0.303978    0.232548    0.215531
     27          1           0       -1.252196   -0.028395    0.456156
     28          6           0       -0.148426    0.943378   -1.064261
     29          1           0       -0.962307    1.679528   -1.084009
     30          6           0        1.161690    1.752976   -1.007962
     31          6           0       -0.270806    0.042485   -2.322792
     32          1           0        0.675084   -0.504884   -2.413718
     33          8           0        1.993424    1.750865   -1.934889
     34          6           0       -0.446626    0.872653   -3.620683
     35          1           0        0.403950    1.552015   -3.729572
     36          1           0       -0.382149    0.168080   -4.460175
     37          6           0       -1.401737   -0.987998   -2.159465
     38          1           0       -2.367798   -0.509730   -1.953232
     39          1           0       -1.517776   -1.558056   -3.087740
     40          1           0       -1.197833   -1.700639   -1.354626
     41          6           0       -1.755669    1.664618   -3.751393
     42          1           0       -1.774830    2.200579   -4.706328
     43          1           0       -1.875341    2.418653   -2.963082
     44          1           0       -2.636860    1.015315   -3.725966
     45          7           0        1.322187    2.518061    0.091923
     46          1           0        0.677427    2.373609    0.861769
     47          6           0        2.642906    3.031550    0.442462
     48          1           0        3.373743    2.374463   -0.031554
     49          6           0        2.910954    2.875316    1.936556
     50          6           0        2.894657    4.491433   -0.033310
     51          1           0        2.277958    4.666239   -0.923415
     52          1           0        2.526759    5.188832    0.726786
     53          8           0        4.033503    2.839208    2.395362
     54          6           0        4.379893    4.779380   -0.339633
     55          1           0        5.013308    4.236411    0.370977
     56          1           0        4.586541    5.845646   -0.191099
     57          6           0        4.795212    4.454263   -1.787139
     58          1           0        4.286619    5.129099   -2.483615
     59          1           0        5.867274    4.626326   -1.914923
     60          7           0        4.457446    3.086683   -2.209631
     61          1           0        3.458129    2.844684   -2.221603
     62          7           0        6.595351    2.132356   -2.311927
     63          1           0        7.190783    1.329791   -2.172637
     64          1           0        7.041695    3.017135   -2.495876
     65          7           0        4.700830    0.798401   -2.221284
     66          1           0        3.690847    0.718579   -2.096011
     67          1           0        5.212721   -0.011453   -2.539625
     68          6           0        5.255693    2.019923   -2.248569
     69          8           0        1.787745    2.781178    2.659696
     70          1           0        2.028731    2.452772    3.565186
 ---------------------------------------------------------------------

 SCF Done:  E(RB3LYP) =  -1582.17034166     A.U. after    1 cycles

 Alpha  occ. eigenvalues --  -19.28773 -19.24112 -19.23647 -19.21802 -14.51435
 Alpha  occ. eigenvalues --  -14.49958 -14.49944 -14.46900 -14.46223 -14.45925
 Alpha  occ. eigenvalues --  -14.41117 -10.47150 -10.42083 -10.40767 -10.38308
 Alpha  occ. eigenvalues --  -10.35568 -10.34538 -10.33495 -10.31482 -10.30345
 Alpha  occ. eigenvalues --  -10.30207 -10.29831 -10.29734 -10.27645 -10.27239
 Alpha  occ. eigenvalues --  -10.26769 -10.26485 -10.26434 -10.26206 -10.25844
 Alpha  occ. eigenvalues --  -10.25640 -10.25511 -10.24872 -10.24834  -1.20061
 Alpha  occ. eigenvalues --   -1.15794  -1.15160  -1.13241  -1.11196  -1.05535
 Alpha  occ. eigenvalues --   -1.04896  -1.04138  -1.03517  -1.01968  -0.97981
 Alpha  occ. eigenvalues --   -0.91529  -0.91474  -0.89212  -0.88025  -0.86867
 Alpha  occ. eigenvalues --   -0.82923  -0.81763  -0.81013  -0.80441  -0.79184
 Alpha  occ. eigenvalues --   -0.78463  -0.77569  -0.73929  -0.73391  -0.72672
 Alpha  occ. eigenvalues --   -0.71631  -0.70599  -0.69699  -0.69465  -0.68527
 Alpha  occ. eigenvalues --   -0.67356  -0.66822  -0.64797  -0.64623  -0.63953
 Alpha  occ. eigenvalues --   -0.63777  -0.62229  -0.61891  -0.61001  -0.60838
 Alpha  occ. eigenvalues --   -0.59389  -0.58643  -0.58002  -0.57206  -0.56716
 Alpha  occ. eigenvalues --   -0.55939  -0.55894  -0.55275  -0.54982  -0.54554
 Alpha  occ. eigenvalues --   -0.53687  -0.53265  -0.53087  -0.52666  -0.52403
 Alpha  occ. eigenvalues --   -0.51389  -0.51285  -0.50533  -0.50418  -0.49744
 Alpha  occ. eigenvalues --   -0.49427  -0.48920  -0.48655  -0.48193  -0.47176
 Alpha  occ. eigenvalues --   -0.47128  -0.46538  -0.46370  -0.45589  -0.45580
 Alpha  occ. eigenvalues --   -0.45504  -0.45213  -0.44567  -0.43933  -0.42693
 Alpha  occ. eigenvalues --   -0.41982  -0.41480  -0.41415  -0.41034  -0.40732
 Alpha  occ. eigenvalues --   -0.40701  -0.40139  -0.39455  -0.38662  -0.37425
 Alpha  occ. eigenvalues --   -0.36236  -0.36111  -0.35589  -0.34477  -0.32938
 Alpha  occ. eigenvalues --   -0.30291  -0.28585
 Alpha virt. eigenvalues --   -0.11126  -0.10324  -0.09142  -0.08684  -0.08036
 Alpha virt. eigenvalues --   -0.07249  -0.05942  -0.03866  -0.02619  -0.01643
 Alpha virt. eigenvalues --   -0.01346  -0.00457  -0.00135   0.00596   0.00825

 Mulliken charges:
               1
     1  N   -0.715162
     2  H    0.317140
     3  H    0.321004
     4  C   -0.093370
     5  H    0.154950
     6  C    0.652217
     7  C   -0.358375
     8  H    0.152381
     9  H    0.163828
    10  O   -0.539666
    11  C    0.099362
    12  C   -0.044223
    13  H    0.169545
    14  C    0.105513
    15  C    0.260250
    16  C   -0.214263
    17  H    0.127325
    18  N   -0.727274
    19  H    0.353348
    20  C   -0.147675
    21  H    0.146631
    22  C   -0.167680
    23  H    0.141024
    24  C   -0.133374
    25  H    0.142156
    26  N   -0.622351
    27  H    0.351905
    28  C   -0.062287
    29  H    0.177070
    30  C    0.655362
    31  C   -0.063283
    32  H    0.141951
    33  O   -0.594482
    34  C   -0.275261
    35  H    0.151380
    36  H    0.145309
    37  C   -0.495786
    38  H    0.141728
    39  H    0.160798
    40  H    0.181576
    41  C   -0.460121
    42  H    0.161187
    43  H    0.136619
    44  H    0.160893
    45  N   -0.585172
    46  H    0.375202
    47  C   -0.046390
    48  H    0.179420
    49  C    0.601681
    50  C   -0.293720
    51  H    0.166251
    52  H    0.181533
    53  O   -0.474070
    54  C   -0.277043
    55  H    0.185488
    56  H    0.174328
    57  C   -0.171767
    58  H    0.195138
    59  H    0.159980
    60  N   -0.617260
    61  H    0.411152
    62  N   -0.763589
    63  H    0.379793
    64  H    0.382981
    65  N   -0.777489
    66  H    0.424917
    67  H    0.367425
    68  C    0.800580
    69  O   -0.598148
    70  H    0.460963
 Sum of Mulliken charges =   1.00000

 Dipole moment (field-independent basis, Debye):
    X=             16.4152    Y=              7.7926    Z=             -2.1853  Tot=             18.3019
 Quadrupole moment (field-independent basis, Debye-Ang):
   XX=            -83.3930   YY=           -151.1267   ZZ=           -152.7640
   XY=             42.9397   XZ=            -37.1129   YZ=            -10.6721

 Normal termination of Gaussian 16 at Thu May 26 00:39:57 2022.
