 Gaussian 16, Revision C.01,
 Gaussian 16:  ES64L-G16RevC.01  3-Jul-2019

 -------------------------------------------------------------------
 # B3LYP/6-31G* guess=read geom=check nosymm integral(ultrafinegrid)
 -------------------------------------------------------------------

 ------------------------------------------------------
 Candidate Structure: Conf:746 Charge calc in gas phase
 ------------------------------------------------------
 Structure from the checkpoint file:  "conf-746.chk"
 Charge =  1 Multiplicity = 1

                          Input orientation:
 ---------------------------------------------------------------------
 Center     Atomic      Atomic             Coordinates (Angstroms)
 Number     Number       Type             X           Y           Z
 ---------------------------------------------------------------------
      1          7           0       -1.410391   -0.733179    2.952991
      2          1           0       -1.939611   -1.578720    2.739186
      3          1           0       -1.620267   -0.496121    3.920551
      4          6           0        0.027779   -0.972467    2.779746
      5          1           0        0.544837   -0.092895    3.186185
      6          6           0        0.354218   -0.976631    1.269326
      7          6           0        0.579396   -2.237341    3.495344
      8          1           0        0.094516   -2.285856    4.479090
      9          1           0        0.250097   -3.123769    2.941355
     10          8           0        1.258363   -1.649738    0.778533
     11          6           0        2.073714   -2.292352    3.686436
     12          6           0        2.978213   -2.868693    2.841227
     13          1           0        2.804370   -3.354921    1.893039
     14          6           0        2.838640   -1.758290    4.795780
     15          6           0        4.210071   -2.046135    4.547371
     16          6           0        2.499389   -1.088224    5.983491
     17          1           0        1.463769   -0.848205    6.208138
     18          7           0        4.285720   -2.657995    3.296553
     19          1           0        5.043874   -3.281124    3.044266
     20          6           0        4.853207   -1.089700    6.638333
     21          1           0        5.608878   -0.878411    7.391137
     22          6           0        5.222830   -1.732471    5.454030
     23          1           0        6.259018   -1.996345    5.258941
     24          6           0        3.503562   -0.762750    6.894090
     25          1           0        3.241105   -0.276680    7.829646
     26          7           0       -0.386405   -0.097569    0.541844
     27          1           0       -1.205475    0.273922    1.012607
     28          6           0       -0.193256    0.120877   -0.898382
     29          1           0       -0.714608    1.064865   -1.105028
     30          6           0        1.314639    0.384968   -1.161158
     31          6           0       -0.763625   -0.976330   -1.851050
     32          1           0        0.086326   -1.579076   -2.186398
     33          8           0        1.937719   -0.105746   -2.082689
     34          6           0       -1.426505   -0.339095   -3.094695
     35          1           0       -1.825029   -1.156241   -3.709536
     36          1           0       -2.302725    0.241685   -2.765827
     37          6           0       -1.767198   -1.905216   -1.152667
     38          1           0       -2.627288   -1.355334   -0.749169
     39          1           0       -2.154530   -2.633629   -1.873030
     40          1           0       -1.302575   -2.467284   -0.337282
     41          6           0       -0.532056    0.540968   -3.975787
     42          1           0       -1.087854    0.878242   -4.857726
     43          1           0        0.353853   -0.003971   -4.314258
     44          1           0       -0.181547    1.438657   -3.452489
     45          7           0        1.886314    1.299316   -0.287260
     46          1           0        1.338439    1.507759    0.540598
     47          6           0        3.327065    1.294289   -0.072004
     48          1           0        3.771596    0.777960   -0.923469
     49          6           0        3.587697    0.474709    1.189498
     50          6           0        3.886589    2.744343    0.052501
     51          1           0        4.174803    3.067413   -0.951491
     52          1           0        3.058991    3.400336    0.347879
     53          8           0        3.072628    0.760380    2.270039
     54          6           0        5.066961    2.936795    1.038396
     55          1           0        5.804552    3.623225    0.608092
     56          1           0        5.600470    1.992672    1.203313
     57          6           0        4.581502    3.501340    2.389105
     58          1           0        4.357991    4.568948    2.290985
     59          1           0        3.658204    3.012757    2.699892
     60          7           0        5.554260    3.358400    3.482271
     61          1           0        6.397474    3.915204    3.424882
     62          7           0        4.568758    1.514754    4.532089
     63          1           0        4.510368    0.901953    5.342467
     64          1           0        4.005974    1.234734    3.721543
     65          7           0        6.430578    2.529191    5.456798
     66          1           0        6.905587    3.398013    5.655814
     67          1           0        6.431911    1.834629    6.190443
     68          6           0        5.498479    2.460225    4.478031
     69          8           0        4.415344   -0.546341    1.022260
     70          1           0        4.435973   -1.093048    1.842825
 ---------------------------------------------------------------------

 SCF Done:  E(RB3LYP) =  -1582.15635804     A.U. after    1 cycles

 Alpha  occ. eigenvalues --  -19.30674 -19.25896 -19.20019 -19.19628 -14.52166
 Alpha  occ. eigenvalues --  -14.51848 -14.49935 -14.48366 -14.44222 -14.43948
 Alpha  occ. eigenvalues --  -14.41714 -10.47988 -10.43671 -10.36829 -10.36746
 Alpha  occ. eigenvalues --  -10.35684 -10.33435 -10.32557 -10.31603 -10.31145
 Alpha  occ. eigenvalues --  -10.31124 -10.30982 -10.29975 -10.29921 -10.29487
 Alpha  occ. eigenvalues --  -10.29192 -10.29100 -10.29006 -10.28137 -10.27998
 Alpha  occ. eigenvalues --  -10.25094 -10.23738 -10.23551 -10.22257  -1.22047
 Alpha  occ. eigenvalues --   -1.16341  -1.13030  -1.12188  -1.11246  -1.07776
 Alpha  occ. eigenvalues --   -1.05932  -1.03990  -1.01644  -1.00380  -0.97956
 Alpha  occ. eigenvalues --   -0.94528  -0.91507  -0.89648  -0.87154  -0.86010
 Alpha  occ. eigenvalues --   -0.84275  -0.83605  -0.81387  -0.80740  -0.79255
 Alpha  occ. eigenvalues --   -0.77856  -0.77598  -0.74688  -0.73760  -0.73379
 Alpha  occ. eigenvalues --   -0.72191  -0.70449  -0.69574  -0.69484  -0.68293
 Alpha  occ. eigenvalues --   -0.66930  -0.66253  -0.65584  -0.65444  -0.64289
 Alpha  occ. eigenvalues --   -0.63690  -0.63073  -0.62036  -0.61149  -0.60527
 Alpha  occ. eigenvalues --   -0.60008  -0.58733  -0.58372  -0.57836  -0.57440
 Alpha  occ. eigenvalues --   -0.57072  -0.56083  -0.55942  -0.55445  -0.54529
 Alpha  occ. eigenvalues --   -0.54370  -0.53689  -0.52569  -0.52336  -0.51980
 Alpha  occ. eigenvalues --   -0.51041  -0.50795  -0.50574  -0.50069  -0.49826
 Alpha  occ. eigenvalues --   -0.49244  -0.48885  -0.48098  -0.47554  -0.47278
 Alpha  occ. eigenvalues --   -0.47063  -0.46818  -0.46534  -0.46066  -0.45622
 Alpha  occ. eigenvalues --   -0.44958  -0.44456  -0.44292  -0.43682  -0.43365
 Alpha  occ. eigenvalues --   -0.43091  -0.42529  -0.42415  -0.41018  -0.40412
 Alpha  occ. eigenvalues --   -0.39699  -0.39249  -0.38505  -0.37996  -0.37559
 Alpha  occ. eigenvalues --   -0.35202  -0.35037  -0.33714  -0.33427  -0.33232
 Alpha  occ. eigenvalues --   -0.32154  -0.30094
 Alpha virt. eigenvalues --   -0.11926  -0.11881  -0.11417  -0.09179  -0.07718
 Alpha virt. eigenvalues --   -0.07186  -0.05711  -0.04576  -0.04049  -0.02111
 Alpha virt. eigenvalues --   -0.02006  -0.01329  -0.00574   0.00243   0.00596

 Mulliken charges:
               1
     1  N   -0.738591
     2  H    0.320528
     3  H    0.318054
     4  C   -0.073685
     5  H    0.173843
     6  C    0.618379
     7  C   -0.362350
     8  H    0.146828
     9  H    0.168684
    10  O   -0.543699
    11  C    0.114521
    12  C   -0.022989
    13  H    0.201665
    14  C    0.098137
    15  C    0.267966
    16  C   -0.212894
    17  H    0.143595
    18  N   -0.711591
    19  H    0.353606
    20  C   -0.217682
    21  H    0.142838
    22  C   -0.167998
    23  H    0.147844
    24  C   -0.160355
    25  H    0.149160
    26  N   -0.630702
    27  H    0.361737
    28  C   -0.037077
    29  H    0.168101
    30  C    0.623758
    31  C   -0.076537
    32  H    0.176589
    33  O   -0.489472
    34  C   -0.264915
    35  H    0.145702
    36  H    0.125055
    37  C   -0.458152
    38  H    0.132462
    39  H    0.159580
    40  H    0.144847
    41  C   -0.449862
    42  H    0.149226
    43  H    0.172425
    44  H    0.131047
    45  N   -0.602634
    46  H    0.331370
    47  C   -0.028930
    48  H    0.220187
    49  C    0.609260
    50  C   -0.289881
    51  H    0.189923
    52  H    0.161562
    53  O   -0.537058
    54  C   -0.291751
    55  H    0.168928
    56  H    0.163663
    57  C   -0.180237
    58  H    0.192597
    59  H    0.198994
    60  N   -0.603279
    61  H    0.359095
    62  N   -0.803579
    63  H    0.385580
    64  H    0.437053
    65  N   -0.765189
    66  H    0.375019
    67  H    0.376099
    68  C    0.799135
    69  O   -0.550420
    70  H    0.446867
 Sum of Mulliken charges =   1.00000

 Dipole moment (field-independent basis, Debye):
    X=             20.3660    Y=              7.7121    Z=             20.4330  Tot=             29.8623
 Quadrupole moment (field-independent basis, Debye-Ang):
   XX=            -54.4102   YY=           -151.8447   ZZ=           -103.3610
   XY=             51.1337   XZ=            101.3171   YZ=             26.2403

 Normal termination of Gaussian 16 at Thu May 26 00:39:57 2022.
