 Gaussian 16, Revision C.01,
 Gaussian 16:  ES64L-G16RevC.01  3-Jul-2019

 -------------------------------------------------------------------
 # B3LYP/6-31G* guess=read geom=check nosymm integral(ultrafinegrid)
 -------------------------------------------------------------------

 ------------------------------------------------------
 Candidate Structure: Conf:727 Charge calc in gas phase
 ------------------------------------------------------
 Structure from the checkpoint file:  "conf-727.chk"
 Charge =  1 Multiplicity = 1

                          Input orientation:
 ---------------------------------------------------------------------
 Center     Atomic      Atomic             Coordinates (Angstroms)
 Number     Number       Type             X           Y           Z
 ---------------------------------------------------------------------
      1          7           0       -1.561654   -3.940244    1.494883
      2          1           0       -2.409147   -3.937696    0.926398
      3          1           0       -0.839553   -4.354016    0.899996
      4          6           0       -1.151111   -2.555575    1.761613
      5          1           0       -2.008261   -2.025721    2.196781
      6          6           0       -0.648456   -1.849231    0.484539
      7          6           0        0.024318   -2.528229    2.760231
      8          1           0        0.856805   -3.087343    2.309280
      9          1           0        0.399825   -1.505005    2.873284
     10          8           0        0.193965   -2.400505   -0.216878
     11          6           0       -0.261742   -3.101959    4.114965
     12          6           0       -1.084712   -4.121824    4.413078
     13          1           0       -1.705627   -4.742473    3.784684
     14          6           0        0.371963   -2.617588    5.358946
     15          6           0       -0.090347   -3.382916    6.430508
     16          6           0        1.283206   -1.587349    5.605506
     17          1           0        1.651505   -0.949855    4.797967
     18          7           0       -1.049789   -4.384212    5.890430
     19          1           0       -1.982917   -4.281130    6.310625
     20          6           0        1.205991   -2.176363    7.982637
     21          1           0        1.541649   -1.990039    8.997856
     22          6           0        0.286217   -3.208372    7.746857
     23          1           0       -0.096137   -3.821695    8.557519
     24          6           0        1.687258   -1.387506    6.931409
     25          1           0        2.393658   -0.592138    7.148696
     26          7           0       -1.147714   -0.610656    0.233744
     27          1           0       -1.899735   -0.270641    0.816305
     28          6           0       -0.673158    0.257397   -0.859279
     29          1           0       -1.146568    1.225275   -0.651345
     30          6           0        0.861131    0.493512   -0.711977
     31          6           0       -1.067720   -0.177055   -2.303455
     32          1           0       -0.172831   -0.616621   -2.754492
     33          8           0        1.621117    0.508920   -1.673253
     34          6           0       -1.490526    1.045545   -3.153279
     35          1           0       -1.762991    0.672759   -4.149337
     36          1           0       -2.417619    1.462084   -2.727618
     37          6           0       -2.192584   -1.222357   -2.334015
     38          1           0       -3.104791   -0.860174   -1.841730
     39          1           0       -2.452739   -1.449644   -3.373636
     40          1           0       -1.888944   -2.159706   -1.860772
     41          6           0       -0.459801    2.167889   -3.321193
     42          1           0       -0.851123    2.938028   -3.995916
     43          1           0        0.478653    1.787553   -3.733261
     44          1           0       -0.219135    2.659851   -2.371520
     45          7           0        1.264709    0.755342    0.557471
     46          1           0        0.650444    0.594087    1.347796
     47          6           0        2.666709    0.837828    0.935315
     48          1           0        3.233653    0.148310    0.296946
     49          6           0        2.790209    0.348329    2.407128
     50          6           0        3.203575    2.270801    0.669740
     51          1           0        2.806297    2.552665   -0.309522
     52          1           0        2.771910    2.970297    1.398678
     53          8           0        3.953379    0.141913    2.870154
     54          6           0        4.736775    2.405622    0.614605
     55          1           0        5.009434    3.209590   -0.080380
     56          1           0        5.156442    1.484550    0.191165
     57          6           0        5.397566    2.686098    1.975502
     58          1           0        5.312799    3.742078    2.246970
     59          1           0        4.924147    2.103413    2.766570
     60          7           0        6.837955    2.366749    1.983665
     61          1           0        7.458294    3.046463    1.562331
     62          7           0        6.507476    0.080116    2.267828
     63          1           0        6.918200   -0.823478    2.458740
     64          1           0        5.444422    0.147013    2.371751
     65          7           0        8.649067    0.926132    1.901939
     66          1           0        9.278242    1.697554    2.074173
     67          1           0        9.041792    0.007820    2.050151
     68          6           0        7.310346    1.111729    2.063503
     69          8           0        1.722447    0.188506    3.047608
     70          1           0       -0.745486   -5.347325    6.084568
 ---------------------------------------------------------------------

 SCF Done:  E(RB3LYP) =  -1582.10165654     A.U. after    2 cycles

 Alpha  occ. eigenvalues --  -19.18691 -19.16016 -19.15921 -19.15637 -14.60202
 Alpha  occ. eigenvalues --  -14.48695 -14.48175 -14.46108 -14.43775 -14.40683
 Alpha  occ. eigenvalues --  -14.39643 -10.44177 -10.36243 -10.35600 -10.34816
 Alpha  occ. eigenvalues --  -10.33691 -10.33403 -10.33288 -10.32240 -10.31986
 Alpha  occ. eigenvalues --  -10.31396 -10.30899 -10.30713 -10.29904 -10.29320
 Alpha  occ. eigenvalues --  -10.29300 -10.28242 -10.27524 -10.26211 -10.24801
 Alpha  occ. eigenvalues --  -10.23565 -10.22475 -10.22218 -10.20960  -1.15413
 Alpha  occ. eigenvalues --   -1.12694  -1.10720  -1.09033  -1.07712  -1.02190
 Alpha  occ. eigenvalues --   -1.00820  -0.99832  -0.99624  -0.98172  -0.97485
 Alpha  occ. eigenvalues --   -0.96187  -0.93372  -0.86700  -0.86533  -0.85839
 Alpha  occ. eigenvalues --   -0.85300  -0.83353  -0.81193  -0.78625  -0.76556
 Alpha  occ. eigenvalues --   -0.75546  -0.74639  -0.73763  -0.72595  -0.72508
 Alpha  occ. eigenvalues --   -0.71686  -0.69999  -0.68070  -0.67594  -0.66780
 Alpha  occ. eigenvalues --   -0.66207  -0.66084  -0.65829  -0.62916  -0.61729
 Alpha  occ. eigenvalues --   -0.61379  -0.60919  -0.60336  -0.60096  -0.59344
 Alpha  occ. eigenvalues --   -0.58893  -0.57919  -0.56254  -0.55927  -0.55296
 Alpha  occ. eigenvalues --   -0.54791  -0.54066  -0.53506  -0.53477  -0.52859
 Alpha  occ. eigenvalues --   -0.52642  -0.51416  -0.50610  -0.50305  -0.49898
 Alpha  occ. eigenvalues --   -0.49335  -0.48644  -0.48093  -0.47637  -0.47505
 Alpha  occ. eigenvalues --   -0.47334  -0.46339  -0.46094  -0.45745  -0.45513
 Alpha  occ. eigenvalues --   -0.45187  -0.45002  -0.44654  -0.44148  -0.43490
 Alpha  occ. eigenvalues --   -0.42856  -0.42194  -0.41402  -0.40992  -0.40687
 Alpha  occ. eigenvalues --   -0.39578  -0.39278  -0.38816  -0.37853  -0.37096
 Alpha  occ. eigenvalues --   -0.37056  -0.36443  -0.36098  -0.34915  -0.34762
 Alpha  occ. eigenvalues --   -0.33472  -0.31771  -0.31467  -0.31058  -0.30261
 Alpha  occ. eigenvalues --   -0.29360  -0.28785
 Alpha virt. eigenvalues --   -0.15300  -0.12454  -0.09326  -0.08364  -0.07282
 Alpha virt. eigenvalues --   -0.05595  -0.05099  -0.03419  -0.02918  -0.01855
 Alpha virt. eigenvalues --   -0.01410  -0.01281  -0.00622  -0.00450   0.01147

 Mulliken charges:
               1
     1  N   -0.724676
     2  H    0.316827
     3  H    0.327245
     4  C   -0.083599
     5  H    0.132733
     6  C    0.631733
     7  C   -0.389049
     8  H    0.201538
     9  H    0.236554
    10  O   -0.528029
    11  C    0.175961
    12  C   -0.111104
    13  H    0.235261
    14  C    0.109390
    15  C    0.159221
    16  C   -0.195132
    17  H    0.252616
    18  N   -0.730695
    19  H    0.418626
    20  C   -0.138574
    21  H    0.171570
    22  C   -0.160112
    23  H    0.167120
    24  C   -0.134455
    25  H    0.173896
    26  N   -0.632608
    27  H    0.331018
    28  C   -0.042237
    29  H    0.159709
    30  C    0.631217
    31  C   -0.070621
    32  H    0.177942
    33  O   -0.529826
    34  C   -0.264019
    35  H    0.140729
    36  H    0.119061
    37  C   -0.458554
    38  H    0.121862
    39  H    0.153860
    40  H    0.150064
    41  C   -0.445953
    42  H    0.140778
    43  H    0.173762
    44  H    0.131838
    45  N   -0.614615
    46  H    0.337039
    47  C   -0.046138
    48  H    0.166239
    49  C    0.600447
    50  C   -0.268812
    51  H    0.179669
    52  H    0.140162
    53  O   -0.615565
    54  C   -0.274014
    55  H    0.148483
    56  H    0.154403
    57  C   -0.194018
    58  H    0.172582
    59  H    0.219128
    60  N   -0.590911
    61  H    0.350194
    62  N   -0.781566
    63  H    0.349919
    64  H    0.451273
    65  N   -0.765493
    66  H    0.366968
    67  H    0.365680
    68  C    0.794279
    69  O   -0.567695
    70  H    0.419477
 Sum of Mulliken charges =   1.00000

 Dipole moment (field-independent basis, Debye):
    X=             12.3645    Y=             -8.7384    Z=             23.9616  Tot=             28.3443
 Quadrupole moment (field-independent basis, Debye-Ang):
   XX=            -14.2803   YY=           -121.1049   ZZ=            -67.5300
   XY=             47.3330   XZ=             25.2047   YZ=            -78.3992

 Normal termination of Gaussian 16 at Thu May 26 00:40:09 2022.
