 Gaussian 16, Revision C.01,
 Gaussian 16:  ES64L-G16RevC.01  3-Jul-2019

 -------------------------------------------------------------------
 # B3LYP/6-31G* guess=read geom=check nosymm integral(ultrafinegrid)
 -------------------------------------------------------------------

 ------------------------------------------------------
 Candidate Structure: Conf:879 Charge calc in gas phase
 ------------------------------------------------------
 Structure from the checkpoint file:  "conf-879.chk"
 Charge =  1 Multiplicity = 1

                          Input orientation:
 ---------------------------------------------------------------------
 Center     Atomic      Atomic             Coordinates (Angstroms)
 Number     Number       Type             X           Y           Z
 ---------------------------------------------------------------------
      1          7           0       -0.911763   -0.977568    3.740795
      2          1           0       -1.770932   -0.432136    3.699813
      3          1           0       -1.120444   -1.870295    3.292976
      4          6           0        0.133179   -0.324941    2.940189
      5          1           0       -0.004058    0.759662    2.994038
      6          6           0        0.067089   -0.822208    1.478089
      7          6           0        1.533018   -0.615202    3.564904
      8          1           0        2.309926   -0.037720    3.052855
      9          1           0        1.478377   -0.260628    4.598952
     10          8           0       -0.010208   -2.033088    1.272614
     11          6           0        1.878068   -2.076221    3.566184
     12          6           0        1.299935   -3.012311    4.337762
     13          1           0        0.508000   -2.957765    5.068820
     14          6           0        2.876416   -2.724691    2.696829
     15          6           0        2.853050   -4.099616    2.929664
     16          6           0        3.775646   -2.218896    1.758431
     17          1           0        3.846112   -1.153571    1.561714
     18          7           0        1.819410   -4.365342    3.967093
     19          1           0        2.204925   -4.867538    4.776919
     20          6           0        4.540670   -4.503899    1.339339
     21          1           0        5.192105   -5.181831    0.797300
     22          6           0        3.649850   -5.025371    2.288422
     23          1           0        3.600139   -6.090860    2.492606
     24          6           0        4.597368   -3.129504    1.085572
     25          1           0        5.292536   -2.756843    0.340385
     26          7           0        0.023097    0.148616    0.524073
     27          1           0        0.283820    1.075875    0.851977
     28          6           0        0.229200   -0.033757   -0.939925
     29          1           0       -0.182234    0.877903   -1.394250
     30          6           0        1.768921   -0.023653   -1.067974
     31          6           0       -0.480637   -1.236588   -1.586809
     32          1           0        0.045253   -2.141868   -1.269942
     33          8           0        2.451402   -1.026622   -0.919728
     34          6           0       -0.437201   -1.140819   -3.132153
     35          1           0       -1.015220   -1.992863   -3.512134
     36          1           0       -0.993598   -0.244370   -3.446550
     37          6           0       -1.948747   -1.324911   -1.139141
     38          1           0       -2.494062   -0.401034   -1.372510
     39          1           0       -2.450062   -2.142918   -1.668175
     40          1           0       -2.036805   -1.520454   -0.068948
     41          6           0        0.938063   -1.150360   -3.812572
     42          1           0        0.815727   -1.243133   -4.897592
     43          1           0        1.551541   -1.988397   -3.466338
     44          1           0        1.503763   -0.230209   -3.631231
     45          7           0        2.299769    1.243332   -1.202535
     46          1           0        1.621270    1.992398   -1.112754
     47          6           0        3.546586    1.566617   -0.500944
     48          1           0        4.225064    0.722214   -0.624634
     49          6           0        3.219314    1.713163    1.010964
     50          6           0        4.165392    2.841432   -1.110563
     51          1           0        4.468837    2.603800   -2.135168
     52          1           0        3.376856    3.602163   -1.209057
     53          8           0        2.217738    2.485486    1.281620
     54          6           0        5.364450    3.423020   -0.315032
     55          1           0        6.214542    3.585646   -0.987193
     56          1           0        5.696583    2.708165    0.446876
     57          6           0        5.072156    4.774319    0.363126
     58          1           0        5.964253    5.124736    0.889176
     59          1           0        4.815105    5.529557   -0.388118
     60          7           0        3.956652    4.682664    1.319085
     61          1           0        3.152589    4.125038    1.003535
     62          7           0        5.050650    5.366399    3.269866
     63          1           0        5.142456    5.333574    4.274173
     64          1           0        5.501854    6.135727    2.797830
     65          7           0        3.154223    4.002621    3.355701
     66          1           0        2.631942    3.260866    2.841318
     67          1           0        3.119123    4.063708    4.362173
     68          6           0        4.061362    4.681838    2.653868
     69          8           0        3.919922    1.114408    1.843478
     70          1           0        1.060090   -4.946578    3.585977
 ---------------------------------------------------------------------

 SCF Done:  E(RB3LYP) =  -1582.10082248     A.U. after    1 cycles

 Alpha  occ. eigenvalues --  -19.19318 -19.18633 -19.18353 -19.17526 -14.59584
 Alpha  occ. eigenvalues --  -14.49182 -14.47038 -14.46833 -14.44140 -14.42543
 Alpha  occ. eigenvalues --  -14.40181 -10.44336 -10.36358 -10.35463 -10.35367
 Alpha  occ. eigenvalues --  -10.35188 -10.34458 -10.32987 -10.32898 -10.31372
 Alpha  occ. eigenvalues --  -10.31342 -10.31152 -10.30564 -10.29805 -10.29429
 Alpha  occ. eigenvalues --  -10.29035 -10.28885 -10.28311 -10.27869 -10.27371
 Alpha  occ. eigenvalues --  -10.24855 -10.23657 -10.22704 -10.22240  -1.14824
 Alpha  occ. eigenvalues --   -1.12965  -1.11331  -1.10832  -1.10030  -1.02581
 Alpha  occ. eigenvalues --   -1.01749  -1.00802  -1.00230  -0.98827  -0.97649
 Alpha  occ. eigenvalues --   -0.96828  -0.92792  -0.88377  -0.87015  -0.85785
 Alpha  occ. eigenvalues --   -0.84909  -0.83074  -0.82717  -0.79603  -0.77421
 Alpha  occ. eigenvalues --   -0.75839  -0.74582  -0.73899  -0.73018  -0.71881
 Alpha  occ. eigenvalues --   -0.71376  -0.69698  -0.69186  -0.68572  -0.67357
 Alpha  occ. eigenvalues --   -0.66466  -0.65796  -0.65264  -0.64743  -0.62237
 Alpha  occ. eigenvalues --   -0.61531  -0.60949  -0.60638  -0.60435  -0.59982
 Alpha  occ. eigenvalues --   -0.58769  -0.57985  -0.57727  -0.57116  -0.56167
 Alpha  occ. eigenvalues --   -0.54879  -0.54649  -0.54163  -0.53347  -0.52789
 Alpha  occ. eigenvalues --   -0.52412  -0.52396  -0.51922  -0.51635  -0.50650
 Alpha  occ. eigenvalues --   -0.50147  -0.49798  -0.49082  -0.48134  -0.48039
 Alpha  occ. eigenvalues --   -0.47587  -0.47263  -0.47006  -0.46577  -0.46312
 Alpha  occ. eigenvalues --   -0.45974  -0.45835  -0.45287  -0.44768  -0.44174
 Alpha  occ. eigenvalues --   -0.43662  -0.43562  -0.43161  -0.42486  -0.41832
 Alpha  occ. eigenvalues --   -0.40732  -0.40414  -0.39743  -0.38416  -0.38159
 Alpha  occ. eigenvalues --   -0.37674  -0.36612  -0.36141  -0.35379  -0.35196
 Alpha  occ. eigenvalues --   -0.34441  -0.33738  -0.33600  -0.32735  -0.31598
 Alpha  occ. eigenvalues --   -0.30760  -0.29728
 Alpha virt. eigenvalues --   -0.14693  -0.11568  -0.08913  -0.08645  -0.07326
 Alpha virt. eigenvalues --   -0.06310  -0.05187  -0.04461  -0.03666  -0.02393
 Alpha virt. eigenvalues --   -0.01312  -0.01155  -0.00828   0.00586   0.01276

 Mulliken charges:
               1
     1  N   -0.725428
     2  H    0.318712
     3  H    0.316414
     4  C   -0.076960
     5  H    0.150956
     6  C    0.625928
     7  C   -0.368035
     8  H    0.219302
     9  H    0.173668
    10  O   -0.540539
    11  C    0.185392
    12  C   -0.114506
    13  H    0.217361
    14  C    0.139553
    15  C    0.160198
    16  C   -0.167054
    17  H    0.222808
    18  N   -0.726752
    19  H    0.415343
    20  C   -0.138816
    21  H    0.170177
    22  C   -0.157878
    23  H    0.164747
    24  C   -0.120310
    25  H    0.171265
    26  N   -0.628930
    27  H    0.352845
    28  C   -0.049766
    29  H    0.142468
    30  C    0.625219
    31  C   -0.084329
    32  H    0.173441
    33  O   -0.516352
    34  C   -0.260935
    35  H    0.144609
    36  H    0.127149
    37  C   -0.455180
    38  H    0.134530
    39  H    0.150021
    40  H    0.155059
    41  C   -0.459197
    42  H    0.148712
    43  H    0.162629
    44  H    0.145091
    45  N   -0.584779
    46  H    0.320104
    47  C   -0.042700
    48  H    0.180136
    49  C    0.601805
    50  C   -0.302760
    51  H    0.177748
    52  H    0.137205
    53  O   -0.665163
    54  C   -0.283047
    55  H    0.166233
    56  H    0.181369
    57  C   -0.170568
    58  H    0.159480
    59  H    0.182626
    60  N   -0.606331
    61  H    0.387842
    62  N   -0.754770
    63  H    0.368470
    64  H    0.375112
    65  N   -0.767763
    66  H    0.412661
    67  H    0.349885
    68  C    0.784139
    69  O   -0.553991
    70  H    0.424421
 Sum of Mulliken charges =   1.00000

 Dipole moment (field-independent basis, Debye):
    X=             14.6498    Y=              1.3601    Z=             16.0882  Tot=             21.8013
 Quadrupole moment (field-independent basis, Debye-Ang):
   XX=           -125.1585   YY=            -57.2805   ZZ=           -120.8637
   XY=             36.4774   XZ=             42.3076   YZ=            -16.9127

 Normal termination of Gaussian 16 at Thu May 26 00:39:58 2022.
