 Gaussian 16, Revision C.01,
 Gaussian 16:  ES64L-G16RevC.01  3-Jul-2019

 -------------------------------------------------------------------
 # B3LYP/6-31G* guess=read geom=check nosymm integral(ultrafinegrid)
 -------------------------------------------------------------------

 ------------------------------------------------------
 Candidate Structure: Conf:684 Charge calc in gas phase
 ------------------------------------------------------
 Structure from the checkpoint file:  "conf-684.chk"
 Charge =  1 Multiplicity = 1

                          Input orientation:
 ---------------------------------------------------------------------
 Center     Atomic      Atomic             Coordinates (Angstroms)
 Number     Number       Type             X           Y           Z
 ---------------------------------------------------------------------
      1          7           0       -0.749965   -3.992088    1.780507
      2          1           0       -1.637556   -4.204922    1.324303
      3          1           0       -0.027759   -4.260067    1.107670
      4          6           0       -0.636468   -2.541557    1.978605
      5          1           0       -1.532755   -2.202099    2.513524
      6          6           0       -0.466519   -1.786624    0.642996
      7          6           0        0.612981   -2.212804    2.821081
      8          1           0        1.489340   -2.595330    2.278419
      9          1           0        0.759608   -1.128350    2.866744
     10          8           0        0.405261   -2.140829   -0.144358
     11          6           0        0.624763   -2.771969    4.211608
     12          6           0        0.094175   -3.933357    4.630825
     13          1           0       -0.439969   -4.705902    4.098440
     14          6           0        1.273962   -2.099990    5.356132
     15          6           0        1.125112   -2.895973    6.492749
     16          6           0        1.951455   -0.882944    5.465830
     17          1           0        2.070156   -0.220491    4.606238
     18          7           0        0.359849   -4.109829    6.097305
     19          1           0       -0.516881   -4.195587    6.628415
     20          6           0        2.287803   -1.357796    7.845120
     21          1           0        2.689067   -1.052656    8.806267
     22          6           0        1.603955   -2.578335    7.747684
     23          1           0        1.467888   -3.220869    8.612630
     24          6           0        2.452297   -0.533399    6.726010
     25          1           0        2.980913    0.408447    6.836663
     26          7           0       -1.280040   -0.716063    0.438459
     27          1           0       -2.041330   -0.562132    1.084532
     28          6           0       -1.186658    0.158506   -0.743903
     29          1           0       -1.922901    0.951738   -0.557490
     30          6           0        0.206455    0.852720   -0.775349
     31          6           0       -1.542889   -0.514226   -2.097144
     32          1           0       -0.639543   -1.016101   -2.458284
     33          8           0        0.812183    1.068820   -1.820800
     34          6           0       -1.938006    0.576666   -3.120239
     35          1           0       -2.929510    0.972689   -2.850264
     36          1           0       -1.229150    1.405522   -3.042593
     37          6           0       -2.660750   -1.554926   -1.938454
     38          1           0       -3.565141   -1.111769   -1.499477
     39          1           0       -2.939668   -1.967017   -2.912697
     40          1           0       -2.352668   -2.396049   -1.309865
     41          6           0       -1.955243    0.092512   -4.574270
     42          1           0       -2.216542    0.913811   -5.250709
     43          1           0       -2.681969   -0.710264   -4.741445
     44          1           0       -0.967843   -0.280438   -4.870566
     45          7           0        0.660549    1.263096    0.436788
     46          1           0        0.240957    0.913809    1.291257
     47          6           0        2.016717    1.750524    0.619243
     48          1           0        2.654796    1.204569   -0.087171
     49          6           0        2.495132    1.356465    2.047134
     50          6           0        2.145324    3.279361    0.307988
     51          1           0        1.136548    3.643225    0.095740
     52          1           0        2.485929    3.826472    1.197163
     53          8           0        3.715530    1.612524    2.316328
     54          6           0        3.043935    3.612096   -0.903459
     55          1           0        2.717587    4.556705   -1.355292
     56          1           0        2.906059    2.835533   -1.663952
     57          6           0        4.537883    3.782725   -0.571993
     58          1           0        5.122621    3.829804   -1.497048
     59          1           0        4.700261    4.727997   -0.040398
     60          7           0        5.030315    2.704414    0.285555
     61          1           0        4.451208    2.462849    1.138315
     62          7           0        6.908843    1.945797   -0.917454
     63          1           0        7.336016    1.115417   -1.302600
     64          1           0        6.894121    2.757066   -1.516975
     65          7           0        5.990477    0.691949    0.812079
     66          1           0        5.279125    0.652127    1.548910
     67          1           0        6.878225    0.243190    0.989543
     68          6           0        5.965774    1.806900    0.045060
     69          8           0        1.673017    0.809309    2.812754
     70          1           0        0.894024   -4.971242    6.272370
 ---------------------------------------------------------------------

 SCF Done:  E(RB3LYP) =  -1582.11206892     A.U. after    1 cycles

 Alpha  occ. eigenvalues --  -19.19408 -19.17025 -19.16943 -19.16764 -14.60595
 Alpha  occ. eigenvalues --  -14.47861 -14.45916 -14.45533 -14.44439 -14.41278
 Alpha  occ. eigenvalues --  -14.40596 -10.43051 -10.36625 -10.36311 -10.35287
 Alpha  occ. eigenvalues --  -10.34675 -10.34246 -10.33872 -10.32588 -10.32405
 Alpha  occ. eigenvalues --  -10.31985 -10.31790 -10.31039 -10.30257 -10.30071
 Alpha  occ. eigenvalues --  -10.29797 -10.28798 -10.28391 -10.26057 -10.25405
 Alpha  occ. eigenvalues --  -10.24273 -10.23018 -10.22466 -10.21596  -1.15805
 Alpha  occ. eigenvalues --   -1.11714  -1.11415  -1.09952  -1.08664  -1.01810
 Alpha  occ. eigenvalues --   -1.00650  -1.00402  -0.99657  -0.98686  -0.97952
 Alpha  occ. eigenvalues --   -0.97101  -0.93807  -0.86939  -0.86898  -0.86430
 Alpha  occ. eigenvalues --   -0.85792  -0.83868  -0.81568  -0.79195  -0.76614
 Alpha  occ. eigenvalues --   -0.75645  -0.74819  -0.74122  -0.72884  -0.72823
 Alpha  occ. eigenvalues --   -0.72172  -0.68970  -0.68486  -0.68172  -0.67375
 Alpha  occ. eigenvalues --   -0.66504  -0.66330  -0.64256  -0.63488  -0.61957
 Alpha  occ. eigenvalues --   -0.61512  -0.60761  -0.60589  -0.59976  -0.59711
 Alpha  occ. eigenvalues --   -0.59258  -0.58717  -0.57347  -0.56467  -0.55746
 Alpha  occ. eigenvalues --   -0.54935  -0.54617  -0.53844  -0.53398  -0.53103
 Alpha  occ. eigenvalues --   -0.52190  -0.52009  -0.51218  -0.50835  -0.50094
 Alpha  occ. eigenvalues --   -0.50054  -0.49764  -0.49099  -0.48753  -0.48250
 Alpha  occ. eigenvalues --   -0.47794  -0.47386  -0.46846  -0.46479  -0.46142
 Alpha  occ. eigenvalues --   -0.45665  -0.45548  -0.44792  -0.44214  -0.43148
 Alpha  occ. eigenvalues --   -0.42865  -0.42141  -0.41993  -0.41633  -0.41445
 Alpha  occ. eigenvalues --   -0.40402  -0.40029  -0.38844  -0.38620  -0.37438
 Alpha  occ. eigenvalues --   -0.37419  -0.36950  -0.35544  -0.35485  -0.35172
 Alpha  occ. eigenvalues --   -0.34304  -0.32769  -0.32155  -0.31998  -0.31127
 Alpha  occ. eigenvalues --   -0.30318  -0.29762
 Alpha virt. eigenvalues --   -0.15722  -0.12833  -0.09671  -0.07803  -0.07727
 Alpha virt. eigenvalues --   -0.05782  -0.04399  -0.03897  -0.03287  -0.02244
 Alpha virt. eigenvalues --   -0.02097  -0.01399  -0.00154   0.00609   0.02142

 Mulliken charges:
               1
     1  N   -0.723468
     2  H    0.317286
     3  H    0.327056
     4  C   -0.083329
     5  H    0.134076
     6  C    0.629567
     7  C   -0.389465
     8  H    0.199248
     9  H    0.238168
    10  O   -0.526751
    11  C    0.176293
    12  C   -0.110757
    13  H    0.235209
    14  C    0.111470
    15  C    0.159176
    16  C   -0.198122
    17  H    0.246674
    18  N   -0.730783
    19  H    0.419461
    20  C   -0.138400
    21  H    0.174584
    22  C   -0.159185
    23  H    0.168885
    24  C   -0.132896
    25  H    0.178827
    26  N   -0.637704
    27  H    0.333377
    28  C   -0.047969
    29  H    0.161749
    30  C    0.625290
    31  C   -0.059985
    32  H    0.168398
    33  O   -0.529244
    34  C   -0.266863
    35  H    0.118444
    36  H    0.164485
    37  C   -0.459377
    38  H    0.128044
    39  H    0.162325
    40  H    0.132799
    41  C   -0.452315
    42  H    0.148817
    43  H    0.143729
    44  H    0.154177
    45  N   -0.616101
    46  H    0.339434
    47  C   -0.041296
    48  H    0.165893
    49  C    0.597340
    50  C   -0.296438
    51  H    0.172488
    52  H    0.154921
    53  O   -0.622707
    54  C   -0.278903
    55  H    0.156777
    56  H    0.187620
    57  C   -0.163271
    58  H    0.145662
    59  H    0.182429
    60  N   -0.611535
    61  H    0.426448
    62  N   -0.754082
    63  H    0.369125
    64  H    0.371404
    65  N   -0.776776
    66  H    0.400364
    67  H    0.353390
    68  C    0.759594
    69  O   -0.552923
    70  H    0.420138
 Sum of Mulliken charges =   1.00000

 Dipole moment (field-independent basis, Debye):
    X=             11.1477    Y=             -8.5629    Z=             18.5933  Tot=             23.3089
 Quadrupole moment (field-independent basis, Debye-Ang):
   XX=            -90.9940   YY=           -124.6181   ZZ=            -60.4029
   XY=             24.1356   XZ=             -3.3144   YZ=            -89.5447

 Normal termination of Gaussian 16 at Thu May 26 00:39:54 2022.
