 Gaussian 16, Revision C.01,
 Gaussian 16:  ES64L-G16RevC.01  3-Jul-2019

 -------------------------------------------------------------------
 # B3LYP/6-31G* guess=read geom=check nosymm integral(ultrafinegrid)
 -------------------------------------------------------------------

 ------------------------------------------------------
 Candidate Structure: Conf:112 Charge calc in gas phase
 ------------------------------------------------------
 Structure from the checkpoint file:  "conf-112.chk"
 Charge =  1 Multiplicity = 1

                          Input orientation:
 ---------------------------------------------------------------------
 Center     Atomic      Atomic             Coordinates (Angstroms)
 Number     Number       Type             X           Y           Z
 ---------------------------------------------------------------------
      1          7           0       -2.654534   -3.415190    2.392760
      2          1           0       -3.592933   -3.309433    2.005161
      3          1           0       -2.186992   -4.083114    1.774999
      4          6           0       -1.934376   -2.141385    2.259655
      5          1           0       -2.535949   -1.362039    2.745167
      6          6           0       -1.676457   -1.793528    0.774548
      7          6           0       -0.554421   -2.206658    2.941468
      8          1           0        0.062662   -2.944548    2.407053
      9          1           0       -0.042149   -1.240971    2.810738
     10          8           0       -1.242550   -2.658638    0.019303
     11          6           0       -0.540058   -2.547128    4.398050
     12          6           0       -1.482725   -3.196857    5.101693
     13          1           0       -2.417104   -3.642611    4.796727
     14          6           0        0.582065   -2.202397    5.300296
     15          6           0        0.286324   -2.669044    6.582401
     16          6           0        1.792182   -1.534576    5.090200
     17          1           0        2.090425   -1.129227    4.121459
     18          7           0       -1.048927   -3.324692    6.531896
     19          1           0       -1.717344   -2.870912    7.167857
     20          6           0        2.314094   -1.860349    7.463636
     21          1           0        3.000280   -1.718251    8.292688
     22          6           0        1.100885   -2.526659    7.687538
     23          1           0        0.832925   -2.902271    8.670877
     24          6           0        2.643243   -1.379800    6.191678
     25          1           0        3.587028   -0.864050    6.043638
     26          7           0       -1.941767   -0.517300    0.384558
     27          1           0       -2.243679    0.135392    1.094598
     28          6           0       -1.561271    0.030574   -0.932565
     29          1           0       -1.822143    1.093438   -0.866603
     30          6           0       -0.010226   -0.047353   -1.100318
     31          6           0       -2.321850   -0.594254   -2.127571
     32          1           0       -1.831858   -1.547931   -2.343276
     33          8           0        0.527924   -0.527805   -2.096966
     34          6           0       -2.183565    0.278298   -3.400674
     35          1           0       -1.118543    0.409304   -3.614573
     36          1           0       -2.592975   -0.304089   -4.237169
     37          6           0       -3.794978   -0.873974   -1.794021
     38          1           0       -4.317659    0.017106   -1.424997
     39          1           0       -4.322647   -1.217862   -2.691307
     40          1           0       -3.891508   -1.655893   -1.035678
     41          6           0       -2.882391    1.645319   -3.374161
     42          1           0       -2.725548    2.170229   -4.323601
     43          1           0       -2.498373    2.299956   -2.581467
     44          1           0       -3.964476    1.553074   -3.229921
     45          7           0        0.671395    0.497161   -0.060389
     46          1           0        0.163794    0.712103    0.803540
     47          6           0        2.022658    0.097828    0.326977
     48          1           0        2.206288   -0.923802   -0.030114
     49          6           0        2.057030    0.053309    1.899182
     50          6           0        3.133826    1.003939   -0.219321
     51          1           0        2.916780    2.045035    0.056830
     52          1           0        4.059015    0.711577    0.291295
     53          8           0        3.114251   -0.364739    2.410728
     54          6           0        3.290166    0.883980   -1.738624
     55          1           0        2.351036    1.153790   -2.232624
     56          1           0        3.484358   -0.165190   -1.998871
     57          6           0        4.423755    1.749523   -2.284185
     58          1           0        4.245329    2.810291   -2.069040
     59          1           0        5.382430    1.454814   -1.837109
     60          7           0        4.498951    1.576168   -3.753157
     61          1           0        3.905043    0.853535   -4.143591
     62          7           0        6.213373    3.095110   -4.101573
     63          1           0        6.638355    3.795309   -4.692090
     64          1           0        6.385347    3.158478   -3.108706
     65          7           0        5.131168    2.149159   -5.915978
     66          1           0        4.389494    1.586886   -6.308926
     67          1           0        5.878577    2.416502   -6.540771
     68          6           0        5.275516    2.262305   -4.580733
     69          8           0        0.986860    0.409356    2.481196
     70          1           0       -0.998139   -4.312141    6.813692
 ---------------------------------------------------------------------

 SCF Done:  E(RB3LYP) =  -1582.06993333     A.U. after    2 cycles

 Alpha  occ. eigenvalues --  -19.17224 -19.15730 -19.11617 -19.10868 -14.58092
 Alpha  occ. eigenvalues --  -14.52615 -14.52494 -14.52143 -14.42250 -14.38817
 Alpha  occ. eigenvalues --  -14.38144 -10.48752 -10.34547 -10.34092 -10.33932
 Alpha  occ. eigenvalues --  -10.32648 -10.32529 -10.31169 -10.29943 -10.29599
 Alpha  occ. eigenvalues --  -10.29417 -10.29372 -10.28445 -10.28390 -10.27313
 Alpha  occ. eigenvalues --  -10.26910 -10.26688 -10.25621 -10.25449 -10.24242
 Alpha  occ. eigenvalues --  -10.23113 -10.22110 -10.22077 -10.21754  -1.17227
 Alpha  occ. eigenvalues --   -1.13282  -1.09200  -1.07117  -1.06201  -1.05528
 Alpha  occ. eigenvalues --   -1.04580  -0.98331  -0.96345  -0.96086  -0.95257
 Alpha  occ. eigenvalues --   -0.94437  -0.91107  -0.89054  -0.85292  -0.84115
 Alpha  occ. eigenvalues --   -0.83149  -0.82235  -0.81243  -0.79147  -0.77996
 Alpha  occ. eigenvalues --   -0.75890  -0.75130  -0.73398  -0.72498  -0.71698
 Alpha  occ. eigenvalues --   -0.70537  -0.70459  -0.69569  -0.68233  -0.66832
 Alpha  occ. eigenvalues --   -0.65661  -0.65421  -0.64585  -0.64087  -0.63728
 Alpha  occ. eigenvalues --   -0.61171  -0.60860  -0.59367  -0.59284  -0.58351
 Alpha  occ. eigenvalues --   -0.58081  -0.57278  -0.56751  -0.56191  -0.55649
 Alpha  occ. eigenvalues --   -0.53769  -0.52900  -0.52479  -0.51911  -0.51350
 Alpha  occ. eigenvalues --   -0.51155  -0.50521  -0.50048  -0.49616  -0.48582
 Alpha  occ. eigenvalues --   -0.47806  -0.47283  -0.47028  -0.46819  -0.46609
 Alpha  occ. eigenvalues --   -0.45830  -0.45230  -0.44714  -0.44473  -0.43883
 Alpha  occ. eigenvalues --   -0.43721  -0.43408  -0.43202  -0.42779  -0.42531
 Alpha  occ. eigenvalues --   -0.41672  -0.41412  -0.41063  -0.40937  -0.40767
 Alpha  occ. eigenvalues --   -0.40316  -0.39285  -0.38741  -0.37677  -0.37090
 Alpha  occ. eigenvalues --   -0.36551  -0.36325  -0.34569  -0.33144  -0.32734
 Alpha  occ. eigenvalues --   -0.32459  -0.29851  -0.29606  -0.28660  -0.26801
 Alpha  occ. eigenvalues --   -0.26399  -0.24863
 Alpha virt. eigenvalues --   -0.12867  -0.12473  -0.10030  -0.08688  -0.07441
 Alpha virt. eigenvalues --   -0.04972  -0.04736  -0.03847  -0.03722  -0.03199
 Alpha virt. eigenvalues --   -0.02652  -0.00919   0.00279   0.00738   0.00875

 Mulliken charges:
               1
     1  N   -0.722434
     2  H    0.310629
     3  H    0.323793
     4  C   -0.080056
     5  H    0.133162
     6  C    0.623734
     7  C   -0.405283
     8  H    0.192984
     9  H    0.257852
    10  O   -0.529606
    11  C    0.182277
    12  C   -0.118346
    13  H    0.227877
    14  C    0.117799
    15  C    0.155141
    16  C   -0.183110
    17  H    0.263620
    18  N   -0.729653
    19  H    0.414693
    20  C   -0.139320
    21  H    0.164756
    22  C   -0.163042
    23  H    0.158561
    24  C   -0.142239
    25  H    0.175670
    26  N   -0.621373
    27  H    0.333871
    28  C   -0.051790
    29  H    0.152128
    30  C    0.617588
    31  C   -0.065322
    32  H    0.174153
    33  O   -0.547883
    34  C   -0.271856
    35  H    0.150566
    36  H    0.133593
    37  C   -0.455467
    38  H    0.132451
    39  H    0.147881
    40  H    0.143244
    41  C   -0.455931
    42  H    0.142929
    43  H    0.135043
    44  H    0.151903
    45  N   -0.605429
    46  H    0.339205
    47  C   -0.057304
    48  H    0.158100
    49  C    0.599543
    50  C   -0.263331
    51  H    0.137078
    52  H    0.166777
    53  O   -0.589953
    54  C   -0.314053
    55  H    0.184652
    56  H    0.163673
    57  C   -0.146090
    58  H    0.182185
    59  H    0.180674
    60  N   -0.606338
    61  H    0.375709
    62  N   -0.757651
    63  H    0.384425
    64  H    0.396729
    65  N   -0.762974
    66  H    0.386063
    67  H    0.383223
    68  C    0.834743
    69  O   -0.620357
    70  H    0.415514
 Sum of Mulliken charges =   1.00000

 Dipole moment (field-independent basis, Debye):
    X=             12.6942    Y=              1.8462    Z=             -0.4970  Tot=             12.8373
 Quadrupole moment (field-independent basis, Debye-Ang):
   XX=            -71.3801   YY=           -144.9746   ZZ=             30.2755
   XY=             68.5708   XZ=           -124.7295   YZ=           -112.8763

 Normal termination of Gaussian 16 at Thu May 26 00:40:05 2022.
