 Gaussian 16, Revision C.01,
 Gaussian 16:  ES64L-G16RevC.01  3-Jul-2019

 -------------------------------------------------------------------
 # B3LYP/6-31G* guess=read geom=check nosymm integral(ultrafinegrid)
 -------------------------------------------------------------------

 ------------------------------------------------------
 Candidate Structure: Conf:472 Charge calc in gas phase
 ------------------------------------------------------
 Structure from the checkpoint file:  "conf-472.chk"
 Charge =  1 Multiplicity = 1

                          Input orientation:
 ---------------------------------------------------------------------
 Center     Atomic      Atomic             Coordinates (Angstroms)
 Number     Number       Type             X           Y           Z
 ---------------------------------------------------------------------
      1          7           0       -1.775164   -2.455482    4.011663
      2          1           0       -2.687613   -2.317258    4.439901
      3          1           0       -1.860267   -3.284962    3.420779
      4          6           0       -1.452362   -1.330379    3.138537
      5          1           0       -2.051944   -0.458750    3.427551
      6          6           0       -1.764029   -1.701051    1.655675
      7          6           0        0.052386   -0.909839    3.325363
      8          1           0        0.171735    0.154236    3.091635
      9          1           0        0.274611   -1.039914    4.388087
     10          8           0       -1.948092   -2.871475    1.352624
     11          6           0        0.989890   -1.694363    2.457304
     12          6           0        1.527975   -1.203055    1.331103
     13          1           0        1.503585   -0.223772    0.871852
     14          6           0        1.346503   -3.120353    2.560992
     15          6           0        2.074277   -3.471471    1.416681
     16          6           0        1.116222   -4.089381    3.538337
     17          1           0        0.532322   -3.851398    4.421274
     18          7           0        2.112461   -2.298800    0.526959
     19          1           0        1.411536   -2.429685   -0.262522
     20          6           0        2.362012   -5.689748    2.178785
     21          1           0        2.752979   -6.693801    2.048082
     22          6           0        2.586648   -4.731710    1.180853
     23          1           0        3.135235   -4.975691    0.276287
     24          6           0        1.636776   -5.370926    3.332719
     25          1           0        1.472420   -6.137702    4.083710
     26          7           0       -1.801806   -0.663591    0.763306
     27          1           0       -1.627587    0.261535    1.132670
     28          6           0       -1.954561   -0.756956   -0.701517
     29          1           0       -2.200055    0.260976   -1.026308
     30          6           0       -0.610786   -1.168733   -1.335983
     31          6           0       -3.104315   -1.694535   -1.170045
     32          1           0       -2.820965   -2.705968   -0.869211
     33          8           0       -0.077656   -2.251359   -1.043281
     34          6           0       -3.250323   -1.696987   -2.712174
     35          1           0       -2.328894   -2.084545   -3.165381
     36          1           0       -4.027915   -2.433208   -2.951450
     37          6           0       -4.424756   -1.339038   -0.471097
     38          1           0       -4.724545   -0.299386   -0.650347
     39          1           0       -5.227196   -1.984129   -0.845245
     40          1           0       -4.359929   -1.490540    0.609175
     41          6           0       -3.620055   -0.363818   -3.377626
     42          1           0       -3.776748   -0.506708   -4.451885
     43          1           0       -2.830761    0.391231   -3.272928
     44          1           0       -4.542878    0.059320   -2.966878
     45          7           0       -0.064252   -0.330282   -2.249212
     46          1           0       -0.400432    0.623665   -2.275560
     47          6           0        1.291395   -0.581761   -2.746037
     48          1           0        1.369874   -1.661715   -2.876825
     49          6           0        2.323280   -0.132623   -1.674761
     50          6           0        1.547735    0.081063   -4.122214
     51          1           0        2.352927   -0.486710   -4.605853
     52          1           0        0.660708   -0.094918   -4.740481
     53          8           0        3.425435   -0.795257   -1.645727
     54          6           0        1.905534    1.592533   -4.118087
     55          1           0        1.665852    2.044940   -3.149400
     56          1           0        1.313648    2.117488   -4.876777
     57          6           0        3.385377    1.877393   -4.442694
     58          1           0        3.636933    1.494752   -5.438147
     59          1           0        3.556073    2.956903   -4.454838
     60          7           0        4.309829    1.263574   -3.473898
     61          1           0        4.114660    0.290396   -3.225488
     62          7           0        5.395213    3.176508   -2.682604
     63          1           0        5.824828    3.684421   -1.923732
     64          1           0        5.509486    3.554708   -3.611125
     65          7           0        5.250415    1.247508   -1.379324
     66          1           0        4.658833    0.418538   -1.163642
     67          1           0        5.887578    1.623740   -0.692648
     68          6           0        4.982205    1.904292   -2.506097
     69          8           0        2.024983    0.838663   -0.957858
     70          1           0        3.010591   -2.051307    0.079354
 ---------------------------------------------------------------------

 SCF Done:  E(RB3LYP) =  -1582.12751268     A.U. after    1 cycles

 Alpha  occ. eigenvalues --  -19.22361 -19.20318 -19.20257 -19.19372 -14.54120
 Alpha  occ. eigenvalues --  -14.50340 -14.48758 -14.48091 -14.46499 -14.45591
 Alpha  occ. eigenvalues --  -14.38972 -10.45680 -10.39151 -10.37352 -10.37322
 Alpha  occ. eigenvalues --  -10.34513 -10.33609 -10.33085 -10.32536 -10.32110
 Alpha  occ. eigenvalues --  -10.31705 -10.31134 -10.30137 -10.29871 -10.29633
 Alpha  occ. eigenvalues --  -10.29565 -10.28984 -10.28784 -10.28527 -10.28386
 Alpha  occ. eigenvalues --  -10.26748 -10.25578 -10.24932 -10.24371  -1.14447
 Alpha  occ. eigenvalues --   -1.14147  -1.12749  -1.12099  -1.11009  -1.04287
 Alpha  occ. eigenvalues --   -1.03567  -1.02313  -1.02032  -1.01313  -0.96871
 Alpha  occ. eigenvalues --   -0.95315  -0.91471  -0.90337  -0.88863  -0.85036
 Alpha  occ. eigenvalues --   -0.84505  -0.84436  -0.82187  -0.80832  -0.79103
 Alpha  occ. eigenvalues --   -0.77590  -0.75978  -0.73795  -0.72387  -0.71358
 Alpha  occ. eigenvalues --   -0.71113  -0.70743  -0.70220  -0.69395  -0.67741
 Alpha  occ. eigenvalues --   -0.67634  -0.67005  -0.66119  -0.64320  -0.63842
 Alpha  occ. eigenvalues --   -0.63264  -0.62282  -0.61836  -0.60617  -0.59375
 Alpha  occ. eigenvalues --   -0.59208  -0.58974  -0.58473  -0.57629  -0.56924
 Alpha  occ. eigenvalues --   -0.55456  -0.55135  -0.54738  -0.54256  -0.54014
 Alpha  occ. eigenvalues --   -0.53561  -0.53260  -0.52951  -0.52605  -0.51904
 Alpha  occ. eigenvalues --   -0.51859  -0.51546  -0.51010  -0.49884  -0.49314
 Alpha  occ. eigenvalues --   -0.49080  -0.48923  -0.48231  -0.47563  -0.46847
 Alpha  occ. eigenvalues --   -0.46607  -0.46482  -0.46171  -0.45412  -0.45403
 Alpha  occ. eigenvalues --   -0.45176  -0.44993  -0.44291  -0.44033  -0.43461
 Alpha  occ. eigenvalues --   -0.43157  -0.40923  -0.40498  -0.39987  -0.39783
 Alpha  occ. eigenvalues --   -0.39549  -0.38187  -0.37935  -0.37383  -0.35996
 Alpha  occ. eigenvalues --   -0.35087  -0.34177  -0.33703  -0.33307  -0.33141
 Alpha  occ. eigenvalues --   -0.32575  -0.31717
 Alpha virt. eigenvalues --   -0.13144  -0.10393  -0.10243  -0.09161  -0.06493
 Alpha virt. eigenvalues --   -0.06130  -0.05918  -0.05565  -0.03906  -0.02384
 Alpha virt. eigenvalues --   -0.01756  -0.00682  -0.00178   0.00578   0.00724

 Mulliken charges:
               1
     1  N   -0.724844
     2  H    0.317015
     3  H    0.336308
     4  C   -0.093552
     5  H    0.155939
     6  C    0.619292
     7  C   -0.325197
     8  H    0.147885
     9  H    0.192059
    10  O   -0.503519
    11  C    0.134852
    12  C   -0.118315
    13  H    0.230804
    14  C    0.148664
    15  C    0.202429
    16  C   -0.203566
    17  H    0.187867
    18  N   -0.774138
    19  H    0.459608
    20  C   -0.139752
    21  H    0.165080
    22  C   -0.155318
    23  H    0.165771
    24  C   -0.121715
    25  H    0.164446
    26  N   -0.621803
    27  H    0.333335
    28  C   -0.031817
    29  H    0.139673
    30  C    0.647091
    31  C   -0.092023
    32  H    0.195902
    33  O   -0.568703
    34  C   -0.278619
    35  H    0.145156
    36  H    0.156174
    37  C   -0.459736
    38  H    0.139826
    39  H    0.162197
    40  H    0.157816
    41  C   -0.453018
    42  H    0.161285
    43  H    0.116810
    44  H    0.161188
    45  N   -0.567330
    46  H    0.342239
    47  C   -0.041314
    48  H    0.181432
    49  C    0.585508
    50  C   -0.324118
    51  H    0.164520
    52  H    0.179687
    53  O   -0.657070
    54  C   -0.289236
    55  H    0.180898
    56  H    0.167385
    57  C   -0.168920
    58  H    0.187277
    59  H    0.163600
    60  N   -0.604293
    61  H    0.383060
    62  N   -0.756030
    63  H    0.373136
    64  H    0.377622
    65  N   -0.764915
    66  H    0.409796
    67  H    0.355653
    68  C    0.792887
    69  O   -0.561307
    70  H    0.410994
 Sum of Mulliken charges =   1.00000

 Dipole moment (field-independent basis, Debye):
    X=             12.3811    Y=              3.4650    Z=             -5.2468  Tot=             13.8862
 Quadrupole moment (field-independent basis, Debye-Ang):
   XX=           -109.2625   YY=           -152.3900   ZZ=           -144.5292
   XY=             23.7947   XZ=            -30.7527   YZ=            -32.5752

 Normal termination of Gaussian 16 at Thu May 26 00:39:56 2022.
