 Gaussian 16, Revision C.01,
 Gaussian 16:  ES64L-G16RevC.01  3-Jul-2019

 -------------------------------------------------------------------
 # B3LYP/6-31G* guess=read geom=check nosymm integral(ultrafinegrid)
 -------------------------------------------------------------------

 ------------------------------------------------------
 Candidate Structure: Conf:962 Charge calc in gas phase
 ------------------------------------------------------
 Structure from the checkpoint file:  "conf-962.chk"
 Charge =  1 Multiplicity = 1

                          Input orientation:
 ---------------------------------------------------------------------
 Center     Atomic      Atomic             Coordinates (Angstroms)
 Number     Number       Type             X           Y           Z
 ---------------------------------------------------------------------
      1          7           0       -0.865081   -3.296127    0.981308
      2          1           0       -0.390928   -4.013130    0.431984
      3          1           0       -1.569069   -3.777553    1.538925
      4          6           0        0.109403   -2.634960    1.865078
      5          1           0       -0.460076   -1.972559    2.528560
      6          6           0        0.975969   -1.762702    0.934259
      7          6           0        0.959676   -3.597827    2.724092
      8          1           0        0.269118   -4.328811    3.166776
      9          1           0        1.631949   -4.148536    2.057384
     10          8           0        2.057913   -2.130858    0.490270
     11          6           0        1.749589   -2.922751    3.806852
     12          6           0        3.099310   -2.728031    3.824892
     13          1           0        3.849085   -3.022337    3.104439
     14          6           0        1.222107   -2.302454    5.009236
     15          6           0        2.317547   -1.735915    5.706324
     16          6           0       -0.063767   -2.191378    5.563875
     17          1           0       -0.926155   -2.620163    5.059649
     18          7           0        3.462481   -1.934751    4.923488
     19          1           0        4.393618   -1.979724    5.320363
     20          6           0        0.888712   -0.999319    7.463374
     21          1           0        0.739746   -0.506182    8.419400
     22          6           0        2.172669   -1.084488    6.931700
     23          1           0        3.026826   -0.664718    7.456251
     24          6           0       -0.217861   -1.543720    6.784859
     25          1           0       -1.205910   -1.461062    7.228275
     26          7           0        0.423006   -0.546946    0.609083
     27          1           0       -0.544219   -0.420882    0.880861
     28          6           0        0.840306    0.242961   -0.560375
     29          1           0        0.520513    1.270282   -0.332906
     30          6           0        2.386202    0.284521   -0.613887
     31          6           0        0.193916   -0.167264   -1.918976
     32          1           0        0.882186   -0.864798   -2.409371
     33          8           0        3.021015   -0.033362   -1.625996
     34          6           0       -0.023301    1.059445   -2.839295
     35          1           0       -0.504690    0.694737   -3.755341
     36          1           0       -0.763330    1.718043   -2.359982
     37          6           0       -1.163238   -0.866979   -1.731415
     38          1           0       -1.899023   -0.195874   -1.266130
     39          1           0       -1.566434   -1.149720   -2.709711
     40          1           0       -1.099913   -1.770014   -1.119141
     41          6           0        1.195697    1.897813   -3.240090
     42          1           0        0.892501    2.683948   -3.940857
     43          1           0        1.960823    1.284265   -3.726207
     44          1           0        1.659279    2.396465   -2.379973
     45          7           0        2.978112    0.808002    0.491209
     46          1           0        2.376418    0.910231    1.303027
     47          6           0        4.380614    0.542293    0.822812
     48          1           0        4.740639   -0.227733    0.135021
     49          6           0        4.489419   -0.078408    2.219502
     50          6           0        5.322399    1.775815    0.742787
     51          1           0        4.783967    2.664949    1.093383
     52          1           0        6.146302    1.606327    1.443817
     53          8           0        5.438181   -0.748577    2.561932
     54          6           0        5.952946    2.015875   -0.639457
     55          1           0        6.384332    1.071661   -0.995488
     56          1           0        6.789265    2.717779   -0.533944
     57          6           0        4.983520    2.558404   -1.699141
     58          1           0        4.050175    1.996958   -1.716813
     59          1           0        4.722751    3.600808   -1.497766
     60          7           0        5.558997    2.529965   -3.057699
     61          1           0        6.032612    3.362271   -3.381296
     62          7           0        5.023917    0.308978   -3.507076
     63          1           0        5.173792   -0.521464   -4.062548
     64          1           0        4.345724    0.229376   -2.732921
     65          7           0        6.405478    1.483739   -4.947291
     66          1           0        6.925749    2.311870   -5.196684
     67          1           0        6.307761    0.779471   -5.664181
     68          6           0        5.649790    1.438859   -3.828504
     69          8           0        3.450958    0.233138    3.009030
     70          1           0        3.518696   -0.316997    3.831879
 ---------------------------------------------------------------------

 SCF Done:  E(RB3LYP) =  -1582.15946881     A.U. after    1 cycles

 Alpha  occ. eigenvalues --  -19.27744 -19.23121 -19.22341 -19.20610 -14.52194
 Alpha  occ. eigenvalues --  -14.52151 -14.50428 -14.45929 -14.45299 -14.44923
 Alpha  occ. eigenvalues --  -14.40311 -10.48200 -10.40845 -10.39885 -10.37221
 Alpha  occ. eigenvalues --  -10.35224 -10.33607 -10.32950 -10.30563 -10.30462
 Alpha  occ. eigenvalues --  -10.29734 -10.28969 -10.28631 -10.27235 -10.26309
 Alpha  occ. eigenvalues --  -10.26236 -10.25953 -10.25694 -10.25650 -10.25543
 Alpha  occ. eigenvalues --  -10.25388 -10.25067 -10.24733 -10.24432  -1.18938
 Alpha  occ. eigenvalues --   -1.16560  -1.14562  -1.12175  -1.10029  -1.06005
 Alpha  occ. eigenvalues --   -1.04663  -1.04330  -1.03012  -1.01017  -0.97141
 Alpha  occ. eigenvalues --   -0.91464  -0.90651  -0.88927  -0.87097  -0.86464
 Alpha  occ. eigenvalues --   -0.82783  -0.81286  -0.80871  -0.80159  -0.79162
 Alpha  occ. eigenvalues --   -0.77932  -0.77365  -0.74202  -0.72986  -0.72485
 Alpha  occ. eigenvalues --   -0.70823  -0.70356  -0.69313  -0.68826  -0.68637
 Alpha  occ. eigenvalues --   -0.66948  -0.65961  -0.65387  -0.64461  -0.64231
 Alpha  occ. eigenvalues --   -0.62865  -0.61770  -0.61328  -0.60624  -0.60135
 Alpha  occ. eigenvalues --   -0.58639  -0.58338  -0.57781  -0.57455  -0.56309
 Alpha  occ. eigenvalues --   -0.55384  -0.54982  -0.54895  -0.54040  -0.53734
 Alpha  occ. eigenvalues --   -0.53217  -0.52694  -0.52312  -0.51754  -0.51243
 Alpha  occ. eigenvalues --   -0.50567  -0.50240  -0.49844  -0.49682  -0.49599
 Alpha  occ. eigenvalues --   -0.48828  -0.48643  -0.48207  -0.48020  -0.47874
 Alpha  occ. eigenvalues --   -0.46662  -0.46186  -0.45850  -0.45740  -0.44798
 Alpha  occ. eigenvalues --   -0.44610  -0.44301  -0.43680  -0.43065  -0.42437
 Alpha  occ. eigenvalues --   -0.41866  -0.41783  -0.40864  -0.40353  -0.40236
 Alpha  occ. eigenvalues --   -0.40099  -0.40039  -0.39858  -0.38271  -0.36878
 Alpha  occ. eigenvalues --   -0.35146  -0.34900  -0.34618  -0.33454  -0.32086
 Alpha  occ. eigenvalues --   -0.29415  -0.27609
 Alpha virt. eigenvalues --   -0.11681  -0.09199  -0.08840  -0.08149  -0.07703
 Alpha virt. eigenvalues --   -0.06898  -0.05025  -0.04728  -0.03627  -0.01636
 Alpha virt. eigenvalues --   -0.01354  -0.00823   0.00160   0.00325   0.01248

 Mulliken charges:
               1
     1  N   -0.715721
     2  H    0.317891
     3  H    0.319301
     4  C   -0.094250
     5  H    0.153850
     6  C    0.645491
     7  C   -0.357138
     8  H    0.148761
     9  H    0.167107
    10  O   -0.521424
    11  C    0.097273
    12  C   -0.045199
    13  H    0.180061
    14  C    0.104643
    15  C    0.262581
    16  C   -0.214321
    17  H    0.125793
    18  N   -0.725599
    19  H    0.352240
    20  C   -0.148759
    21  H    0.143063
    22  C   -0.167641
    23  H    0.138565
    24  C   -0.134281
    25  H    0.138747
    26  N   -0.619009
    27  H    0.347542
    28  C   -0.059281
    29  H    0.165490
    30  C    0.657710
    31  C   -0.077914
    32  H    0.158527
    33  O   -0.571436
    34  C   -0.259877
    35  H    0.150529
    36  H    0.136683
    37  C   -0.490288
    38  H    0.133963
    39  H    0.156797
    40  H    0.191143
    41  C   -0.453492
    42  H    0.154184
    43  H    0.138473
    44  H    0.128552
    45  N   -0.594039
    46  H    0.371614
    47  C   -0.047743
    48  H    0.197947
    49  C    0.597990
    50  C   -0.283136
    51  H    0.162744
    52  H    0.189282
    53  O   -0.472380
    54  C   -0.273219
    55  H    0.161028
    56  H    0.161020
    57  C   -0.190332
    58  H    0.209735
    59  H    0.185803
    60  N   -0.599406
    61  H    0.358591
    62  N   -0.794655
    63  H    0.370791
    64  H    0.457627
    65  N   -0.768115
    66  H    0.377306
    67  H    0.380419
    68  C    0.822577
    69  O   -0.605326
    70  H    0.464548
 Sum of Mulliken charges =   1.00000

 Dipole moment (field-independent basis, Debye):
    X=             19.8322    Y=              5.3682    Z=             -8.6911  Tot=             22.3085
 Quadrupole moment (field-independent basis, Debye-Ang):
   XX=            -69.5369   YY=           -166.5986   ZZ=           -103.0723
   XY=             47.1619   XZ=            -75.8356   YZ=            -26.7813

 Normal termination of Gaussian 16 at Thu May 26 00:39:57 2022.
