 Gaussian 16, Revision C.01,
 Gaussian 16:  ES64L-G16RevC.01  3-Jul-2019

 -------------------------------------------------------------------
 # B3LYP/6-31G* guess=read geom=check nosymm integral(ultrafinegrid)
 -------------------------------------------------------------------

 ------------------------------------------------------
 Candidate Structure: Conf:123 Charge calc in gas phase
 ------------------------------------------------------
 Structure from the checkpoint file:  "conf-123.chk"
 Charge =  1 Multiplicity = 1

                          Input orientation:
 ---------------------------------------------------------------------
 Center     Atomic      Atomic             Coordinates (Angstroms)
 Number     Number       Type             X           Y           Z
 ---------------------------------------------------------------------
      1          7           0       -1.087384   -3.599722    0.753538
      2          1           0       -1.932172   -3.739769    0.198674
      3          1           0       -0.309557   -3.759500    0.110829
      4          6           0       -1.017088   -2.203989    1.199423
      5          1           0       -1.937436   -1.987470    1.757094
      6          6           0       -0.861687   -1.219269    0.018612
      7          6           0        0.192190   -1.973557    2.124752
      8          1           0        1.114099   -2.151702    1.551882
      9          1           0        0.233949   -0.910272    2.410441
     10          8           0        0.016672   -1.407986   -0.826504
     11          6           0        0.247595   -2.785739    3.378583
     12          6           0       -0.432170   -3.906305    3.674280
     13          1           0       -1.109604   -4.509076    3.089600
     14          6           0        1.107081   -2.424305    4.526709
     15          6           0        0.918333   -3.364574    5.540897
     16          6           0        2.005353   -1.373967    4.736120
     17          1           0        2.202671   -0.605806    3.984122
     18          7           0       -0.078361   -4.360609    5.058537
     19          1           0       -0.908194   -4.389421    5.665514
     20          6           0        2.449886   -2.287558    6.967301
     21          1           0        2.980407   -2.216790    7.911585
     22          6           0        1.551056   -3.345293    6.767237
     23          1           0        1.375521   -4.092828    7.535323
     24          6           0        2.667329   -1.330750    5.969783
     25          1           0        3.369023   -0.522880    6.152960
     26          7           0       -1.704818   -0.155588    0.001953
     27          1           0       -2.377692   -0.076749    0.751745
     28          6           0       -1.594232    0.981722   -0.935538
     29          1           0       -2.200879    1.773601   -0.482352
     30          6           0       -0.119520    1.462695   -0.916027
     31          6           0       -2.137367    0.687802   -2.353216
     32          1           0       -1.403864    0.039082   -2.844164
     33          8           0        0.580528    1.469925   -1.950715
     34          6           0       -2.241351    1.978688   -3.204628
     35          1           0       -1.249291    2.434902   -3.275056
     36          1           0       -2.505301    1.669094   -4.224314
     37          6           0       -3.477834   -0.061702   -2.295685
     38          1           0       -4.234897    0.485576   -1.720947
     39          1           0       -3.872777   -0.200690   -3.307973
     40          1           0       -3.369075   -1.052471   -1.844007
     41          6           0       -3.258635    3.028007   -2.733879
     42          1           0       -3.258051    3.882949   -3.418383
     43          1           0       -3.028017    3.422309   -1.736287
     44          1           0       -4.280280    2.633712   -2.708289
     45          7           0        0.336135    1.820931    0.288416
     46          1           0       -0.232861    1.645965    1.126525
     47          6           0        1.745052    1.720359    0.674005
     48          1           0        2.194591    0.941702    0.053678
     49          6           0        1.767922    1.143687    2.131839
     50          6           0        2.558236    3.028456    0.517269
     51          1           0        2.067783    3.674400   -0.223444
     52          1           0        2.541493    3.579650    1.463087
     53          8           0        2.890822    0.804377    2.557582
     54          6           0        4.022910    2.769763    0.107718
     55          1           0        4.383799    1.883321    0.641095
     56          1           0        4.653830    3.608976    0.425656
     57          6           0        4.226903    2.628131   -1.412444
     58          1           0        3.993265    3.574786   -1.910348
     59          1           0        5.274668    2.413442   -1.650229
     60          7           0        3.359197    1.621081   -2.042058
     61          1           0        2.349740    1.836425   -2.052064
     62          7           0        4.854625   -0.184056   -2.030283
     63          1           0        5.054441   -1.117085   -2.359840
     64          1           0        5.646062    0.437640   -1.962279
     65          7           0        2.601460   -0.502264   -2.515105
     66          1           0        1.646501   -0.161889   -2.378654
     67          1           0        2.726903   -1.499823   -2.422076
     68          6           0        3.612237    0.323949   -2.187983
     69          8           0        0.637740    1.024385    2.691844
     70          1           0        0.310790   -5.312409    5.047619
 ---------------------------------------------------------------------

 SCF Done:  E(RB3LYP) =  -1582.10355035     A.U. after    1 cycles

 Alpha  occ. eigenvalues --  -19.21154 -19.21023 -19.14232 -19.13564 -14.60023
 Alpha  occ. eigenvalues --  -14.48956 -14.46935 -14.46897 -14.45895 -14.42571
 Alpha  occ. eigenvalues --  -14.41726 -10.44223 -10.37886 -10.37416 -10.35795
 Alpha  occ. eigenvalues --  -10.34801 -10.33422 -10.32557 -10.32450 -10.32060
 Alpha  occ. eigenvalues --  -10.31995 -10.31682 -10.31505 -10.30112 -10.29117
 Alpha  occ. eigenvalues --  -10.28605 -10.28411 -10.28263 -10.26424 -10.26316
 Alpha  occ. eigenvalues --  -10.25624 -10.24505 -10.24349 -10.23671  -1.15212
 Alpha  occ. eigenvalues --   -1.13108  -1.12746  -1.11618  -1.07287  -1.02201
 Alpha  occ. eigenvalues --   -1.02001  -1.00824  -0.99725  -0.98929  -0.97947
 Alpha  occ. eigenvalues --   -0.97253  -0.93238  -0.88369  -0.87350  -0.85995
 Alpha  occ. eigenvalues --   -0.85360  -0.83682  -0.82552  -0.80389  -0.78320
 Alpha  occ. eigenvalues --   -0.76441  -0.75089  -0.73893  -0.73250  -0.72326
 Alpha  occ. eigenvalues --   -0.71651  -0.70577  -0.69917  -0.69051  -0.67867
 Alpha  occ. eigenvalues --   -0.67316  -0.65720  -0.65398  -0.64817  -0.62832
 Alpha  occ. eigenvalues --   -0.62321  -0.61648  -0.60483  -0.60284  -0.60037
 Alpha  occ. eigenvalues --   -0.59064  -0.58553  -0.57158  -0.56096  -0.55888
 Alpha  occ. eigenvalues --   -0.55694  -0.54967  -0.54525  -0.53993  -0.53494
 Alpha  occ. eigenvalues --   -0.53138  -0.52750  -0.52300  -0.51739  -0.51222
 Alpha  occ. eigenvalues --   -0.50646  -0.50133  -0.49512  -0.49195  -0.48406
 Alpha  occ. eigenvalues --   -0.47895  -0.47833  -0.46825  -0.46606  -0.46439
 Alpha  occ. eigenvalues --   -0.45887  -0.45530  -0.44972  -0.44663  -0.44413
 Alpha  occ. eigenvalues --   -0.44307  -0.43377  -0.42679  -0.42206  -0.41479
 Alpha  occ. eigenvalues --   -0.40986  -0.40160  -0.39844  -0.39573  -0.39241
 Alpha  occ. eigenvalues --   -0.38975  -0.36742  -0.36465  -0.36381  -0.36034
 Alpha  occ. eigenvalues --   -0.34551  -0.33770  -0.33597  -0.33064  -0.29420
 Alpha  occ. eigenvalues --   -0.28967  -0.27619
 Alpha virt. eigenvalues --   -0.14847  -0.11835  -0.09196  -0.08600  -0.08234
 Alpha virt. eigenvalues --   -0.07023  -0.06363  -0.05237  -0.02735  -0.02351
 Alpha virt. eigenvalues --   -0.01575  -0.01443  -0.00223   0.00436   0.01152

 Mulliken charges:
               1
     1  N   -0.715332
     2  H    0.314886
     3  H    0.317215
     4  C   -0.083469
     5  H    0.139234
     6  C    0.632955
     7  C   -0.398855
     8  H    0.185126
     9  H    0.257670
    10  O   -0.564888
    11  C    0.182155
    12  C   -0.118479
    13  H    0.225663
    14  C    0.116917
    15  C    0.155521
    16  C   -0.184469
    17  H    0.262049
    18  N   -0.730388
    19  H    0.418188
    20  C   -0.138074
    21  H    0.171712
    22  C   -0.161534
    23  H    0.164546
    24  C   -0.141006
    25  H    0.179401
    26  N   -0.613456
    27  H    0.343124
    28  C   -0.052768
    29  H    0.170143
    30  C    0.631947
    31  C   -0.065956
    32  H    0.152063
    33  O   -0.594477
    34  C   -0.275810
    35  H    0.162034
    36  H    0.143095
    37  C   -0.459732
    38  H    0.142712
    39  H    0.160742
    40  H    0.137160
    41  C   -0.460556
    42  H    0.161359
    43  H    0.140082
    44  H    0.153630
    45  N   -0.572022
    46  H    0.353068
    47  C   -0.069435
    48  H    0.140223
    49  C    0.599508
    50  C   -0.273866
    51  H    0.144178
    52  H    0.174286
    53  O   -0.580222
    54  C   -0.272714
    55  H    0.184174
    56  H    0.158583
    57  C   -0.177459
    58  H    0.188508
    59  H    0.150080
    60  N   -0.601730
    61  H    0.412439
    62  N   -0.755858
    63  H    0.368209
    64  H    0.376598
    65  N   -0.771143
    66  H    0.428904
    67  H    0.357070
    68  C    0.770613
    69  O   -0.611762
    70  H    0.417690
 Sum of Mulliken charges =   1.00000

 Dipole moment (field-independent basis, Debye):
    X=              5.4501    Y=            -13.0843    Z=              7.7567  Tot=             16.1576
 Quadrupole moment (field-independent basis, Debye-Ang):
   XX=           -133.6366   YY=           -122.9825   ZZ=           -102.2340
   XY=              4.1168   XZ=            -22.7626   YZ=            -74.9595

 Normal termination of Gaussian 16 at Thu May 26 00:39:57 2022.
