 Gaussian 16, Revision C.01,
 Gaussian 16:  ES64L-G16RevC.01  3-Jul-2019

 -------------------------------------------------------------------
 # B3LYP/6-31G* guess=read geom=check nosymm integral(ultrafinegrid)
 -------------------------------------------------------------------

 ------------------------------------------------------
 Candidate Structure: Conf:234 Charge calc in gas phase
 ------------------------------------------------------
 Structure from the checkpoint file:  "conf-234.chk"
 Charge =  1 Multiplicity = 1

                          Input orientation:
 ---------------------------------------------------------------------
 Center     Atomic      Atomic             Coordinates (Angstroms)
 Number     Number       Type             X           Y           Z
 ---------------------------------------------------------------------
      1          7           0       -1.340700   -2.288410    2.023208
      2          1           0       -1.365702   -3.137890    1.459533
      3          1           0       -1.672017   -2.543037    2.951173
      4          6           0        0.022369   -1.748353    2.089386
      5          1           0        0.009992   -0.970591    2.864464
      6          6           0        0.317158   -0.989343    0.781536
      7          6           0        1.138938   -2.762829    2.448729
      8          1           0        0.727865   -3.418291    3.227366
      9          1           0        1.341376   -3.401698    1.581996
     10          8           0        1.445327   -0.944677    0.281003
     11          6           0        2.424687   -2.148196    2.945256
     12          6           0        2.590069   -1.435637    4.102414
     13          1           0        1.868279   -1.183387    4.867800
     14          6           0        3.727045   -2.201796    2.317566
     15          6           0        4.631433   -1.484904    3.144869
     16          6           0        4.218113   -2.820199    1.154440
     17          1           0        3.552675   -3.389342    0.511214
     18          7           0        3.901451   -0.963447    4.209725
     19          1           0        3.502205    1.226435    3.544866
     20          6           0        6.456927   -2.003846    1.695156
     21          1           0        7.519194   -1.983024    1.465194
     22          6           0        5.992154   -1.373406    2.849088
     23          1           0        6.672016   -0.836400    3.505243
     24          6           0        5.576236   -2.723258    0.855457
     25          1           0        5.973995   -3.238492   -0.015181
     26          7           0       -0.746734   -0.301475    0.294156
     27          1           0       -1.640534   -0.546799    0.710447
     28          6           0       -0.695777    0.568130   -0.888855
     29          1           0       -1.523519    1.280353   -0.764542
     30          6           0        0.622614    1.373246   -0.806943
     31          6           0       -0.880883   -0.153714   -2.247109
     32          1           0        0.063198   -0.662768   -2.476719
     33          8           0        1.461674    1.378738   -1.714998
     34          6           0       -1.160634    0.885803   -3.356603
     35          1           0       -2.165484    1.305681   -3.199768
     36          1           0       -0.454164    1.716693   -3.260386
     37          6           0       -2.002136   -1.200222   -2.163609
     38          1           0       -2.963348   -0.736254   -1.904755
     39          1           0       -2.131223   -1.703724   -3.125546
     40          1           0       -1.787875   -1.972301   -1.418271
     41          6           0       -1.055360    0.326649   -4.780122
     42          1           0       -1.227791    1.118270   -5.516947
     43          1           0       -1.788994   -0.462870   -4.973381
     44          1           0       -0.057560   -0.088406   -4.966116
     45          7           0        0.805000    2.056733    0.355910
     46          1           0        0.137169    1.886036    1.102984
     47          6           0        2.166797    2.285883    0.825311
     48          1           0        2.793815    1.567375    0.304855
     49          6           0        2.231621    1.838494    2.281664
     50          6           0        2.720591    3.710857    0.546547
     51          1           0        2.184845    4.095439   -0.328828
     52          1           0        2.466364    4.378589    1.377220
     53          8           0        3.504597    1.714157    2.693671
     54          6           0        4.242416    3.756425    0.292141
     55          1           0        4.763241    3.155836    1.046163
     56          1           0        4.592022    4.787477    0.424693
     57          6           0        4.681375    3.329606   -1.124242
     58          1           0        4.257250    4.008334   -1.869709
     59          1           0        5.768826    3.418252   -1.227485
     60          7           0        4.256322    1.981460   -1.535593
     61          1           0        3.286669    1.909998   -1.858761
     62          7           0        5.958087    0.770808   -0.476553
     63          1           0        6.232885   -0.041471    0.065321
     64          1           0        6.582241    1.561636   -0.495761
     65          7           0        3.991418   -0.275277   -1.103178
     66          1           0        2.981099   -0.195519   -1.207616
     67          1           0        4.307880   -1.113378   -0.624432
     68          6           0        4.735533    0.835375   -1.028573
     69          8           0        1.266671    1.565168    2.963865
     70          1           0        4.324929   -0.760097    5.106945
 ---------------------------------------------------------------------

 SCF Done:  E(RB3LYP) =  -1582.18107313     A.U. after    1 cycles

 Alpha  occ. eigenvalues --  -19.30403 -19.25308 -19.23605 -19.22285 -14.49841
 Alpha  occ. eigenvalues --  -14.48648 -14.48373 -14.47984 -14.46452 -14.45916
 Alpha  occ. eigenvalues --  -14.42547 -10.45519 -10.43254 -10.40360 -10.38842
 Alpha  occ. eigenvalues --  -10.34795 -10.34614 -10.33595 -10.32544 -10.32440
 Alpha  occ. eigenvalues --  -10.31879 -10.30153 -10.30065 -10.29751 -10.29222
 Alpha  occ. eigenvalues --  -10.29095 -10.28991 -10.28966 -10.28924 -10.28641
 Alpha  occ. eigenvalues --  -10.27577 -10.25576 -10.25451 -10.24209  -1.21518
 Alpha  occ. eigenvalues --   -1.15348  -1.14055  -1.13494  -1.12767  -1.07890
 Alpha  occ. eigenvalues --   -1.03943  -1.03540  -1.02400  -1.01989  -0.99048
 Alpha  occ. eigenvalues --   -0.94412  -0.91109  -0.90010  -0.89390  -0.86504
 Alpha  occ. eigenvalues --   -0.84560  -0.83868  -0.82516  -0.80890  -0.80223
 Alpha  occ. eigenvalues --   -0.78873  -0.76452  -0.75148  -0.73289  -0.72421
 Alpha  occ. eigenvalues --   -0.71851  -0.71111  -0.70354  -0.69494  -0.68964
 Alpha  occ. eigenvalues --   -0.67836  -0.67026  -0.66015  -0.64796  -0.63941
 Alpha  occ. eigenvalues --   -0.63258  -0.62901  -0.61955  -0.61470  -0.60424
 Alpha  occ. eigenvalues --   -0.59014  -0.58801  -0.58443  -0.58272  -0.58000
 Alpha  occ. eigenvalues --   -0.57445  -0.56891  -0.56307  -0.56012  -0.54805
 Alpha  occ. eigenvalues --   -0.54475  -0.54135  -0.53777  -0.53302  -0.52981
 Alpha  occ. eigenvalues --   -0.52920  -0.52241  -0.51858  -0.51037  -0.50766
 Alpha  occ. eigenvalues --   -0.50454  -0.49898  -0.49322  -0.49244  -0.48903
 Alpha  occ. eigenvalues --   -0.48185  -0.47302  -0.46465  -0.46144  -0.46080
 Alpha  occ. eigenvalues --   -0.45515  -0.45139  -0.44981  -0.44661  -0.44213
 Alpha  occ. eigenvalues --   -0.43751  -0.43387  -0.42832  -0.41920  -0.40613
 Alpha  occ. eigenvalues --   -0.40370  -0.40062  -0.39208  -0.38124  -0.38016
 Alpha  occ. eigenvalues --   -0.37676  -0.36722  -0.36537  -0.35089  -0.34362
 Alpha  occ. eigenvalues --   -0.33152  -0.30724
 Alpha virt. eigenvalues --   -0.12019  -0.10652  -0.10226  -0.09722  -0.08925
 Alpha virt. eigenvalues --   -0.08433  -0.05465  -0.04652  -0.02822  -0.01743
 Alpha virt. eigenvalues --   -0.00918  -0.00418  -0.00012   0.00645   0.00847

 Mulliken charges:
               1
     1  N   -0.740764
     2  H    0.320151
     3  H    0.326193
     4  C   -0.086635
     5  H    0.194339
     6  C    0.627484
     7  C   -0.357165
     8  H    0.160608
     9  H    0.159730
    10  O   -0.570059
    11  C    0.109648
    12  C   -0.024708
    13  H    0.172221
    14  C    0.114988
    15  C    0.285026
    16  C   -0.234483
    17  H    0.154630
    18  N   -0.708701
    19  H    0.432027
    20  C   -0.195469
    21  H    0.153432
    22  C   -0.162434
    23  H    0.149518
    24  C   -0.177720
    25  H    0.155180
    26  N   -0.616759
    27  H    0.370745
    28  C   -0.043174
    29  H    0.174072
    30  C    0.626680
    31  C   -0.061828
    32  H    0.146348
    33  O   -0.564646
    34  C   -0.267572
    35  H    0.134287
    36  H    0.150808
    37  C   -0.467304
    38  H    0.145251
    39  H    0.169980
    40  H    0.141924
    41  C   -0.452756
    42  H    0.157940
    43  H    0.154577
    44  H    0.148865
    45  N   -0.581568
    46  H    0.360181
    47  C   -0.045451
    48  H    0.178100
    49  C    0.604519
    50  C   -0.279937
    51  H    0.175911
    52  H    0.174143
    53  O   -0.574551
    54  C   -0.286826
    55  H    0.170676
    56  H    0.172370
    57  C   -0.177671
    58  H    0.194268
    59  H    0.167120
    60  N   -0.598070
    61  H    0.403852
    62  N   -0.774577
    63  H    0.381775
    64  H    0.373820
    65  N   -0.770401
    66  H    0.415940
    67  H    0.375814
    68  C    0.760718
    69  O   -0.474886
    70  H    0.350257
 Sum of Mulliken charges =   1.00000

 Dipole moment (field-independent basis, Debye):
    X=             15.0055    Y=              1.7498    Z=              5.2346  Tot=             15.9884
 Quadrupole moment (field-independent basis, Debye-Ang):
   XX=            -94.8792   YY=           -166.9954   ZZ=           -162.3438
   XY=             21.9736   XZ=             17.6346   YZ=            -10.1021

 Normal termination of Gaussian 16 at Thu May 26 00:40:02 2022.
