 Gaussian 16, Revision C.01,
 Gaussian 16:  ES64L-G16RevC.01  3-Jul-2019

 -------------------------------------------------------------------
 # B3LYP/6-31G* guess=read geom=check nosymm integral(ultrafinegrid)
 -------------------------------------------------------------------

 ------------------------------------------------------
 Candidate Structure: Conf:883 Charge calc in gas phase
 ------------------------------------------------------
 Structure from the checkpoint file:  "conf-883.chk"
 Charge =  1 Multiplicity = 1

                          Input orientation:
 ---------------------------------------------------------------------
 Center     Atomic      Atomic             Coordinates (Angstroms)
 Number     Number       Type             X           Y           Z
 ---------------------------------------------------------------------
      1          7           0       -1.297302   -4.201647    1.721371
      2          1           0       -2.193718   -4.357156    1.259793
      3          1           0       -0.595554   -4.616169    1.102435
      4          6           0       -1.012239   -2.765642    1.769725
      5          1           0       -1.898704   -2.244148    2.151647
      6          6           0       -0.590065   -2.215753    0.390865
      7          6           0        0.204483   -2.492767    2.700057
      8          1           0        0.933288   -3.292835    2.520863
      9          1           0        0.683405   -1.552316    2.412931
     10          8           0        0.235664   -2.833301   -0.272154
     11          6           0       -0.086047   -2.395682    4.168330
     12          6           0        0.191734   -1.285046    4.872563
     13          1           0        0.614241   -0.328649    4.560177
     14          6           0       -0.626147   -3.426520    5.078832
     15          6           0       -0.650440   -2.907936    6.375660
     16          6           0       -1.072026   -4.734737    4.879247
     17          1           0       -1.097408   -5.140000    3.872125
     18          7           0       -0.132593   -1.514493    6.318121
     19          1           0        0.706940   -1.396000    6.900382
     20          6           0       -1.518675   -4.905948    7.277410
     21          1           0       -1.867215   -5.494846    8.119663
     22          6           0       -1.080083   -3.592528    7.494966
     23          1           0       -1.082143   -3.154338    8.488765
     24          6           0       -1.513810   -5.459130    5.991809
     25          1           0       -1.864789   -6.477334    5.854301
     26          7           0       -1.113155   -1.015580    0.024207
     27          1           0       -1.837943   -0.615178    0.602659
     28          6           0       -0.598249   -0.206265   -1.098793
     29          1           0       -1.145227    0.741315   -1.014876
     30          6           0        0.905316    0.117904   -0.825123
     31          6           0       -0.833664   -0.782161   -2.521714
     32          1           0        0.084727   -1.304127   -2.807183
     33          8           0        1.792677   -0.091572   -1.639892
     34          6           0       -1.094018    0.353492   -3.541262
     35          1           0       -1.238309   -0.118185   -4.521861
     36          1           0       -2.057685    0.827328   -3.294492
     37          6           0       -2.001305   -1.778405   -2.574953
     38          1           0       -2.939567   -1.330117   -2.222219
     39          1           0       -2.162434   -2.100630   -3.609525
     40          1           0       -1.797802   -2.672673   -1.981036
     41          6           0       -0.018572    1.437694   -3.679447
     42          1           0       -0.287414    2.130508   -4.485241
     43          1           0        0.958899    1.003552   -3.905804
     44          1           0        0.093613    2.032872   -2.765045
     45          7           0        1.122589    0.699353    0.390215
     46          1           0        0.397321    0.659047    1.098566
     47          6           0        2.452093    0.869090    0.971567
     48          1           0        3.008266   -0.074026    0.861026
     49          6           0        2.260821    1.125400    2.496584
     50          6           0        3.271821    1.964617    0.258257
     51          1           0        4.328600    1.805171    0.501046
     52          1           0        3.173258    1.788688   -0.815076
     53          8           0        3.236336    1.660212    3.103050
     54          6           0        2.863885    3.411077    0.627489
     55          1           0        1.918235    3.404675    1.183230
     56          1           0        2.682949    4.009836   -0.273126
     57          6           0        3.950752    4.086141    1.483116
     58          1           0        4.367457    3.358520    2.178073
     59          1           0        4.767367    4.457983    0.855760
     60          7           0        3.468163    5.230116    2.274876
     61          1           0        3.235859    6.077821    1.772984
     62          7           0        3.020312    4.047745    4.241925
     63          1           0        2.912770    4.101874    5.244932
     64          1           0        3.062522    3.071429    3.814416
     65          7           0        2.743307    6.359284    4.150715
     66          1           0        3.169163    7.217460    3.829615
     67          1           0        2.429474    6.359012    5.110024
     68          6           0        3.086367    5.181657    3.557203
     69          8           0        1.158964    0.788550    3.004345
     70          1           0       -0.824705   -0.834124    6.658014
 ---------------------------------------------------------------------

 SCF Done:  E(RB3LYP) =  -1582.09610877     A.U. after    2 cycles

 Alpha  occ. eigenvalues --  -19.18857 -19.16959 -19.16751 -19.16590 -14.60349
 Alpha  occ. eigenvalues --  -14.49302 -14.48890 -14.46977 -14.43940 -14.40430
 Alpha  occ. eigenvalues --  -14.40429 -10.44941 -10.36634 -10.35755 -10.34688
 Alpha  occ. eigenvalues --  -10.34504 -10.33813 -10.33334 -10.32676 -10.32537
 Alpha  occ. eigenvalues --  -10.31635 -10.31214 -10.31152 -10.30542 -10.30196
 Alpha  occ. eigenvalues --  -10.29651 -10.28810 -10.28049 -10.26231 -10.24322
 Alpha  occ. eigenvalues --  -10.23674 -10.22737 -10.22135 -10.21396  -1.15619
 Alpha  occ. eigenvalues --   -1.13308  -1.10934  -1.09983  -1.08394  -1.02761
 Alpha  occ. eigenvalues --   -1.01672  -1.00620  -0.99934  -0.98429  -0.97508
 Alpha  occ. eigenvalues --   -0.96743  -0.93715  -0.87044  -0.86915  -0.86300
 Alpha  occ. eigenvalues --   -0.85739  -0.83214  -0.81613  -0.78800  -0.76739
 Alpha  occ. eigenvalues --   -0.75820  -0.75012  -0.73747  -0.72794  -0.72721
 Alpha  occ. eigenvalues --   -0.72505  -0.70543  -0.68368  -0.68093  -0.67266
 Alpha  occ. eigenvalues --   -0.67001  -0.66220  -0.65901  -0.62992  -0.62038
 Alpha  occ. eigenvalues --   -0.61515  -0.61413  -0.60917  -0.60688  -0.59639
 Alpha  occ. eigenvalues --   -0.58922  -0.57770  -0.57015  -0.56553  -0.55216
 Alpha  occ. eigenvalues --   -0.55030  -0.54739  -0.54618  -0.53877  -0.53185
 Alpha  occ. eigenvalues --   -0.52491  -0.52232  -0.50986  -0.50334  -0.49888
 Alpha  occ. eigenvalues --   -0.49685  -0.48871  -0.48426  -0.48053  -0.47794
 Alpha  occ. eigenvalues --   -0.47438  -0.46674  -0.46446  -0.45927  -0.45708
 Alpha  occ. eigenvalues --   -0.45524  -0.45206  -0.44756  -0.44639  -0.44326
 Alpha  occ. eigenvalues --   -0.43705  -0.42004  -0.41584  -0.41198  -0.40925
 Alpha  occ. eigenvalues --   -0.40193  -0.39731  -0.39657  -0.38122  -0.37652
 Alpha  occ. eigenvalues --   -0.37249  -0.36864  -0.36403  -0.35216  -0.34457
 Alpha  occ. eigenvalues --   -0.33960  -0.32939  -0.31527  -0.31410  -0.31042
 Alpha  occ. eigenvalues --   -0.30287  -0.29419
 Alpha virt. eigenvalues --   -0.15507  -0.12968  -0.09533  -0.09215  -0.07783
 Alpha virt. eigenvalues --   -0.06143  -0.05063  -0.04122  -0.03091  -0.02745
 Alpha virt. eigenvalues --   -0.02217  -0.01785  -0.01094  -0.00835   0.01435

 Mulliken charges:
               1
     1  N   -0.715868
     2  H    0.316314
     3  H    0.331525
     4  C   -0.082025
     5  H    0.134541
     6  C    0.623493
     7  C   -0.367696
     8  H    0.192265
     9  H    0.210313
    10  O   -0.520500
    11  C    0.146690
    12  C   -0.123655
    13  H    0.263905
    14  C    0.137221
    15  C    0.155940
    16  C   -0.185666
    17  H    0.219019
    18  N   -0.729787
    19  H    0.420619
    20  C   -0.137948
    21  H    0.175527
    22  C   -0.158583
    23  H    0.167615
    24  C   -0.122677
    25  H    0.175272
    26  N   -0.626513
    27  H    0.326823
    28  C   -0.046487
    29  H    0.152334
    30  C    0.633726
    31  C   -0.074145
    32  H    0.181921
    33  O   -0.512684
    34  C   -0.261717
    35  H    0.143695
    36  H    0.118936
    37  C   -0.455928
    38  H    0.122624
    39  H    0.153584
    40  H    0.152802
    41  C   -0.450473
    42  H    0.141240
    43  H    0.177047
    44  H    0.126560
    45  N   -0.621700
    46  H    0.329499
    47  C   -0.049268
    48  H    0.174731
    49  C    0.587613
    50  C   -0.268254
    51  H    0.149842
    52  H    0.188937
    53  O   -0.613704
    54  C   -0.268001
    55  H    0.147049
    56  H    0.146889
    57  C   -0.183005
    58  H    0.217520
    59  H    0.176156
    60  N   -0.595782
    61  H    0.352385
    62  N   -0.785338
    63  H    0.345381
    64  H    0.451495
    65  N   -0.765223
    66  H    0.368266
    67  H    0.363260
    68  C    0.789389
    69  O   -0.584357
    70  H    0.417017
 Sum of Mulliken charges =   1.00000

 Dipole moment (field-independent basis, Debye):
    X=              0.5400    Y=              8.1534    Z=             28.7802  Tot=             29.9177
 Quadrupole moment (field-independent basis, Debye-Ang):
   XX=           -175.1623   YY=            -67.6647   ZZ=            -18.1516
   XY=             62.6556   XZ=             12.3006   YZ=              5.0289

 Normal termination of Gaussian 16 at Thu May 26 00:40:09 2022.
