 Gaussian 16, Revision C.01,
 Gaussian 16:  ES64L-G16RevC.01  3-Jul-2019

 -------------------------------------------------------------------
 # B3LYP/6-31G* guess=read geom=check nosymm integral(ultrafinegrid)
 -------------------------------------------------------------------

 -----------------------------------------------------
 Candidate Structure: Conf:34 Charge calc in gas phase
 -----------------------------------------------------
 Structure from the checkpoint file:  "conf-34.chk"
 Charge =  1 Multiplicity = 1

                          Input orientation:
 ---------------------------------------------------------------------
 Center     Atomic      Atomic             Coordinates (Angstroms)
 Number     Number       Type             X           Y           Z
 ---------------------------------------------------------------------
      1          7           0       -0.620412   -4.223989    2.131308
      2          1           0       -1.563510   -4.455301    1.818089
      3          1           0        0.004061   -4.580882    1.403629
      4          6           0       -0.450627   -2.767961    2.148389
      5          1           0       -1.298189   -2.325369    2.686192
      6          6           0       -0.336082   -2.185640    0.723151
      7          6           0        0.878419   -2.393170    2.861599
      8          1           0        1.625763   -3.142611    2.573105
      9          1           0        1.228465   -1.422020    2.499585
     10          8           0        0.411286   -2.720694   -0.088920
     11          6           0        0.816930   -2.286745    4.357499
     12          6           0        1.090672   -1.134354    4.991825
     13          1           0        1.344775   -0.148088    4.584565
     14          6           0        0.528931   -3.337025    5.355462
     15          6           0        0.657078   -2.785929    6.633138
     16          6           0        0.183107   -4.685497    5.246273
     17          1           0        0.038184   -5.120481    4.262020
     18          7           0        1.018728   -1.352545    6.474206
     19          1           0        1.922281   -1.131560    6.913007
     20          6           0        0.135119   -4.830742    7.686808
     21          1           0       -0.020437   -5.425453    8.581165
     22          6           0        0.474608   -3.476864    7.814639
     23          1           0        0.584691   -3.012402    8.790295
     24          6           0       -0.008622   -5.416510    6.423769
     25          1           0       -0.279336   -6.465933    6.356793
     26          7           0       -1.051499   -1.056272    0.468360
     27          1           0       -1.663623   -0.712012    1.194400
     28          6           0       -0.886178   -0.228426   -0.740863
     29          1           0       -1.597240    0.597265   -0.604693
     30          6           0        0.539852    0.407532   -0.745959
     31          6           0       -1.226694   -0.933255   -2.077153
     32          1           0       -0.349043   -1.518237   -2.367699
     33          8           0        1.268822    0.392143   -1.733181
     34          6           0       -1.482050    0.137327   -3.163735
     35          1           0       -2.450426    0.622696   -2.964907
     36          1           0       -0.713918    0.912717   -3.085172
     37          6           0       -2.429709   -1.875772   -1.931641
     38          1           0       -3.313058   -1.346060   -1.549755
     39          1           0       -2.698968   -2.305492   -2.901269
     40          1           0       -2.212433   -2.709084   -1.258004
     41          6           0       -1.464720   -0.409997   -4.595287
     42          1           0       -1.626737    0.395682   -5.320335
     43          1           0       -2.243424   -1.161634   -4.764950
     44          1           0       -0.496871   -0.872476   -4.821335
     45          7           0        0.867119    1.028471    0.420042
     46          1           0        0.343869    0.801704    1.264797
     47          6           0        2.227946    1.403329    0.778840
     48          1           0        2.921534    0.641618    0.393377
     49          6           0        2.338685    1.407946    2.354103
     50          6           0        2.692930    2.770005    0.267614
     51          1           0        1.994471    3.534391    0.647125
     52          1           0        3.649565    2.896352    0.785976
     53          8           0        3.332688    1.971995    2.841183
     54          6           0        2.877955    2.962786   -1.238139
     55          1           0        1.919555    2.905500   -1.762858
     56          1           0        3.490492    2.157374   -1.660211
     57          6           0        3.508049    4.323444   -1.560112
     58          1           0        3.518971    4.508672   -2.638514
     59          1           0        2.951858    5.144004   -1.095503
     60          7           0        4.919205    4.451046   -1.119195
     61          1           0        5.612907    4.018237   -1.716537
     62          7           0        4.554916    5.348575    1.003774
     63          1           0        4.910307    5.898230    1.773889
     64          1           0        3.752240    4.759330    1.201872
     65          7           0        6.683789    5.339998    0.088328
     66          1           0        7.283964    5.335339   -0.724039
     67          1           0        7.126398    5.446704    0.990002
     68          6           0        5.376263    5.024244   -0.007135
     69          8           0        1.378755    0.827090    2.956971
     70          1           0        0.324536   -0.728595    6.905705
 ---------------------------------------------------------------------

 SCF Done:  E(RB3LYP) =  -1582.07672513     A.U. after    1 cycles

 Alpha  occ. eigenvalues --  -19.17962 -19.16382 -19.13636 -19.12471 -14.58662
 Alpha  occ. eigenvalues --  -14.51743 -14.51543 -14.50730 -14.43078 -14.39460
 Alpha  occ. eigenvalues --  -14.39416 -10.47713 -10.35239 -10.34881 -10.33864
 Alpha  occ. eigenvalues --  -10.33362 -10.32497 -10.31485 -10.31422 -10.31222
 Alpha  occ. eigenvalues --  -10.31178 -10.30400 -10.29931 -10.29389 -10.29089
 Alpha  occ. eigenvalues --  -10.28996 -10.27107 -10.26897 -10.26666 -10.25440
 Alpha  occ. eigenvalues --  -10.23278 -10.22057 -10.21849 -10.21201  -1.16038
 Alpha  occ. eigenvalues --   -1.13963  -1.09973  -1.07989  -1.06177  -1.05248
 Alpha  occ. eigenvalues --   -1.04158  -0.99175  -0.97940  -0.97102  -0.96357
 Alpha  occ. eigenvalues --   -0.95711  -0.92159  -0.88623  -0.85750  -0.85622
 Alpha  occ. eigenvalues --   -0.84659  -0.82581  -0.81748  -0.78950  -0.77998
 Alpha  occ. eigenvalues --   -0.75701  -0.74248  -0.73566  -0.73437  -0.72108
 Alpha  occ. eigenvalues --   -0.71250  -0.71032  -0.69953  -0.67938  -0.67256
 Alpha  occ. eigenvalues --   -0.66283  -0.65183  -0.64802  -0.64547  -0.64461
 Alpha  occ. eigenvalues --   -0.61996  -0.60409  -0.59984  -0.59562  -0.58940
 Alpha  occ. eigenvalues --   -0.58418  -0.57629  -0.56755  -0.56413  -0.55708
 Alpha  occ. eigenvalues --   -0.54199  -0.54004  -0.53449  -0.53260  -0.52603
 Alpha  occ. eigenvalues --   -0.51677  -0.50956  -0.50667  -0.50080  -0.49232
 Alpha  occ. eigenvalues --   -0.48859  -0.48477  -0.48017  -0.47488  -0.47351
 Alpha  occ. eigenvalues --   -0.47094  -0.46072  -0.45834  -0.45164  -0.44614
 Alpha  occ. eigenvalues --   -0.44424  -0.43773  -0.43657  -0.43174  -0.43003
 Alpha  occ. eigenvalues --   -0.42184  -0.41916  -0.41787  -0.41536  -0.40967
 Alpha  occ. eigenvalues --   -0.39871  -0.39854  -0.39596  -0.39186  -0.37766
 Alpha  occ. eigenvalues --   -0.36747  -0.36426  -0.36287  -0.33888  -0.33518
 Alpha  occ. eigenvalues --   -0.33302  -0.30423  -0.30318  -0.29319  -0.28689
 Alpha  occ. eigenvalues --   -0.28374  -0.26562
 Alpha virt. eigenvalues --   -0.13970  -0.12280  -0.11711  -0.07850  -0.07688
 Alpha virt. eigenvalues --   -0.06359  -0.04070  -0.03606  -0.03429  -0.02814
 Alpha virt. eigenvalues --   -0.01451  -0.01037  -0.00954  -0.00027   0.01191

 Mulliken charges:
               1
     1  N   -0.713829
     2  H    0.312843
     3  H    0.327758
     4  C   -0.082896
     5  H    0.134576
     6  C    0.623997
     7  C   -0.363020
     8  H    0.181487
     9  H    0.219120
    10  O   -0.525463
    11  C    0.133320
    12  C   -0.117512
    13  H    0.276640
    14  C    0.138380
    15  C    0.157995
    16  C   -0.189150
    17  H    0.213158
    18  N   -0.731440
    19  H    0.420677
    20  C   -0.139677
    21  H    0.170891
    22  C   -0.158902
    23  H    0.165520
    24  C   -0.123051
    25  H    0.170310
    26  N   -0.628104
    27  H    0.329780
    28  C   -0.051485
    29  H    0.153057
    30  C    0.623498
    31  C   -0.060578
    32  H    0.174446
    33  O   -0.532711
    34  C   -0.263193
    35  H    0.117111
    36  H    0.148751
    37  C   -0.457698
    38  H    0.125895
    39  H    0.156539
    40  H    0.144266
    41  C   -0.451198
    42  H    0.142532
    43  H    0.146153
    44  H    0.155163
    45  N   -0.613037
    46  H    0.335447
    47  C   -0.054516
    48  H    0.159452
    49  C    0.585195
    50  C   -0.296044
    51  H    0.127321
    52  H    0.148070
    53  O   -0.585300
    54  C   -0.245779
    55  H    0.185982
    56  H    0.163275
    57  C   -0.185683
    58  H    0.189699
    59  H    0.183240
    60  N   -0.576612
    61  H    0.363615
    62  N   -0.740974
    63  H    0.375409
    64  H    0.406626
    65  N   -0.759671
    66  H    0.379641
    67  H    0.382319
    68  C    0.797641
    69  O   -0.616839
    70  H    0.417568
 Sum of Mulliken charges =   1.00000

 Dipole moment (field-independent basis, Debye):
    X=             14.8336    Y=              9.6041    Z=             16.9282  Tot=             24.4712
 Quadrupole moment (field-independent basis, Debye-Ang):
   XX=            -79.4624   YY=            -81.9852   ZZ=            -58.4601
   XY=            101.0340   XZ=             -0.5419   YZ=            -53.4204

 Normal termination of Gaussian 16 at Thu May 26 00:39:53 2022.
