 Gaussian 16, Revision C.01,
 Gaussian 16:  ES64L-G16RevC.01  3-Jul-2019

 -------------------------------------------------------------------
 # B3LYP/6-31G* guess=read geom=check nosymm integral(ultrafinegrid)
 -------------------------------------------------------------------

 ------------------------------------------------------
 Candidate Structure: Conf:600 Charge calc in gas phase
 ------------------------------------------------------
 Structure from the checkpoint file:  "conf-600.chk"
 Charge =  1 Multiplicity = 1

                          Input orientation:
 ---------------------------------------------------------------------
 Center     Atomic      Atomic             Coordinates (Angstroms)
 Number     Number       Type             X           Y           Z
 ---------------------------------------------------------------------
      1          7           0       -1.665856   -4.624920   -0.194383
      2          1           0       -2.111882   -4.400780   -1.081508
      3          1           0       -0.735858   -4.969396   -0.416511
      4          6           0       -1.582290   -3.445828    0.650580
      5          1           0       -2.604219   -3.219013    0.989611
      6          6           0       -1.056424   -2.183557   -0.067958
      7          6           0       -0.766325   -3.744707    1.931738
      8          1           0       -0.873849   -2.893285    2.618861
      9          1           0       -1.269635   -4.590575    2.417909
     10          8           0       -0.298682   -2.221648   -1.033188
     11          6           0        0.701165   -4.064242    1.783110
     12          6           0        1.500418   -4.110120    0.664567
     13          1           0        1.256260   -3.905644   -0.367735
     14          6           0        1.559759   -4.375584    2.903804
     15          6           0        2.867571   -4.592502    2.392821
     16          6           0        1.351270   -4.457948    4.291603
     17          1           0        0.362532   -4.297641    4.712659
     18          7           0        2.802245   -4.420579    1.026374
     19          1           0        3.552345   -4.602736    0.377867
     20          6           0        3.720681   -4.942553    4.594539
     21          1           0        4.543090   -5.168245    5.267512
     22          6           0        3.959492   -4.872290    3.224613
     23          1           0        4.952791   -5.043016    2.817127
     24          6           0        2.428245   -4.740103    5.122252
     25          1           0        2.277172   -4.806598    6.195687
     26          7           0       -1.460571   -0.981171    0.463597
     27          1           0       -2.232698   -0.981441    1.116793
     28          6           0       -1.106917    0.291646   -0.175313
     29          1           0       -1.422628    1.063206    0.538673
     30          6           0        0.439489    0.389007   -0.260488
     31          6           0       -1.794835    0.570874   -1.541058
     32          1           0       -1.192625    0.070519   -2.305156
     33          8           0        1.026223    0.809694   -1.267987
     34          6           0       -1.792281    2.085075   -1.873396
     35          1           0       -0.763101    2.457052   -1.806511
     36          1           0       -2.085656    2.188177   -2.926574
     37          6           0       -3.215639   -0.010153   -1.600370
     38          1           0       -3.848709    0.339557   -0.775963
     39          1           0       -3.701878    0.288921   -2.535560
     40          1           0       -3.204545   -1.103242   -1.575292
     41          6           0       -2.712780    2.972491   -1.023105
     42          1           0       -2.620814    4.020922   -1.328539
     43          1           0       -2.472604    2.929167    0.046723
     44          1           0       -3.765566    2.695255   -1.135638
     45          7           0        1.076576    0.040645    0.875154
     46          1           0        0.521622   -0.356017    1.628915
     47          6           0        2.495841   -0.272967    0.976394
     48          1           0        2.751048   -1.020950    0.213949
     49          6           0        2.673131   -0.967059    2.328893
     50          6           0        3.441214    0.952991    0.808675
     51          1           0        2.841231    1.858039    0.950730
     52          1           0        4.203157    0.947525    1.595641
     53          8           0        3.908522   -1.472479    2.457330
     54          6           0        4.122934    0.955933   -0.566015
     55          1           0        3.392828    0.685640   -1.332173
     56          1           0        4.893237    0.174325   -0.594615
     57          6           0        4.827547    2.260605   -0.945384
     58          1           0        5.673804    2.443067   -0.277482
     59          1           0        5.225056    2.183119   -1.963377
     60          7           0        4.015204    3.501970   -0.860266
     61          1           0        4.366396    4.222050   -0.242961
     62          7           0        2.296099    3.002902   -2.355043
     63          1           0        1.694671    3.328885   -3.100500
     64          1           0        2.012431    2.108754   -1.921569
     65          7           0        2.850944    5.210537   -1.897661
     66          1           0        3.575780    5.886544   -1.702146
     67          1           0        1.989712    5.556345   -2.296938
     68          6           0        3.048559    3.891093   -1.705723
     69          8           0        1.798744   -1.061940    3.161137
     70          1           0        3.928790   -2.022327    3.268843
 ---------------------------------------------------------------------

 SCF Done:  E(RB3LYP) =  -1582.14740372     A.U. after    1 cycles

 Alpha  occ. eigenvalues --  -19.29070 -19.23855 -19.22948 -19.20523 -14.53185
 Alpha  occ. eigenvalues --  -14.52778 -14.51099 -14.45885 -14.45331 -14.44407
 Alpha  occ. eigenvalues --  -14.38170 -10.48830 -10.41925 -10.39768 -10.36859
 Alpha  occ. eigenvalues --  -10.36354 -10.34440 -10.33118 -10.30338 -10.30286
 Alpha  occ. eigenvalues --  -10.30202 -10.28356 -10.28186 -10.27496 -10.26790
 Alpha  occ. eigenvalues --  -10.26637 -10.25903 -10.25452 -10.25429 -10.25083
 Alpha  occ. eigenvalues --  -10.24880 -10.24736 -10.24605 -10.24140  -1.20186
 Alpha  occ. eigenvalues --   -1.17147  -1.14331  -1.12192  -1.11527  -1.06498
 Alpha  occ. eigenvalues --   -1.05033  -1.04272  -1.03262  -1.01032  -0.95914
 Alpha  occ. eigenvalues --   -0.92001  -0.90094  -0.89375  -0.87285  -0.86351
 Alpha  occ. eigenvalues --   -0.83043  -0.81558  -0.80703  -0.79685  -0.79205
 Alpha  occ. eigenvalues --   -0.78165  -0.77486  -0.74554  -0.73327  -0.73094
 Alpha  occ. eigenvalues --   -0.72539  -0.70565  -0.70099  -0.68498  -0.68020
 Alpha  occ. eigenvalues --   -0.67434  -0.65943  -0.65374  -0.65328  -0.64293
 Alpha  occ. eigenvalues --   -0.62783  -0.62003  -0.60841  -0.60515  -0.59935
 Alpha  occ. eigenvalues --   -0.59549  -0.58453  -0.57345  -0.57203  -0.56874
 Alpha  occ. eigenvalues --   -0.55764  -0.55193  -0.54849  -0.54229  -0.54105
 Alpha  occ. eigenvalues --   -0.53669  -0.53261  -0.52678  -0.51704  -0.51679
 Alpha  occ. eigenvalues --   -0.50975  -0.50493  -0.50106  -0.49364  -0.49322
 Alpha  occ. eigenvalues --   -0.48619  -0.48451  -0.48058  -0.47828  -0.46832
 Alpha  occ. eigenvalues --   -0.46690  -0.46262  -0.46142  -0.45997  -0.45618
 Alpha  occ. eigenvalues --   -0.45245  -0.44360  -0.44097  -0.43853  -0.42779
 Alpha  occ. eigenvalues --   -0.41775  -0.41488  -0.41401  -0.41057  -0.40987
 Alpha  occ. eigenvalues --   -0.40565  -0.39677  -0.39288  -0.37698  -0.37101
 Alpha  occ. eigenvalues --   -0.36121  -0.34752  -0.34131  -0.33196  -0.30548
 Alpha  occ. eigenvalues --   -0.28605  -0.26733
 Alpha virt. eigenvalues --   -0.14165  -0.09684  -0.09008  -0.08158  -0.07511
 Alpha virt. eigenvalues --   -0.06982  -0.05418  -0.04111  -0.03735  -0.02352
 Alpha virt. eigenvalues --   -0.01627  -0.00878  -0.00216  -0.00052   0.00778

 Mulliken charges:
               1
     1  N   -0.695989
     2  H    0.308244
     3  H    0.318519
     4  C   -0.082866
     5  H    0.142752
     6  C    0.604804
     7  C   -0.342428
     8  H    0.149295
     9  H    0.187035
    10  O   -0.523372
    11  C    0.064199
    12  C   -0.043660
    13  H    0.182955
    14  C    0.081432
    15  C    0.305880
    16  C   -0.197595
    17  H    0.132875
    18  N   -0.697872
    19  H    0.331318
    20  C   -0.160549
    21  H    0.138854
    22  C   -0.198168
    23  H    0.132624
    24  C   -0.141270
    25  H    0.136694
    26  N   -0.631757
    27  H    0.340338
    28  C   -0.047955
    29  H    0.164571
    30  C    0.649060
    31  C   -0.063060
    32  H    0.170741
    33  O   -0.579370
    34  C   -0.272153
    35  H    0.110017
    36  H    0.144874
    37  C   -0.467967
    38  H    0.141615
    39  H    0.161771
    40  H    0.155166
    41  C   -0.457146
    42  H    0.146666
    43  H    0.140377
    44  H    0.167806
    45  N   -0.611699
    46  H    0.371630
    47  C   -0.008922
    48  H    0.204219
    49  C    0.591446
    50  C   -0.277035
    51  H    0.156733
    52  H    0.176497
    53  O   -0.575605
    54  C   -0.306307
    55  H    0.187703
    56  H    0.176494
    57  C   -0.159922
    58  H    0.183447
    59  H    0.195496
    60  N   -0.594228
    61  H    0.363496
    62  N   -0.763644
    63  H    0.369734
    64  H    0.453953
    65  N   -0.751349
    66  H    0.380481
    67  H    0.381334
    68  C    0.767173
    69  O   -0.457147
    70  H    0.438716
 Sum of Mulliken charges =   1.00000

 Dipole moment (field-independent basis, Debye):
    X=             12.5614    Y=             13.6695    Z=             -3.7309  Tot=             18.9358
 Quadrupole moment (field-independent basis, Debye-Ang):
   XX=           -121.6136   YY=           -120.1217   ZZ=           -178.9385
   XY=             34.2171   XZ=             -7.7675   YZ=            -29.1903

 Normal termination of Gaussian 16 at Thu May 26 00:39:58 2022.
