 Gaussian 16, Revision C.01,
 Gaussian 16:  ES64L-G16RevC.01  3-Jul-2019

 -------------------------------------------------------------------
 # B3LYP/6-31G* guess=read geom=check nosymm integral(ultrafinegrid)
 -------------------------------------------------------------------

 ------------------------------------------------------
 Candidate Structure: Conf:950 Charge calc in gas phase
 ------------------------------------------------------
 Structure from the checkpoint file:  "conf-950.chk"
 Charge =  1 Multiplicity = 1

                          Input orientation:
 ---------------------------------------------------------------------
 Center     Atomic      Atomic             Coordinates (Angstroms)
 Number     Number       Type             X           Y           Z
 ---------------------------------------------------------------------
      1          7           0       -1.728820   -1.973431    2.171351
      2          1           0       -1.805676   -2.966478    1.958493
      3          1           0       -2.147246   -1.812059    3.082909
      4          6           0       -0.347628   -1.507052    2.111778
      5          1           0       -0.319531   -0.497668    2.541493
      6          6           0        0.098343   -1.262116    0.648879
      7          6           0        0.712643   -2.388583    2.828954
      8          1           0        0.568660   -3.438427    2.546694
      9          1           0        1.693806   -2.083984    2.449883
     10          8           0        1.286869   -1.289831    0.323876
     11          6           0        0.682334   -2.248780    4.315724
     12          6           0        0.186587   -3.150580    5.183066
     13          1           0       -0.243709   -4.132219    5.050490
     14          6           0        1.182744   -1.084633    5.075951
     15          6           0        0.983609   -1.317519    6.438919
     16          6           0        1.785084    0.111226    4.682184
     17          1           0        1.957585    0.379890    3.643879
     18          7           0        0.338012   -2.653302    6.585609
     19          1           0       -0.570882   -2.584596    7.062757
     20          6           0        1.938670    0.749284    7.039777
     21          1           0        2.237052    1.474344    7.790210
     22          6           0        1.336782   -0.449709    7.451482
     23          1           0        1.166971   -0.665940    8.502101
     24          6           0        2.153999    1.016417    5.684186
     25          1           0        2.613791    1.952111    5.382897
     26          7           0       -0.915876   -0.919682   -0.176511
     27          1           0       -1.842546   -0.993508    0.229385
     28          6           0       -0.746734   -0.403842   -1.543646
     29          1           0       -1.687394    0.121012   -1.754358
     30          6           0        0.382849    0.665506   -1.523413
     31          6           0       -0.522568   -1.477586   -2.648134
     32          1           0        0.554719   -1.512089   -2.840850
     33          8           0        1.337654    0.634628   -2.293439
     34          6           0       -1.238014   -1.081451   -3.960798
     35          1           0       -1.050236   -1.878481   -4.692120
     36          1           0       -2.324689   -1.091008   -3.782085
     37          6           0       -0.983991   -2.877013   -2.216303
     38          1           0       -2.051371   -2.896548   -1.960485
     39          1           0       -0.831606   -3.586182   -3.037365
     40          1           0       -0.419863   -3.243548   -1.353502
     41          6           0       -0.839009    0.259717   -4.588069
     42          1           0       -1.357705    0.397075   -5.543464
     43          1           0        0.238476    0.309937   -4.769965
     44          1           0       -1.101203    1.113239   -3.952096
     45          7           0        0.232329    1.636468   -0.567498
     46          1           0       -0.467465    1.467193    0.152077
     47          6           0        1.450165    2.196686    0.017109
     48          1           0        2.246058    1.660194   -0.489069
     49          6           0        1.504009    1.799639    1.518583
     50          6           0        1.666563    3.718376   -0.234017
     51          1           0        0.746941    4.123277   -0.667169
     52          1           0        1.824489    4.249073    0.714206
     53          8           0        2.675476    1.748064    2.044016
     54          6           0        2.838362    4.009163   -1.194916
     55          1           0        2.771684    5.040312   -1.564360
     56          1           0        2.741360    3.353576   -2.070261
     57          6           0        4.240128    3.854824   -0.567159
     58          1           0        5.028182    4.016283   -1.312329
     59          1           0        4.393055    4.620566    0.199105
     60          7           0        4.456355    2.568851    0.114654
     61          1           0        3.931507    2.461629    1.008225
     62          7           0        5.035397    1.299505   -1.775140
     63          1           0        4.875995    0.445094   -2.290277
     64          1           0        5.113734    2.134826   -2.335465
     65          7           0        4.314743    0.277391    0.195671
     66          1           0        3.710116    0.435398    1.011410
     67          1           0        4.143211   -0.583804   -0.306719
     68          6           0        4.583854    1.394065   -0.508276
     69          8           0        0.433185    1.526847    2.091900
     70          1           0        0.917250   -3.292292    7.146832
 ---------------------------------------------------------------------

 SCF Done:  E(RB3LYP) =  -1582.10253061     A.U. after    1 cycles

 Alpha  occ. eigenvalues --  -19.19701 -19.18141 -19.16952 -19.16197 -14.61816
 Alpha  occ. eigenvalues --  -14.47670 -14.45480 -14.45261 -14.43463 -14.42399
 Alpha  occ. eigenvalues --  -14.40777 -10.42730 -10.37413 -10.37198 -10.36607
 Alpha  occ. eigenvalues --  -10.35385 -10.34965 -10.34220 -10.33173 -10.33114
 Alpha  occ. eigenvalues --  -10.31780 -10.31738 -10.31522 -10.30465 -10.30294
 Alpha  occ. eigenvalues --  -10.30293 -10.30166 -10.27968 -10.26662 -10.25610
 Alpha  occ. eigenvalues --  -10.24779 -10.23606 -10.23452 -10.22161  -1.17005
 Alpha  occ. eigenvalues --   -1.11603  -1.11393  -1.09794  -1.09196  -1.01340
 Alpha  occ. eigenvalues --   -1.00822  -1.00331  -0.99514  -0.99250  -0.98466
 Alpha  occ. eigenvalues --   -0.97210  -0.95002  -0.87552  -0.87006  -0.86691
 Alpha  occ. eigenvalues --   -0.86583  -0.84814  -0.81558  -0.79530  -0.77581
 Alpha  occ. eigenvalues --   -0.76080  -0.75552  -0.74486  -0.74030  -0.73404
 Alpha  occ. eigenvalues --   -0.72289  -0.69672  -0.68510  -0.68152  -0.67478
 Alpha  occ. eigenvalues --   -0.67164  -0.65964  -0.64182  -0.63930  -0.62400
 Alpha  occ. eigenvalues --   -0.62296  -0.61603  -0.60694  -0.59771  -0.59656
 Alpha  occ. eigenvalues --   -0.58712  -0.58341  -0.57527  -0.56467  -0.56118
 Alpha  occ. eigenvalues --   -0.55627  -0.55020  -0.54875  -0.54372  -0.53582
 Alpha  occ. eigenvalues --   -0.52591  -0.52255  -0.51581  -0.51327  -0.51082
 Alpha  occ. eigenvalues --   -0.50293  -0.49832  -0.49663  -0.48840  -0.48264
 Alpha  occ. eigenvalues --   -0.47901  -0.47617  -0.47098  -0.46986  -0.46670
 Alpha  occ. eigenvalues --   -0.46346  -0.46131  -0.45404  -0.44891  -0.43915
 Alpha  occ. eigenvalues --   -0.43748  -0.43073  -0.42474  -0.42129  -0.41719
 Alpha  occ. eigenvalues --   -0.40724  -0.40036  -0.38902  -0.38341  -0.38272
 Alpha  occ. eigenvalues --   -0.37858  -0.37378  -0.36147  -0.35743  -0.35321
 Alpha  occ. eigenvalues --   -0.34149  -0.33414  -0.32484  -0.32294  -0.31288
 Alpha  occ. eigenvalues --   -0.30238  -0.29663
 Alpha virt. eigenvalues --   -0.16750  -0.13317  -0.10723  -0.08525  -0.08292
 Alpha virt. eigenvalues --   -0.06462  -0.04637  -0.04322  -0.03539  -0.02985
 Alpha virt. eigenvalues --   -0.02126  -0.01866  -0.00289  -0.00128   0.00997

 Mulliken charges:
               1
     1  N   -0.737581
     2  H    0.311133
     3  H    0.314794
     4  C   -0.115331
     5  H    0.242401
     6  C    0.655789
     7  C   -0.368136
     8  H    0.157959
     9  H    0.209394
    10  O   -0.571611
    11  C    0.184892
    12  C   -0.136955
    13  H    0.207779
    14  C    0.139109
    15  C    0.153254
    16  C   -0.176863
    17  H    0.237910
    18  N   -0.723019
    19  H    0.421192
    20  C   -0.136383
    21  H    0.177973
    22  C   -0.159014
    23  H    0.170728
    24  C   -0.136374
    25  H    0.187208
    26  N   -0.627582
    27  H    0.363286
    28  C   -0.035822
    29  H    0.165279
    30  C    0.613653
    31  C   -0.074207
    32  H    0.161533
    33  O   -0.539958
    34  C   -0.262113
    35  H    0.140766
    36  H    0.126693
    37  C   -0.450502
    38  H    0.131965
    39  H    0.153386
    40  H    0.138942
    41  C   -0.449335
    42  H    0.147443
    43  H    0.162738
    44  H    0.139117
    45  N   -0.591647
    46  H    0.338004
    47  C   -0.063306
    48  H    0.162135
    49  C    0.614264
    50  C   -0.277866
    51  H    0.172333
    52  H    0.152579
    53  O   -0.639783
    54  C   -0.286789
    55  H    0.159205
    56  H    0.163906
    57  C   -0.181787
    58  H    0.159831
    59  H    0.185761
    60  N   -0.575439
    61  H    0.393847
    62  N   -0.741257
    63  H    0.374109
    64  H    0.374558
    65  N   -0.742530
    66  H    0.392675
    67  H    0.363807
    68  C    0.726206
    69  O   -0.571223
    70  H    0.422879
 Sum of Mulliken charges =   1.00000

 Dipole moment (field-independent basis, Debye):
    X=              6.4289    Y=             -6.9929    Z=             19.1409  Tot=             21.3683
 Quadrupole moment (field-independent basis, Debye-Ang):
   XX=           -156.6101   YY=           -146.7922   ZZ=            -26.9477
   XY=             22.0555   XZ=             -8.4239   YZ=            -65.1946

 Normal termination of Gaussian 16 at Thu May 26 00:39:58 2022.
