 Gaussian 16, Revision C.01,
 Gaussian 16:  ES64L-G16RevC.01  3-Jul-2019

 -------------------------------------------------------------------
 # B3LYP/6-31G* guess=read geom=check nosymm integral(ultrafinegrid)
 -------------------------------------------------------------------

 ------------------------------------------------------
 Candidate Structure: Conf:617 Charge calc in gas phase
 ------------------------------------------------------
 Structure from the checkpoint file:  "conf-617.chk"
 Charge =  1 Multiplicity = 1

                          Input orientation:
 ---------------------------------------------------------------------
 Center     Atomic      Atomic             Coordinates (Angstroms)
 Number     Number       Type             X           Y           Z
 ---------------------------------------------------------------------
      1          7           0       -1.216375   -3.268256    3.789950
      2          1           0       -2.205921   -3.328250    4.019055
      3          1           0       -1.069549   -3.905732    3.004682
      4          6           0       -0.890578   -1.923701    3.323044
      5          1           0       -1.636769   -1.215897    3.704118
      6          6           0       -0.888324   -1.883704    1.763813
      7          6           0        0.492148   -1.459487    3.909489
      8          1           0        0.521902   -0.364851    3.965121
      9          1           0        0.536015   -1.845666    4.931637
     10          8           0       -0.868749   -2.931276    1.132526
     11          6           0        1.655283   -1.919429    3.083617
     12          6           0        2.317251   -1.110485    2.242832
     13          1           0        2.262641   -0.046511    2.060815
     14          6           0        2.163501   -3.289837    2.902832
     15          6           0        3.118503   -3.267069    1.877678
     16          6           0        1.889312   -4.498132    3.545197
     17          1           0        1.134574   -4.547861    4.323038
     18          7           0        3.164795   -1.903844    1.331470
     19          1           0        2.639691   -1.870999    0.407799
     20          6           0        3.542907   -5.581301    2.113065
     21          1           0        4.072561   -6.482353    1.820326
     22          6           0        3.816224   -4.378721    1.447891
     23          1           0        4.538933   -4.331570    0.639101
     24          6           0        2.593706   -5.636047    3.140395
     25          1           0        2.397745   -6.584674    3.630949
     26          7           0       -0.889064   -0.643194    1.186436
     27          1           0       -0.905143    0.152648    1.809690
     28          6           0       -0.750492   -0.334168   -0.250742
     29          1           0       -1.049331    0.716788   -0.338668
     30          6           0        0.730747   -0.461349   -0.664307
     31          6           0       -1.666031   -1.173145   -1.182696
     32          1           0       -1.328723   -2.208751   -1.096260
     33          8           0        1.319874   -1.552421   -0.609777
     34          6           0       -1.497597   -0.760246   -2.665431
     35          1           0       -0.455517   -0.920784   -2.971396
     36          1           0       -2.088662   -1.468419   -3.259442
     37          6           0       -3.130278   -1.105210   -0.725823
     38          1           0       -3.499474   -0.074530   -0.660558
     39          1           0       -3.767742   -1.640613   -1.437976
     40          1           0       -3.264830   -1.575004    0.251833
     41          6           0       -1.922540    0.666505   -3.039601
     42          1           0       -1.808663    0.825096   -4.117311
     43          1           0       -1.314367    1.430970   -2.539785
     44          1           0       -2.971036    0.860764   -2.790581
     45          7           0        1.344550    0.663740   -1.099573
     46          1           0        0.894370    1.553942   -0.929801
     47          6           0        2.783770    0.687644   -1.366235
     48          1           0        3.039067   -0.262543   -1.838361
     49          6           0        3.581215    0.818389   -0.041577
     50          6           0        3.143330    1.847032   -2.317285
     51          1           0        2.681895    1.655575   -3.291625
     52          1           0        2.702240    2.778750   -1.935032
     53          8           0        3.160801    1.617066    0.809312
     54          6           0        4.671187    2.023466   -2.479578
     55          1           0        4.894945    2.400713   -3.484221
     56          1           0        5.163932    1.050480   -2.382772
     57          6           0        5.261800    2.994175   -1.437485
     58          1           0        5.022790    4.027976   -1.711489
     59          1           0        4.841084    2.832861   -0.444092
     60          7           0        6.724858    2.909833   -1.319507
     61          1           0        7.273518    3.267068   -2.091202
     62          7           0        6.842528    1.551158    0.580858
     63          1           0        7.354755    1.337809    1.425756
     64          1           0        5.937353    1.022430    0.421560
     65          7           0        8.740358    2.611033   -0.241585
     66          1           0        9.119714    3.462973   -0.628743
     67          1           0        9.334431    2.086504    0.383301
     68          6           0        7.413367    2.343806   -0.316353
     69          8           0        4.648867    0.099512    0.026600
     70          1           0        4.081825   -1.457492    1.135145
 ---------------------------------------------------------------------

 SCF Done:  E(RB3LYP) =  -1582.12717739     A.U. after    1 cycles

 Alpha  occ. eigenvalues --  -19.21871 -19.19933 -19.19526 -19.18523 -14.53304
 Alpha  occ. eigenvalues --  -14.50495 -14.50482 -14.48162 -14.46180 -14.45261
 Alpha  occ. eigenvalues --  -14.38698 -10.46310 -10.38708 -10.36978 -10.36603
 Alpha  occ. eigenvalues --  -10.33738 -10.33219 -10.32670 -10.32162 -10.31382
 Alpha  occ. eigenvalues --  -10.31353 -10.30699 -10.29792 -10.29563 -10.29107
 Alpha  occ. eigenvalues --  -10.29021 -10.28637 -10.28509 -10.28224 -10.28107
 Alpha  occ. eigenvalues --  -10.26315 -10.25203 -10.24508 -10.24045  -1.14617
 Alpha  occ. eigenvalues --   -1.13769  -1.12155  -1.11745  -1.10470  -1.04225
 Alpha  occ. eigenvalues --   -1.03608  -1.02070  -1.01962  -1.00969  -0.96580
 Alpha  occ. eigenvalues --   -0.94962  -0.91094  -0.90287  -0.88558  -0.84771
 Alpha  occ. eigenvalues --   -0.84193  -0.84130  -0.81871  -0.80496  -0.78972
 Alpha  occ. eigenvalues --   -0.77300  -0.75479  -0.73394  -0.72062  -0.71975
 Alpha  occ. eigenvalues --   -0.70843  -0.70275  -0.69894  -0.69050  -0.68441
 Alpha  occ. eigenvalues --   -0.67175  -0.66260  -0.65710  -0.64154  -0.63624
 Alpha  occ. eigenvalues --   -0.63482  -0.62575  -0.61528  -0.60536  -0.59494
 Alpha  occ. eigenvalues --   -0.58719  -0.58422  -0.57666  -0.57239  -0.56880
 Alpha  occ. eigenvalues --   -0.56244  -0.55122  -0.54819  -0.54071  -0.53465
 Alpha  occ. eigenvalues --   -0.53042  -0.52914  -0.52303  -0.51723  -0.51503
 Alpha  occ. eigenvalues --   -0.50868  -0.50679  -0.49969  -0.49258  -0.48912
 Alpha  occ. eigenvalues --   -0.48663  -0.48336  -0.47996  -0.47396  -0.46577
 Alpha  occ. eigenvalues --   -0.46447  -0.46213  -0.45865  -0.45085  -0.45039
 Alpha  occ. eigenvalues --   -0.44815  -0.44547  -0.43972  -0.43487  -0.43123
 Alpha  occ. eigenvalues --   -0.42734  -0.41046  -0.40131  -0.39583  -0.39419
 Alpha  occ. eigenvalues --   -0.39191  -0.38827  -0.37598  -0.37020  -0.35384
 Alpha  occ. eigenvalues --   -0.34648  -0.33795  -0.33055  -0.32944  -0.32271
 Alpha  occ. eigenvalues --   -0.32198  -0.31409
 Alpha virt. eigenvalues --   -0.12768  -0.10702  -0.10031  -0.08646  -0.06997
 Alpha virt. eigenvalues --   -0.05991  -0.05569  -0.05194  -0.03596  -0.02923
 Alpha virt. eigenvalues --   -0.02063  -0.00976   0.00278   0.00955   0.01323

 Mulliken charges:
               1
     1  N   -0.723356
     2  H    0.316612
     3  H    0.335190
     4  C   -0.094355
     5  H    0.156125
     6  C    0.618252
     7  C   -0.325650
     8  H    0.149238
     9  H    0.191048
    10  O   -0.504144
    11  C    0.131870
    12  C   -0.110175
    13  H    0.225649
    14  C    0.146480
    15  C    0.207409
    16  C   -0.204322
    17  H    0.187101
    18  N   -0.778181
    19  H    0.458003
    20  C   -0.140201
    21  H    0.162477
    22  C   -0.156461
    23  H    0.162372
    24  C   -0.122457
    25  H    0.162911
    26  N   -0.622178
    27  H    0.333330
    28  C   -0.032203
    29  H    0.139680
    30  C    0.648537
    31  C   -0.090150
    32  H    0.195951
    33  O   -0.569221
    34  C   -0.280209
    35  H    0.145075
    36  H    0.154905
    37  C   -0.460586
    38  H    0.139681
    39  H    0.161090
    40  H    0.157978
    41  C   -0.452347
    42  H    0.159758
    43  H    0.119770
    44  H    0.161137
    45  N   -0.581430
    46  H    0.341393
    47  C   -0.019624
    48  H    0.174474
    49  C    0.588962
    50  C   -0.302932
    51  H    0.173005
    52  H    0.151196
    53  O   -0.560474
    54  C   -0.280284
    55  H    0.154156
    56  H    0.177005
    57  C   -0.187585
    58  H    0.180361
    59  H    0.222145
    60  N   -0.596985
    61  H    0.355020
    62  N   -0.778261
    63  H    0.355693
    64  H    0.444601
    65  N   -0.765701
    66  H    0.372730
    67  H    0.372921
    68  C    0.792325
    69  O   -0.660193
    70  H    0.416045
 Sum of Mulliken charges =   1.00000

 Dipole moment (field-independent basis, Debye):
    X=             23.0176    Y=              4.6452    Z=              1.2383  Tot=             23.5143
 Quadrupole moment (field-independent basis, Debye-Ang):
   XX=              7.5148   YY=           -151.5845   ZZ=           -171.3945
   XY=             45.8708   XZ=            -10.3431   YZ=            -27.1384

 Normal termination of Gaussian 16 at Thu May 26 00:39:52 2022.
