 Gaussian 16, Revision C.01,
 Gaussian 16:  ES64L-G16RevC.01  3-Jul-2019

 -------------------------------------------------------------------
 # B3LYP/6-31G* guess=read geom=check nosymm integral(ultrafinegrid)
 -------------------------------------------------------------------

 ------------------------------------------------------
 Candidate Structure: Conf:304 Charge calc in gas phase
 ------------------------------------------------------
 Structure from the checkpoint file:  "conf-304.chk"
 Charge =  1 Multiplicity = 1

                          Input orientation:
 ---------------------------------------------------------------------
 Center     Atomic      Atomic             Coordinates (Angstroms)
 Number     Number       Type             X           Y           Z
 ---------------------------------------------------------------------
      1          7           0       -0.463416   -2.057756    2.572134
      2          1           0       -1.058906   -2.834712    2.295056
      3          1           0       -0.329946   -2.095767    3.578566
      4          6           0        0.813843   -2.027884    1.867298
      5          1           0        1.471100   -1.341092    2.430416
      6          6           0        0.687052   -1.315614    0.511642
      7          6           0        1.609716   -3.354949    1.732808
      8          1           0        2.579288   -3.103059    1.295554
      9          1           0        1.798090   -3.743700    2.738524
     10          8           0        1.434839   -1.562453   -0.440089
     11          6           0        0.964875   -4.418844    0.892792
     12          6           0        0.929473   -4.442669   -0.450952
     13          1           0        1.297253   -3.742366   -1.186384
     14          6           0        0.261583   -5.611947    1.402555
     15          6           0       -0.199667   -6.370196    0.324581
     16          6           0        0.005522   -6.073051    2.694257
     17          1           0        0.348420   -5.519438    3.562259
     18          7           0        0.205690   -5.668284   -0.922097
     19          1           0       -0.606076   -5.419578   -1.503577
     20          6           0       -1.146332   -8.002682    1.739329
     21          1           0       -1.690338   -8.929605    1.887796
     22          6           0       -0.897065   -7.556354    0.433609
     23          1           0       -1.238425   -8.121042   -0.428921
     24          6           0       -0.701198   -7.270918    2.846114
     25          1           0       -0.907003   -7.643290    3.844706
     26          7           0       -0.236339   -0.322148    0.490094
     27          1           0       -0.776775   -0.227932    1.344067
     28          6           0       -0.214950    0.759832   -0.497065
     29          1           0       -0.908407    1.510196   -0.098725
     30          6           0        1.194995    1.427895   -0.523009
     31          6           0       -0.695380    0.367540   -1.926502
     32          1           0        0.197243    0.084556   -2.492270
     33          8           0        1.665774    1.908220   -1.582493
     34          6           0       -1.326194    1.583746   -2.650992
     35          1           0       -0.629960    2.427388   -2.583438
     36          1           0       -1.401911    1.335222   -3.718357
     37          6           0       -1.647542   -0.836668   -1.921162
     38          1           0       -2.510622   -0.687939   -1.263146
     39          1           0       -2.027275   -1.014577   -2.934762
     40          1           0       -1.127007   -1.740215   -1.590908
     41          6           0       -2.708759    2.028207   -2.153575
     42          1           0       -3.041826    2.918634   -2.698150
     43          1           0       -2.708939    2.286142   -1.087181
     44          1           0       -3.466715    1.252584   -2.304491
     45          7           0        1.817375    1.495256    0.651476
     46          1           0        1.404500    1.036301    1.484681
     47          6           0        3.266520    1.493980    0.919765
     48          1           0        3.727157    0.754596    0.252129
     49          6           0        3.399612    0.899052    2.394087
     50          6           0        4.039975    2.813366    0.757108
     51          1           0        4.936779    2.673323    1.367883
     52          1           0        4.381570    2.915019   -0.281371
     53          8           0        4.523597    0.960033    2.896351
     54          6           0        3.285060    4.093850    1.187527
     55          1           0        3.791644    4.585415    2.023721
     56          1           0        2.275787    3.846652    1.536463
     57          6           0        3.170059    5.117598    0.050869
     58          1           0        2.581134    5.985829    0.374963
     59          1           0        4.168382    5.468260   -0.246948
     60          7           0        2.515717    4.485679   -1.103496
     61          1           0        2.349130    3.465103   -1.081410
     62          7           0        2.394737    6.373657   -2.469749
     63          1           0        2.433096    6.734430   -3.412060
     64          1           0        2.845588    6.933244   -1.760737
     65          7           0        1.800182    4.267337   -3.278130
     66          1           0        1.595199    3.293404   -3.050852
     67          1           0        1.295975    4.684259   -4.047108
     68          6           0        2.243812    5.045798   -2.268240
     69          8           0        2.317344    0.403365    2.853746
     70          1           0        0.816854   -6.254788   -1.506846
 ---------------------------------------------------------------------

 SCF Done:  E(RB3LYP) =  -1582.07317339     A.U. after    1 cycles

 Alpha  occ. eigenvalues --  -19.20092 -19.19582 -19.11334 -19.09972 -14.61763
 Alpha  occ. eigenvalues --  -14.49038 -14.47419 -14.46820 -14.43180 -14.41111
 Alpha  occ. eigenvalues --  -14.40628 -10.44217 -10.38267 -10.36392 -10.36261
 Alpha  occ. eigenvalues --  -10.36173 -10.34736 -10.34343 -10.34285 -10.32825
 Alpha  occ. eigenvalues --  -10.32737 -10.32415 -10.32080 -10.31187 -10.30089
 Alpha  occ. eigenvalues --  -10.29307 -10.28911 -10.26391 -10.26076 -10.25745
 Alpha  occ. eigenvalues --  -10.25508 -10.24993 -10.24655 -10.23404  -1.17058
 Alpha  occ. eigenvalues --   -1.12999  -1.11352  -1.10403  -1.04124  -1.02071
 Alpha  occ. eigenvalues --   -1.01147  -1.00545  -1.00046  -0.97972  -0.97186
 Alpha  occ. eigenvalues --   -0.95175  -0.94951  -0.88901  -0.88105  -0.87383
 Alpha  occ. eigenvalues --   -0.86703  -0.84093  -0.81665  -0.80075  -0.78336
 Alpha  occ. eigenvalues --   -0.76887  -0.75603  -0.75015  -0.74016  -0.73882
 Alpha  occ. eigenvalues --   -0.72922  -0.71240  -0.69773  -0.69421  -0.68351
 Alpha  occ. eigenvalues --   -0.67832  -0.65967  -0.65361  -0.62987  -0.62327
 Alpha  occ. eigenvalues --   -0.61850  -0.61318  -0.61170  -0.60623  -0.60344
 Alpha  occ. eigenvalues --   -0.58874  -0.58794  -0.57441  -0.57366  -0.56868
 Alpha  occ. eigenvalues --   -0.56333  -0.56211  -0.54228  -0.53839  -0.53171
 Alpha  occ. eigenvalues --   -0.52916  -0.52609  -0.52282  -0.51859  -0.50853
 Alpha  occ. eigenvalues --   -0.50589  -0.49914  -0.49765  -0.49253  -0.48939
 Alpha  occ. eigenvalues --   -0.48675  -0.48167  -0.47877  -0.47103  -0.45803
 Alpha  occ. eigenvalues --   -0.45565  -0.45065  -0.44505  -0.43969  -0.43484
 Alpha  occ. eigenvalues --   -0.43218  -0.42798  -0.42104  -0.40976  -0.40179
 Alpha  occ. eigenvalues --   -0.40145  -0.39632  -0.39580  -0.39494  -0.39332
 Alpha  occ. eigenvalues --   -0.39213  -0.37867  -0.36839  -0.36503  -0.35566
 Alpha  occ. eigenvalues --   -0.34787  -0.32422  -0.32047  -0.31614  -0.26353
 Alpha  occ. eigenvalues --   -0.26151  -0.24172
 Alpha virt. eigenvalues --   -0.17291  -0.14780  -0.10666  -0.09032  -0.08578
 Alpha virt. eigenvalues --   -0.06930  -0.05704  -0.04591  -0.04549  -0.03715
 Alpha virt. eigenvalues --   -0.01074  -0.00992   0.00050   0.00824   0.01154

 Mulliken charges:
               1
     1  N   -0.741718
     2  H    0.297125
     3  H    0.331261
     4  C   -0.125186
     5  H    0.279602
     6  C    0.630881
     7  C   -0.364232
     8  H    0.213229
     9  H    0.167250
    10  O   -0.572062
    11  C    0.161540
    12  C   -0.105093
    13  H    0.254253
    14  C    0.138634
    15  C    0.162803
    16  C   -0.202726
    17  H    0.182417
    18  N   -0.730549
    19  H    0.423633
    20  C   -0.139100
    21  H    0.184615
    22  C   -0.150854
    23  H    0.178291
    24  C   -0.112854
    25  H    0.184019
    26  N   -0.615926
    27  H    0.365011
    28  C   -0.029924
    29  H    0.165922
    30  C    0.623315
    31  C   -0.060289
    32  H    0.159331
    33  O   -0.613784
    34  C   -0.272129
    35  H    0.122667
    36  H    0.136597
    37  C   -0.451543
    38  H    0.146929
    39  H    0.142918
    40  H    0.124929
    41  C   -0.455406
    42  H    0.151701
    43  H    0.144141
    44  H    0.155945
    45  N   -0.609539
    46  H    0.363296
    47  C   -0.069165
    48  H    0.165994
    49  C    0.581063
    50  C   -0.309948
    51  H    0.205179
    52  H    0.125893
    53  O   -0.546508
    54  C   -0.289466
    55  H    0.176540
    56  H    0.169982
    57  C   -0.164898
    58  H    0.165200
    59  H    0.172916
    60  N   -0.632670
    61  H    0.436202
    62  N   -0.760489
    63  H    0.370998
    64  H    0.381238
    65  N   -0.788279
    66  H    0.423800
    67  H    0.358514
    68  C    0.784565
    69  O   -0.621439
    70  H    0.425435
 Sum of Mulliken charges =   1.00000

 Dipole moment (field-independent basis, Debye):
    X=             -3.3928    Y=             -9.4866    Z=            -10.6655  Tot=             14.6717
 Quadrupole moment (field-independent basis, Debye-Ang):
   XX=           -213.1097   YY=             58.7109   ZZ=           -174.3427
   XY=             42.9192   XZ=            -36.0247   YZ=            -46.5322

 Normal termination of Gaussian 16 at Thu May 26 00:39:56 2022.
