 Gaussian 16, Revision C.01,
 Gaussian 16:  ES64L-G16RevC.01  3-Jul-2019

 -------------------------------------------------------------------
 # B3LYP/6-31G* guess=read geom=check nosymm integral(ultrafinegrid)
 -------------------------------------------------------------------

 ------------------------------------------------------
 Candidate Structure: Conf:472 Charge calc in gas phase
 ------------------------------------------------------
 Structure from the checkpoint file:  "conf-472.chk"
 Charge =  1 Multiplicity = 1

                          Input orientation:
 ---------------------------------------------------------------------
 Center     Atomic      Atomic             Coordinates (Angstroms)
 Number     Number       Type             X           Y           Z
 ---------------------------------------------------------------------
      1          7           0       -6.419168    4.207092    3.316965
      2          1           0       -5.608233    4.729838    3.652167
      3          1           0       -6.829778    3.772517    4.142441
      4          6           0       -5.941174    3.176435    2.393121
      5          1           0       -6.743535    2.439793    2.261982
      6          6           0       -4.680738    2.473542    2.924858
      7          6           0       -5.602752    3.796285    1.015069
      8          1           0       -4.920629    4.642487    1.176277
      9          1           0       -5.078977    3.071485    0.385814
     10          8           0       -3.864732    3.077993    3.629483
     11          6           0       -6.805079    4.273954    0.182859
     12          7           0       -7.741064    4.971899    0.874122
     13          1           0       -8.554152    5.308105    0.377251
     14          1           0       -7.649123    5.082977    1.881159
     15          8           0       -6.861840    4.043283   -1.017344
     16          7           0       -4.498583    1.180361    2.547652
     17          1           0       -5.151293    0.758212    1.899281
     18          6           0       -3.326301    0.394878    2.954525
     19          1           0       -3.071145    0.735157    3.964677
     20          6           0       -2.161682    0.770597    2.010509
     21          6           0       -3.619431   -1.119576    2.983960
     22          1           0       -3.835225   -1.432741    1.952125
     23          8           0       -1.828934    0.071328    1.044474
     24          6           0       -4.846212   -1.432248    3.869553
     25          1           0       -5.678673   -0.774557    3.592039
     26          1           0       -4.603885   -1.183615    4.912844
     27          6           0       -2.372748   -1.884715    3.460580
     28          1           0       -2.097883   -1.586890    4.480972
     29          1           0       -2.561887   -2.961564    3.471985
     30          1           0       -1.518898   -1.710328    2.801165
     31          6           0       -5.329524   -2.885033    3.784444
     32          1           0       -6.241169   -3.019625    4.375844
     33          1           0       -5.561000   -3.166459    2.749800
     34          1           0       -4.587421   -3.593700    4.165744
     35          7           0       -1.558564    1.948500    2.309506
     36          1           0       -2.019170    2.521431    3.018923
     37          6           0       -0.671531    2.638537    1.360954
     38          1           0       -1.049712    2.438452    0.349663
     39          6           0        0.757866    2.056442    1.430484
     40          6           0       -0.671170    4.138279    1.640310
     41          1           0       -0.049062    4.661329    0.910484
     42          1           0       -1.691376    4.527734    1.575810
     43          1           0       -0.268465    4.352050    2.634300
     44          8           0        1.726361    2.724240    1.807474
     45          7           0        0.866407    0.766199    1.019516
     46          1           0       -0.007095    0.253842    0.839147
     47          6           0        2.160237    0.106166    0.969119
     48          1           0        2.858299    0.703235    0.373783
     49          6           0        1.970522   -1.239384    0.313765
     50          6           0        2.844212   -0.030034    2.412330
     51          1           0        2.004415    0.024277    3.117032
     52          8           0        1.104534   -2.038696    0.515896
     53          6           0        3.629117   -1.309255    2.686222
     54          1           0        2.970036   -2.183699    2.663451
     55          1           0        4.052059   -1.243051    3.692559
     56          1           0        4.463538   -1.455733    1.994106
     57          8           0        3.706639    1.076449    2.611030
     58          1           0        3.164397    1.884790    2.428619
     59          7           0        3.042391   -1.573048   -0.711795
     60          1           0        3.930549   -1.051905   -0.502375
     61          6           0        3.294211   -3.049462   -0.958971
     62          1           0        3.155380   -3.575571   -0.012615
     63          6           0        4.749684   -3.105660   -1.465219
     64          6           0        2.259461   -3.544397   -1.993274
     65          1           0        1.330429   -3.806640   -1.475403
     66          1           0        2.657683   -4.436867   -2.491871
     67          8           0        5.088406   -2.414020   -2.414746
     68          8           0        2.063495   -2.473376   -2.905723
     69          1           0        1.301011   -2.657412   -3.475250
     70          7           0        5.591681   -3.908465   -0.759358
     71          1           0        5.282419   -4.250887    0.142438
     72          6           0        7.035248   -3.657828   -0.855124
     73          1           0        7.567628   -4.504355   -0.418116
     74          1           0        7.305783   -3.563155   -1.907288
     75          6           0        7.306182   -2.393244   -0.024018
     76          8           0        7.098904   -2.398599    1.186409
     77          7           0        7.669869   -1.277601   -0.709135
     78          1           0        7.564521   -1.283195   -1.716434
     79          6           0        7.650827    0.018157   -0.038171
     80          1           0        8.338682   -0.013970    0.810816
     81          6           0        6.248719    0.283525    0.519883
     82          6           0        8.080596    1.119610   -1.030884
     83          1           0        9.015055    0.777226   -1.490379
     84          1           0        7.332462    1.180751   -1.834234
     85          8           0        5.223649   -0.072438   -0.067580
     86          6           0        8.282390    2.505267   -0.399168
     87          1           0        7.360608    2.818066    0.105111
     88          1           0        9.048172    2.435786    0.385843
     89          6           0        8.677800    3.586629   -1.417666
     90          1           0        8.648299    4.561191   -0.910864
     91          1           0        7.936348    3.639983   -2.225290
     92          6           0       10.065800    3.407315   -2.042700
     93          1           0       10.815676    3.323125   -1.232758
     94          1           0       10.107528    2.464692   -2.603293
     95          7           0       10.325347    4.487568   -2.996967
     96          1           0       11.216665    4.334471   -3.465194
     97          1           0       10.417213    5.372656   -2.499495
     98          8           0        6.240065    0.955354    1.646883
     99          1           0        5.296676    1.064917    1.973269
    100          1           0        2.706186   -1.231835   -1.639141
 ---------------------------------------------------------------------

 SCF Done:  E(RB3LYP) =  -2418.41319400     A.U. after    2 cycles

 Alpha  occ. eigenvalues --  -19.32434 -19.29411 -19.28843 -19.26480 -19.25405
 Alpha  occ. eigenvalues --  -19.24752 -19.23668 -19.22236 -19.21950 -19.21333
 Alpha  occ. eigenvalues --  -19.15558 -14.57608 -14.49236 -14.47183 -14.46471
 Alpha  occ. eigenvalues --  -14.46041 -14.45591 -14.40415 -14.39449 -14.36645
 Alpha  occ. eigenvalues --  -10.47850 -10.43164 -10.42265 -10.40091 -10.39618
 Alpha  occ. eigenvalues --  -10.39157 -10.38678 -10.38042 -10.37835 -10.37417
 Alpha  occ. eigenvalues --  -10.37071 -10.34006 -10.33683 -10.33507 -10.33496
 Alpha  occ. eigenvalues --  -10.32560 -10.31336 -10.29106 -10.28360 -10.27876
 Alpha  occ. eigenvalues --  -10.26807 -10.26733 -10.26480 -10.26205 -10.25959
 Alpha  occ. eigenvalues --  -10.25369 -10.24622 -10.24463  -1.24016  -1.21007
 Alpha  occ. eigenvalues --   -1.17789  -1.16378  -1.15692  -1.13991  -1.13901
 Alpha  occ. eigenvalues --   -1.13456  -1.12773  -1.12167  -1.11215  -1.07413
 Alpha  occ. eigenvalues --   -1.05130  -1.04307  -1.02853  -1.02466  -1.01688
 Alpha  occ. eigenvalues --   -0.97704  -0.94292  -0.93560  -0.92618  -0.89993
 Alpha  occ. eigenvalues --   -0.89452  -0.89106  -0.86792  -0.84994  -0.84327
 Alpha  occ. eigenvalues --   -0.83628  -0.82638  -0.81513  -0.78739  -0.78432
 Alpha  occ. eigenvalues --   -0.76972  -0.76181  -0.74527  -0.73329  -0.73141
 Alpha  occ. eigenvalues --   -0.72922  -0.72383  -0.71495  -0.70919  -0.69198
 Alpha  occ. eigenvalues --   -0.68935  -0.68306  -0.68003  -0.67587  -0.67025
 Alpha  occ. eigenvalues --   -0.65976  -0.64713  -0.64493  -0.64176  -0.63845
 Alpha  occ. eigenvalues --   -0.63508  -0.63094  -0.62604  -0.61987  -0.61419
 Alpha  occ. eigenvalues --   -0.60689  -0.60493  -0.59801  -0.59415  -0.59116
 Alpha  occ. eigenvalues --   -0.58869  -0.58394  -0.58136  -0.57851  -0.57658
 Alpha  occ. eigenvalues --   -0.56635  -0.56451  -0.55849  -0.55650  -0.54630
 Alpha  occ. eigenvalues --   -0.54567  -0.53963  -0.53693  -0.53461  -0.53100
 Alpha  occ. eigenvalues --   -0.52931  -0.52783  -0.52479  -0.52035  -0.51944
 Alpha  occ. eigenvalues --   -0.51556  -0.51299  -0.51235  -0.50686  -0.50326
 Alpha  occ. eigenvalues --   -0.50181  -0.50041  -0.49746  -0.49520  -0.49470
 Alpha  occ. eigenvalues --   -0.49198  -0.48412  -0.48061  -0.47752  -0.47625
 Alpha  occ. eigenvalues --   -0.47341  -0.47157  -0.46972  -0.46258  -0.45998
 Alpha  occ. eigenvalues --   -0.45821  -0.45697  -0.45515  -0.44912  -0.44756
 Alpha  occ. eigenvalues --   -0.44537  -0.44422  -0.44185  -0.44086  -0.43594
 Alpha  occ. eigenvalues --   -0.42351  -0.41943  -0.41514  -0.41234  -0.41115
 Alpha  occ. eigenvalues --   -0.40481  -0.40214  -0.40140  -0.39825  -0.39571
 Alpha  occ. eigenvalues --   -0.39434  -0.38858  -0.38603  -0.38259  -0.37556
 Alpha  occ. eigenvalues --   -0.36760  -0.36445  -0.35941  -0.35035  -0.34919
 Alpha  occ. eigenvalues --   -0.33840  -0.32995  -0.30927  -0.29409  -0.28908
 Alpha virt. eigenvalues --   -0.18799  -0.12355  -0.10632  -0.09669  -0.08593
 Alpha virt. eigenvalues --   -0.08145  -0.07226  -0.06864  -0.05096  -0.02712
 Alpha virt. eigenvalues --   -0.02199  -0.01786  -0.01091  -0.01059  -0.00700

 Mulliken charges:
               1
     1  N   -0.718127
     2  H    0.329721
     3  H    0.321116
     4  C   -0.090608
     5  H    0.158715
     6  C    0.611437
     7  C   -0.354532
     8  H    0.174783
     9  H    0.164703
    10  O   -0.548106
    11  C    0.575369
    12  N   -0.748267
    13  H    0.341208
    14  H    0.376103
    15  O   -0.505764
    16  N   -0.606067
    17  H    0.347231
    18  C   -0.044975
    19  H    0.181013
    20  C    0.628744
    21  C   -0.096319
    22  H    0.145420
    23  O   -0.557836
    24  C   -0.257654
    25  H    0.131349
    26  H    0.142021
    27  C   -0.473265
    28  H    0.145855
    29  H    0.163483
    30  H    0.157563
    31  C   -0.451611
    32  H    0.160879
    33  H    0.147681
    34  H    0.154819
    35  N   -0.615118
    36  H    0.388853
    37  C   -0.061969
    38  H    0.186980
    39  C    0.648157
    40  C   -0.471267
    41  H    0.181655
    42  H    0.171050
    43  H    0.182367
    44  O   -0.547796
    45  N   -0.659192
    46  H    0.407369
    47  C   -0.055912
    48  H    0.205885
    49  C    0.557509
    50  C    0.162951
    51  H    0.174776
    52  O   -0.371292
    53  C   -0.520107
    54  H    0.161022
    55  H    0.209130
    56  H    0.174495
    57  O   -0.661593
    58  H    0.455439
    59  N   -0.761711
    60  H    0.488918
    61  C   -0.084238
    62  H    0.204838
    63  C    0.597414
    64  C   -0.044170
    65  H    0.189338
    66  H    0.190249
    67  O   -0.488844
    68  O   -0.625147
    69  H    0.438018
    70  N   -0.570950
    71  H    0.352079
    72  C   -0.244824
    73  H    0.208188
    74  H    0.203175
    75  C    0.602258
    76  O   -0.517891
    77  N   -0.589862
    78  H    0.354787
    79  C   -0.009993
    80  H    0.205461
    81  C    0.628948
    82  C   -0.316677
    83  H    0.173148
    84  H    0.156486
    85  O   -0.559648
    86  C   -0.274129
    87  H    0.148903
    88  H    0.149278
    89  C   -0.253360
    90  H    0.140204
    91  H    0.150135
    92  C   -0.134920
    93  H    0.117944
    94  H    0.135924
    95  N   -0.716200
    96  H    0.304072
    97  H    0.298773
    98  O   -0.561691
    99  H    0.464897
   100  H    0.441351
 Sum of Mulliken charges =   1.00000

 Dipole moment (field-independent basis, Debye):
    X=             10.0779    Y=             -6.1101    Z=              3.4466  Tot=             12.2791
 Quadrupole moment (field-independent basis, Debye-Ang):
   XX=           -134.1528   YY=           -231.1684   ZZ=           -268.7387
   XY=            -22.0280   XZ=            -55.8808   YZ=             25.3667

 Normal termination of Gaussian 16 at Fri May 27 02:50:15 2022.
