 Gaussian 16, Revision C.01,
 Gaussian 16:  ES64L-G16RevC.01  3-Jul-2019

 -------------------------------------------------------------------
 # B3LYP/6-31G* guess=read geom=check nosymm integral(ultrafinegrid)
 -------------------------------------------------------------------

 ------------------------------------------------------
 Candidate Structure: Conf:197 Charge calc in gas phase
 ------------------------------------------------------
 Structure from the checkpoint file:  "conf-197.chk"
 Charge =  1 Multiplicity = 1

                          Input orientation:
 ---------------------------------------------------------------------
 Center     Atomic      Atomic             Coordinates (Angstroms)
 Number     Number       Type             X           Y           Z
 ---------------------------------------------------------------------
      1          7           0       -5.665069   -1.030226    3.688146
      2          1           0       -6.500133   -1.593673    3.547431
      3          1           0       -5.532476   -0.900332    4.691492
      4          6           0       -5.827145    0.293752    3.081358
      5          1           0       -6.296331    0.153608    2.098417
      6          6           0       -4.455626    0.927977    2.786779
      7          6           0       -6.697506    1.300303    3.863537
      8          1           0       -6.815802    2.214455    3.273562
      9          1           0       -7.697675    0.871520    4.009934
     10          8           0       -4.350702    2.126069    2.488017
     11          6           0       -6.109974    1.630018    5.235617
     12          7           0       -6.549938    2.786538    5.797006
     13          1           0       -6.163312    3.058763    6.690822
     14          1           0       -7.072882    3.472631    5.273706
     15          8           0       -5.325757    0.880460    5.816092
     16          7           0       -3.410597    0.077336    2.840523
     17          1           0       -3.644686   -0.881731    3.087370
     18          6           0       -2.021551    0.519489    2.714572
     19          1           0       -1.990017    1.549578    3.091715
     20          6           0       -1.697464    0.558573    1.200910
     21          6           0       -1.071452   -0.356387    3.557571
     22          1           0       -1.133268   -1.381515    3.163947
     23          8           0       -1.034193   -0.318973    0.625771
     24          6           0       -1.513465   -0.360566    5.040287
     25          1           0       -2.596380   -0.507178    5.110303
     26          1           0       -1.324373    0.635620    5.465410
     27          6           0        0.381865    0.127282    3.424645
     28          1           0        0.472929    1.175327    3.739733
     29          1           0        1.043516   -0.463969    4.064912
     30          1           0        0.757971    0.038738    2.404295
     31          6           0       -0.820560   -1.425935    5.898164
     32          1           0       -1.227428   -1.421716    6.914924
     33          1           0       -0.976342   -2.430196    5.484116
     34          1           0        0.259494   -1.261542    5.978879
     35          7           0       -2.263956    1.609726    0.561926
     36          1           0       -2.901186    2.180228    1.124059
     37          6           0       -2.397697    1.704754   -0.901137
     38          1           0       -2.659430    0.707627   -1.278418
     39          6           0       -1.043293    2.118001   -1.526438
     40          6           0       -3.489610    2.710108   -1.252459
     41          1           0       -3.671016    2.708519   -2.330923
     42          1           0       -4.422596    2.456000   -0.740084
     43          1           0       -3.181953    3.719603   -0.967041
     44          8           0       -0.748240    3.275909   -1.790661
     45          7           0       -0.214974    1.052564   -1.746388
     46          1           0       -0.492096    0.170678   -1.323995
     47          6           0        1.189925    1.223714   -2.026120
     48          1           0        1.318315    2.239112   -2.418401
     49          6           0        1.614701    0.188113   -3.060934
     50          6           0        2.060211    1.060541   -0.727958
     51          1           0        3.116937    1.057645   -1.024284
     52          8           0        1.027296   -0.853076   -3.276511
     53          6           0        1.840835    2.211267    0.254779
     54          1           0        2.106688    3.174923   -0.192682
     55          1           0        2.466060    2.048151    1.137596
     56          1           0        0.797420    2.272684    0.577595
     57          8           0        1.842681   -0.213766   -0.152353
     58          1           0        0.936125   -0.252601    0.214330
     59          7           0        2.816530    0.478742   -3.730471
     60          1           0        3.161847    1.431227   -3.717833
     61          6           0        3.269990   -0.421895   -4.758855
     62          1           0        2.529666   -1.237749   -4.764841
     63          6           0        4.614735   -1.056412   -4.438560
     64          6           0        3.295968    0.205433   -6.159945
     65          1           0        4.026637    1.023197   -6.227389
     66          1           0        2.303858    0.602954   -6.393195
     67          8           0        5.253392   -1.680715   -5.385857
     68          8           0        3.637133   -0.879411   -7.036909
     69          1           0        3.732185   -0.577786   -7.955696
     70          7           0        5.111485   -1.006464   -3.239733
     71          1           0        4.618389   -0.486286   -2.501960
     72          6           0        6.348524   -1.623457   -2.778728
     73          1           0        6.278609   -2.714150   -2.849736
     74          1           0        7.190949   -1.294203   -3.396814
     75          6           0        6.515718   -1.152961   -1.316203
     76          8           0        5.710969   -0.347894   -0.849187
     77          7           0        7.554708   -1.689993   -0.658785
     78          1           0        8.251787   -2.235707   -1.157937
     79          6           0        7.960817   -1.278488    0.685230
     80          1           0        7.574402   -0.270745    0.865709
     81          6           0        9.486269   -1.244746    0.673123
     82          6           0        7.454210   -2.229726    1.796437
     83          1           0        7.845951   -3.236791    1.598940
     84          1           0        7.901748   -1.895607    2.739892
     85          8           0       10.165673   -1.750845   -0.195935
     86          6           0        5.927648   -2.275618    1.934336
     87          1           0        5.549279   -1.265272    2.139529
     88          1           0        5.475318   -2.581006    0.982253
     89          6           0        5.477712   -3.240575    3.038532
     90          1           0        5.936045   -2.943130    3.993900
     91          1           0        5.835579   -4.256357    2.827463
     92          6           0        3.956535   -3.293936    3.205513
     93          1           0        3.582967   -2.279778    3.442579
     94          1           0        3.498328   -3.574027    2.248227
     95          7           0        3.588917   -4.316771    4.189135
     96          1           0        2.575441   -4.406587    4.234709
     97          1           0        3.886629   -4.024293    5.119340
     98          8           0        9.982366   -0.624751    1.753172
     99          1           0       10.956436   -0.680519    1.702450
    100          1           0        4.753724   -1.562419   -6.136197
 ---------------------------------------------------------------------

 SCF Done:  E(RB3LYP) =  -2418.42100901     A.U. after    1 cycles

 Alpha  occ. eigenvalues --  -19.35242 -19.31864 -19.29363 -19.24316 -19.23974
 Alpha  occ. eigenvalues --  -19.23517 -19.21067 -19.19629 -19.18369 -19.18002
 Alpha  occ. eigenvalues --  -19.17531 -14.54413 -14.49303 -14.47756 -14.42775
 Alpha  occ. eigenvalues --  -14.42537 -14.42013 -14.41690 -14.37882 -14.36291
 Alpha  occ. eigenvalues --  -10.48120 -10.41960 -10.41758 -10.40227 -10.39390
 Alpha  occ. eigenvalues --  -10.39147 -10.37690 -10.36095 -10.35361 -10.35223
 Alpha  occ. eigenvalues --  -10.34718 -10.33833 -10.32242 -10.31953 -10.30259
 Alpha  occ. eigenvalues --  -10.29690 -10.29185 -10.27527 -10.26174 -10.25811
 Alpha  occ. eigenvalues --  -10.25514 -10.25382 -10.24616 -10.24224 -10.24115
 Alpha  occ. eigenvalues --  -10.23276 -10.23142 -10.22520  -1.28431  -1.20479
 Alpha  occ. eigenvalues --   -1.18587  -1.16569  -1.15788  -1.11888  -1.11595
 Alpha  occ. eigenvalues --   -1.11148  -1.10123  -1.09594  -1.09057  -1.08783
 Alpha  occ. eigenvalues --   -1.05592  -1.04410  -0.99812  -0.99452  -0.98641
 Alpha  occ. eigenvalues --   -0.96387  -0.94899  -0.93118  -0.92843  -0.90150
 Alpha  occ. eigenvalues --   -0.87839  -0.86792  -0.85661  -0.83741  -0.83331
 Alpha  occ. eigenvalues --   -0.82037  -0.81052  -0.80434  -0.79409  -0.78770
 Alpha  occ. eigenvalues --   -0.76671  -0.76349  -0.73177  -0.72918  -0.72057
 Alpha  occ. eigenvalues --   -0.71171  -0.70542  -0.70468  -0.69607  -0.69577
 Alpha  occ. eigenvalues --   -0.68592  -0.67986  -0.66931  -0.65784  -0.64881
 Alpha  occ. eigenvalues --   -0.64696  -0.64407  -0.64067  -0.63780  -0.63694
 Alpha  occ. eigenvalues --   -0.62118  -0.61824  -0.60994  -0.60206  -0.59843
 Alpha  occ. eigenvalues --   -0.59326  -0.59138  -0.58583  -0.58189  -0.57800
 Alpha  occ. eigenvalues --   -0.57651  -0.57209  -0.56762  -0.56357  -0.56088
 Alpha  occ. eigenvalues --   -0.55358  -0.55252  -0.55025  -0.54588  -0.54204
 Alpha  occ. eigenvalues --   -0.53820  -0.53385  -0.53132  -0.52377  -0.52033
 Alpha  occ. eigenvalues --   -0.51775  -0.51607  -0.51304  -0.51153  -0.50470
 Alpha  occ. eigenvalues --   -0.50415  -0.50177  -0.50110  -0.49344  -0.48553
 Alpha  occ. eigenvalues --   -0.48394  -0.48331  -0.47909  -0.47722  -0.47673
 Alpha  occ. eigenvalues --   -0.47435  -0.47028  -0.46503  -0.46049  -0.45880
 Alpha  occ. eigenvalues --   -0.45455  -0.45317  -0.44909  -0.44634  -0.44570
 Alpha  occ. eigenvalues --   -0.44253  -0.44156  -0.43946  -0.43680  -0.43366
 Alpha  occ. eigenvalues --   -0.43134  -0.42531  -0.42346  -0.42145  -0.41656
 Alpha  occ. eigenvalues --   -0.41642  -0.41231  -0.41081  -0.40007  -0.39824
 Alpha  occ. eigenvalues --   -0.39217  -0.38922  -0.38786  -0.38715  -0.38115
 Alpha  occ. eigenvalues --   -0.37783  -0.37534  -0.37046  -0.36669  -0.35100
 Alpha  occ. eigenvalues --   -0.34765  -0.34416  -0.33442  -0.32789  -0.32259
 Alpha  occ. eigenvalues --   -0.31219  -0.30764  -0.30555  -0.29967  -0.28517
 Alpha virt. eigenvalues --   -0.16969  -0.09693  -0.09508  -0.08636  -0.07594
 Alpha virt. eigenvalues --   -0.06212  -0.04890  -0.04643  -0.03813  -0.03214
 Alpha virt. eigenvalues --   -0.02433  -0.01586  -0.01228  -0.00725   0.00041

 Mulliken charges:
               1
     1  N   -0.764985
     2  H    0.312750
     3  H    0.350655
     4  C   -0.067926
     5  H    0.169016
     6  C    0.640742
     7  C   -0.373974
     8  H    0.177268
     9  H    0.175130
    10  O   -0.574869
    11  C    0.620213
    12  N   -0.741252
    13  H    0.350956
    14  H    0.346830
    15  O   -0.524618
    16  N   -0.605326
    17  H    0.369548
    18  C   -0.048551
    19  H    0.175665
    20  C    0.633551
    21  C   -0.092490
    22  H    0.139777
    23  O   -0.575363
    24  C   -0.265420
    25  H    0.160080
    26  H    0.138330
    27  C   -0.479613
    28  H    0.143031
    29  H    0.154511
    30  H    0.158797
    31  C   -0.451860
    32  H    0.158546
    33  H    0.141533
    34  H    0.143488
    35  N   -0.616925
    36  H    0.389453
    37  C   -0.049200
    38  H    0.168594
    39  C    0.623951
    40  C   -0.478152
    41  H    0.167625
    42  H    0.163635
    43  H    0.188299
    44  O   -0.520116
    45  N   -0.603730
    46  H    0.367733
    47  C   -0.096040
    48  H    0.178698
    49  C    0.636622
    50  C    0.125096
    51  H    0.134248
    52  O   -0.467206
    53  C   -0.468876
    54  H    0.155285
    55  H    0.170319
    56  H    0.168778
    57  O   -0.656183
    58  H    0.445654
    59  N   -0.668333
    60  H    0.348103
    61  C   -0.067857
    62  H    0.271720
    63  C    0.625099
    64  C   -0.068025
    65  H    0.171097
    66  H    0.207847
    67  O   -0.524493
    68  O   -0.646782
    69  H    0.445753
    70  N   -0.575110
    71  H    0.424542
    72  C   -0.229972
    73  H    0.230968
    74  H    0.227051
    75  C    0.626049
    76  O   -0.517881
    77  N   -0.602866
    78  H    0.360561
    79  C   -0.058383
    80  H    0.206599
    81  C    0.591051
    82  C   -0.266836
    83  H    0.151722
    84  H    0.174787
    85  O   -0.465528
    86  C   -0.261010
    87  H    0.150794
    88  H    0.136795
    89  C   -0.253129
    90  H    0.131287
    91  H    0.152760
    92  C   -0.136193
    93  H    0.117331
    94  H    0.141565
    95  N   -0.715421
    96  H    0.301184
    97  H    0.295785
    98  O   -0.551878
    99  H    0.431548
   100  H    0.465966
 Sum of Mulliken charges =   1.00000

 Dipole moment (field-independent basis, Debye):
    X=             14.8851    Y=              0.4372    Z=            -10.9507  Tot=             18.4844
 Quadrupole moment (field-independent basis, Debye-Ang):
   XX=            -67.9598   YY=           -282.8581   ZZ=           -142.3070
   XY=            -25.1496   XZ=            -92.7903   YZ=             14.2436

 Normal termination of Gaussian 16 at Fri May 27 02:49:49 2022.
