 Gaussian 16, Revision C.01,
 Gaussian 16:  ES64L-G16RevC.01  3-Jul-2019

 -------------------------------------------------------------------
 # B3LYP/6-31G* guess=read geom=check nosymm integral(ultrafinegrid)
 -------------------------------------------------------------------

 ------------------------------------------------------
 Candidate Structure: Conf:545 Charge calc in gas phase
 ------------------------------------------------------
 Structure from the checkpoint file:  "conf-545.chk"
 Charge =  1 Multiplicity = 1

                          Input orientation:
 ---------------------------------------------------------------------
 Center     Atomic      Atomic             Coordinates (Angstroms)
 Number     Number       Type             X           Y           Z
 ---------------------------------------------------------------------
      1          7           0       -5.382626    3.799307   -0.102112
      2          1           0       -4.889197    4.652290    0.166426
      3          1           0       -6.276946    3.816245    0.386538
      4          6           0       -4.587841    2.631998    0.322140
      5          1           0       -5.209297    1.742056    0.164593
      6          6           0       -4.153535    2.743684    1.797386
      7          6           0       -3.301699    2.524363   -0.518442
      8          1           0       -2.682939    3.401861   -0.289579
      9          1           0       -2.730100    1.652876   -0.181053
     10          8           0       -3.270650    3.543779    2.114691
     11          6           0       -3.412463    2.399213   -2.034288
     12          7           0       -4.556173    2.799477   -2.601631
     13          1           0       -4.629332    2.782372   -3.610903
     14          1           0       -5.241872    3.291757   -2.022079
     15          8           0       -2.462636    1.940624   -2.696771
     16          7           0       -4.801894    1.958749    2.692325
     17          1           0       -5.456950    1.261051    2.362163
     18          6           0       -4.440659    1.933005    4.119337
     19          1           0       -3.911716    2.872640    4.298501
     20          6           0       -3.452846    0.754091    4.312409
     21          6           0       -5.673841    1.831993    5.037722
     22          1           0       -6.097572    0.828227    4.897430
     23          8           0       -3.781475   -0.313316    4.819377
     24          6           0       -6.769100    2.861038    4.674728
     25          1           0       -7.618962    2.682211    5.345567
     26          1           0       -7.141993    2.654527    3.662563
     27          6           0       -5.245799    1.940938    6.511530
     28          1           0       -4.725516    2.884023    6.716471
     29          1           0       -6.125457    1.899562    7.162787
     30          1           0       -4.586004    1.115799    6.789955
     31          6           0       -6.361897    4.338112    4.763231
     32          1           0       -7.210348    4.982284    4.507388
     33          1           0       -6.040359    4.612833    5.773266
     34          1           0       -5.543470    4.583845    4.075812
     35          7           0       -2.211413    0.981110    3.799718
     36          1           0       -1.967919    1.881024    3.393985
     37          6           0       -1.189254   -0.050579    3.773214
     38          1           0       -1.033734   -0.428997    4.792210
     39          6           0        0.104937    0.601211    3.271558
     40          6           0       -1.582501   -1.240491    2.869660
     41          1           0       -0.836469   -2.041389    2.906945
     42          1           0       -2.532487   -1.645772    3.221284
     43          1           0       -1.693451   -0.913721    1.829333
     44          8           0        0.119521    1.762646    2.838936
     45          7           0        1.209712   -0.179118    3.286121
     46          1           0        1.158906   -1.162723    3.532231
     47          6           0        2.510259    0.249266    2.770435
     48          1           0        2.696522    1.275723    3.104033
     49          6           0        2.461521    0.221050    1.228994
     50          6           0        3.598295   -0.709571    3.304111
     51          1           0        4.529439   -0.476127    2.768914
     52          8           0        2.929937   -0.690566    0.543520
     53          6           0        3.829271   -0.571132    4.802691
     54          1           0        4.179912    0.435754    5.052097
     55          1           0        4.586436   -1.293036    5.119776
     56          1           0        2.913100   -0.769498    5.367786
     57          8           0        3.197618   -2.051521    3.039669
     58          1           0        3.220405   -2.146762    2.069687
     59          7           0        1.809132    1.280054    0.667366
     60          1           0        1.256587    1.859846    1.306769
     61          6           0        1.437768    1.217123   -0.720077
     62          1           0        0.916328    0.274700   -0.947236
     63          6           0        2.656967    1.271857   -1.619752
     64          6           0        0.485860    2.390316   -1.100984
     65          1           0        0.994158    3.342926   -0.908450
     66          1           0       -0.389714    2.329241   -0.446341
     67          8           0        3.765787    1.640656   -1.387489
     68          8           0        0.126471    2.297488   -2.464421
     69          1           0       -0.861993    2.133780   -2.546254
     70          7           0        2.282793    0.855249   -3.047360
     71          1           0        2.080361   -0.164643   -3.016552
     72          6           0        3.341525    1.111637   -4.101172
     73          1           0        2.841634    1.434872   -5.012839
     74          1           0        4.003487    1.893169   -3.723779
     75          6           0        4.039648   -0.232430   -4.358106
     76          8           0        3.849278   -0.852223   -5.389378
     77          7           0        4.711276   -0.723357   -3.278467
     78          1           0        4.843893   -0.138586   -2.461994
     79          6           0        4.907656   -2.158912   -3.124776
     80          1           0        5.445856   -2.544448   -3.993906
     81          6           0        3.573012   -2.908008   -3.102435
     82          6           0        5.718561   -2.427107   -1.833784
     83          1           0        6.620190   -1.804403   -1.904173
     84          1           0        5.136954   -2.056123   -0.978022
     85          8           0        3.445131   -4.088196   -3.288257
     86          6           0        6.129697   -3.888222   -1.593302
     87          1           0        6.645973   -3.918694   -0.624517
     88          1           0        5.236945   -4.515287   -1.485315
     89          6           0        7.042642   -4.478922   -2.675227
     90          1           0        7.909989   -3.817463   -2.825829
     91          1           0        6.520654   -4.540751   -3.637061
     92          6           0        7.539061   -5.886000   -2.327272
     93          1           0        8.048457   -5.858734   -1.345248
     94          1           0        6.673382   -6.550179   -2.210558
     95          7           0        8.361338   -6.416756   -3.417122
     96          1           0        8.580562   -7.395832   -3.243396
     97          1           0        9.256029   -5.929118   -3.445799
     98          8           0        2.478287   -2.117022   -2.789225
     99          1           0        1.724186   -2.738890   -2.788687
    100          1           0        1.369031    1.365511   -3.214152
 ---------------------------------------------------------------------

 SCF Done:  E(RB3LYP) =  -2418.41641208     A.U. after    1 cycles

 Alpha  occ. eigenvalues --  -19.32595 -19.31535 -19.27852 -19.25030 -19.24818
 Alpha  occ. eigenvalues --  -19.23634 -19.23607 -19.23534 -19.22802 -19.21344
 Alpha  occ. eigenvalues --  -19.19521 -14.57820 -14.48420 -14.47554 -14.47536
 Alpha  occ. eigenvalues --  -14.46330 -14.45328 -14.43899 -14.43889 -14.36186
 Alpha  occ. eigenvalues --  -10.47728 -10.42765 -10.41279 -10.41055 -10.40303
 Alpha  occ. eigenvalues --  -10.40199 -10.38770 -10.38441 -10.37981 -10.37572
 Alpha  occ. eigenvalues --  -10.36662 -10.34392 -10.34374 -10.33982 -10.33887
 Alpha  occ. eigenvalues --  -10.33286 -10.31196 -10.30488 -10.28865 -10.27583
 Alpha  occ. eigenvalues --  -10.26411 -10.26223 -10.26217 -10.26039 -10.25142
 Alpha  occ. eigenvalues --  -10.24309 -10.23939 -10.23557  -1.24135  -1.21380
 Alpha  occ. eigenvalues --   -1.16779  -1.15903  -1.15509  -1.15137  -1.13768
 Alpha  occ. eigenvalues --   -1.13310  -1.12577  -1.11602  -1.11396  -1.11323
 Alpha  occ. eigenvalues --   -1.05778  -1.04322  -1.03640  -1.02239  -1.01530
 Alpha  occ. eigenvalues --   -1.00487  -0.99532  -0.93090  -0.92284  -0.89966
 Alpha  occ. eigenvalues --   -0.88758  -0.88157  -0.86954  -0.86564  -0.85400
 Alpha  occ. eigenvalues --   -0.82999  -0.81460  -0.80947  -0.79158  -0.78268
 Alpha  occ. eigenvalues --   -0.77586  -0.76099  -0.74896  -0.74213  -0.73836
 Alpha  occ. eigenvalues --   -0.72070  -0.71871  -0.71060  -0.70192  -0.69877
 Alpha  occ. eigenvalues --   -0.69320  -0.68724  -0.68359  -0.68079  -0.66938
 Alpha  occ. eigenvalues --   -0.66196  -0.66046  -0.65358  -0.64660  -0.64487
 Alpha  occ. eigenvalues --   -0.63696  -0.63138  -0.62955  -0.62202  -0.62078
 Alpha  occ. eigenvalues --   -0.61398  -0.61008  -0.60373  -0.59878  -0.58961
 Alpha  occ. eigenvalues --   -0.58679  -0.58202  -0.57613  -0.57455  -0.57175
 Alpha  occ. eigenvalues --   -0.56754  -0.56508  -0.56329  -0.56016  -0.55615
 Alpha  occ. eigenvalues --   -0.55210  -0.54753  -0.54609  -0.54080  -0.53802
 Alpha  occ. eigenvalues --   -0.53439  -0.53166  -0.53005  -0.52686  -0.52435
 Alpha  occ. eigenvalues --   -0.52101  -0.51768  -0.51334  -0.51054  -0.50953
 Alpha  occ. eigenvalues --   -0.50440  -0.50376  -0.50231  -0.49937  -0.49833
 Alpha  occ. eigenvalues --   -0.48435  -0.47958  -0.47872  -0.47845  -0.47519
 Alpha  occ. eigenvalues --   -0.47313  -0.47238  -0.47129  -0.47047  -0.46672
 Alpha  occ. eigenvalues --   -0.46433  -0.45789  -0.45706  -0.45616  -0.45080
 Alpha  occ. eigenvalues --   -0.44911  -0.44349  -0.43584  -0.43452  -0.43064
 Alpha  occ. eigenvalues --   -0.42898  -0.42835  -0.41286  -0.40536  -0.40177
 Alpha  occ. eigenvalues --   -0.39895  -0.39845  -0.39616  -0.39218  -0.39179
 Alpha  occ. eigenvalues --   -0.39140  -0.39062  -0.38245  -0.37607  -0.37510
 Alpha  occ. eigenvalues --   -0.37191  -0.37027  -0.36838  -0.36348  -0.36226
 Alpha  occ. eigenvalues --   -0.35730  -0.34013  -0.33524  -0.32260  -0.28435
 Alpha virt. eigenvalues --   -0.18112  -0.11494  -0.11142  -0.09644  -0.09450
 Alpha virt. eigenvalues --   -0.09003  -0.07627  -0.06158  -0.05229  -0.03999
 Alpha virt. eigenvalues --   -0.03207  -0.02547  -0.02144  -0.01737  -0.00998

 Mulliken charges:
               1
     1  N   -0.737758
     2  H    0.335264
     3  H    0.332357
     4  C   -0.082034
     5  H    0.155437
     6  C    0.637111
     7  C   -0.379416
     8  H    0.206185
     9  H    0.170140
    10  O   -0.546627
    11  C    0.619014
    12  N   -0.730291
    13  H    0.355444
    14  H    0.398012
    15  O   -0.579312
    16  N   -0.614768
    17  H    0.338826
    18  C   -0.064748
    19  H    0.192778
    20  C    0.629399
    21  C   -0.090665
    22  H    0.147641
    23  O   -0.521641
    24  C   -0.252932
    25  H    0.151467
    26  H    0.111067
    27  C   -0.471833
    28  H    0.146524
    29  H    0.158385
    30  H    0.177825
    31  C   -0.464303
    32  H    0.153226
    33  H    0.161491
    34  H    0.148077
    35  N   -0.640275
    36  H    0.373006
    37  C   -0.019038
    38  H    0.195078
    39  C    0.623744
    40  C   -0.464296
    41  H    0.152049
    42  H    0.216572
    43  H    0.135241
    44  O   -0.558834
    45  N   -0.610376
    46  H    0.364270
    47  C   -0.073549
    48  H    0.193278
    49  C    0.636590
    50  C    0.100869
    51  H    0.149826
    52  O   -0.548851
    53  C   -0.451756
    54  H    0.158497
    55  H    0.184808
    56  H    0.159744
    57  O   -0.637467
    58  H    0.416484
    59  N   -0.627825
    60  H    0.398646
    61  C   -0.057172
    62  H    0.186961
    63  C    0.604381
    64  C   -0.074398
    65  H    0.189644
    66  H    0.192499
    67  O   -0.378030
    68  O   -0.680310
    69  H    0.470987
    70  N   -0.740873
    71  H    0.440765
    72  C   -0.239951
    73  H    0.236291
    74  H    0.236379
    75  C    0.571045
    76  O   -0.457758
    77  N   -0.620993
    78  H    0.357967
    79  C   -0.013678
    80  H    0.228308
    81  C    0.621048
    82  C   -0.328285
    83  H    0.168328
    84  H    0.159504
    85  O   -0.421991
    86  C   -0.270732
    87  H    0.147273
    88  H    0.161699
    89  C   -0.256845
    90  H    0.126559
    91  H    0.164522
    92  C   -0.137357
    93  H    0.115094
    94  H    0.147751
    95  N   -0.715120
    96  H    0.305027
    97  H    0.295833
    98  O   -0.622024
    99  H    0.427602
   100  H    0.444273
 Sum of Mulliken charges =   1.00000

 Dipole moment (field-independent basis, Debye):
    X=              0.2054    Y=              6.1861    Z=             -1.3000  Tot=              6.3246
 Quadrupole moment (field-independent basis, Debye-Ang):
   XX=           -164.1172   YY=           -262.5213   ZZ=           -269.1758
   XY=            -39.7069   XZ=             -2.3733   YZ=            -13.2320

 Normal termination of Gaussian 16 at Fri May 27 02:49:58 2022.
