 Gaussian 16, Revision C.01,
 Gaussian 16:  ES64L-G16RevC.01  3-Jul-2019

 -------------------------------------------------------------------
 # B3LYP/6-31G* guess=read geom=check nosymm integral(ultrafinegrid)
 -------------------------------------------------------------------

 ------------------------------------------------------
 Candidate Structure: Conf:365 Charge calc in gas phase
 ------------------------------------------------------
 Structure from the checkpoint file:  "conf-365.chk"
 Charge =  1 Multiplicity = 1

                          Input orientation:
 ---------------------------------------------------------------------
 Center     Atomic      Atomic             Coordinates (Angstroms)
 Number     Number       Type             X           Y           Z
 ---------------------------------------------------------------------
      1          7           0       -7.343567    2.774810    1.524888
      2          1           0       -8.140023    2.555730    0.930528
      3          1           0       -7.661711    3.467698    2.201628
      4          6           0       -6.234694    3.298180    0.722688
      5          1           0       -6.085405    2.604683   -0.115080
      6          6           0       -4.928394    3.230626    1.524878
      7          6           0       -6.402840    4.688959    0.092951
      8          1           0       -7.405356    4.752382   -0.350148
      9          1           0       -6.324571    5.479950    0.847420
     10          8           0       -4.013472    4.047330    1.352451
     11          6           0       -5.392282    4.893452   -1.041127
     12          7           0       -5.014176    6.182938   -1.265835
     13          1           0       -4.293951    6.338976   -1.958617
     14          1           0       -5.144910    6.895698   -0.563233
     15          8           0       -5.019210    3.963080   -1.747260
     16          7           0       -4.833943    2.175106    2.363666
     17          1           0       -5.663479    1.596711    2.444679
     18          6           0       -3.621319    1.866729    3.124121
     19          1           0       -3.178474    2.834886    3.382786
     20          6           0       -2.609549    1.160068    2.187189
     21          6           0       -3.955058    1.116078    4.433395
     22          1           0       -4.613814    1.804270    4.984351
     23          8           0       -2.308791   -0.039011    2.270119
     24          6           0       -2.705702    0.884333    5.311835
     25          1           0       -2.040487    0.176824    4.803451
     26          1           0       -3.047283    0.388789    6.229747
     27          6           0       -4.722589   -0.202236    4.225874
     28          1           0       -4.126288   -0.919938    3.658321
     29          1           0       -4.965855   -0.643236    5.198879
     30          1           0       -5.676194   -0.059256    3.703110
     31          6           0       -1.927045    2.150760    5.691598
     32          1           0       -1.161860    1.923751    6.443297
     33          1           0       -1.410048    2.595058    4.833833
     34          1           0       -2.586490    2.913926    6.122897
     35          7           0       -2.083817    1.977798    1.241006
     36          1           0       -2.461720    2.927410    1.192682
     37          6           0       -1.388404    1.469920    0.052093
     38          1           0       -1.845105    0.504491   -0.205973
     39          6           0        0.094395    1.186121    0.368614
     40          6           0       -1.535629    2.456709   -1.103740
     41          1           0       -1.073004    2.051862   -2.007368
     42          1           0       -2.592229    2.657390   -1.305270
     43          1           0       -1.032442    3.400034   -0.872009
     44          8           0        1.029308    1.763092   -0.189817
     45          7           0        0.306102    0.216386    1.307362
     46          1           0       -0.514543   -0.124065    1.825907
     47          6           0        1.632073    0.084400    1.891441
     48          1           0        2.101625    1.074578    1.923016
     49          6           0        2.452033   -0.786191    0.945784
     50          6           0        1.564627   -0.472143    3.327434
     51          1           0        1.113248   -1.474328    3.296568
     52          8           0        2.538491   -2.055954    1.218285
     53          6           0        2.940252   -0.541199    3.993549
     54          1           0        3.609512   -1.245720    3.489226
     55          1           0        2.831900   -0.883900    5.028375
     56          1           0        3.405500    0.450064    4.015171
     57          8           0        0.708792    0.442916    4.001409
     58          1           0        0.519153    0.091099    4.884780
     59          7           0        3.000576   -0.235073   -0.109019
     60          1           0        2.730096    0.746282   -0.323734
     61          6           0        3.933270   -0.845445   -1.065072
     62          1           0        4.784739   -1.256533   -0.506117
     63          6           0        4.428257    0.330107   -1.958044
     64          6           0        3.306066   -1.974240   -1.902293
     65          1           0        3.965368   -2.236846   -2.733520
     66          1           0        2.345248   -1.651407   -2.311290
     67          8           0        3.877356    1.421493   -1.893890
     68          8           0        3.051838   -3.136262   -1.087309
     69          1           0        3.756623   -3.791943   -1.209898
     70          7           0        5.453629    0.027192   -2.770168
     71          1           0        5.964188   -0.855137   -2.741377
     72          6           0        6.072791    0.995184   -3.655027
     73          1           0        5.365633    1.333284   -4.421583
     74          1           0        6.396471    1.882508   -3.096603
     75          6           0        7.276384    0.284292   -4.297545
     76          8           0        7.542069   -0.879290   -3.991271
     77          7           0        7.965066    1.017994   -5.193861
     78          1           0        7.782559    2.013912   -5.274764
     79          6           0        9.226727    0.582339   -5.786150
     80          1           0        9.649145   -0.200866   -5.148952
     81          6           0       10.152759    1.794703   -5.776850
     82          6           0        9.073450    0.040395   -7.227950
     83          1           0        8.632681    0.829558   -7.852091
     84          1           0       10.080161   -0.148268   -7.619088
     85          8           0        9.779706    2.933126   -5.585838
     86          6           0        8.232205   -1.237490   -7.326431
     87          1           0        8.679081   -2.016122   -6.693339
     88          1           0        7.229342   -1.051573   -6.920498
     89          6           0        8.110156   -1.739497   -8.770649
     90          1           0        9.115579   -1.905181   -9.186342
     91          1           0        7.637437   -0.975997   -9.401389
     92          6           0        7.299741   -3.032572   -8.892772
     93          1           0        7.767567   -3.812684   -8.262238
     94          1           0        6.293492   -2.866428   -8.485052
     95          7           0        7.148399   -3.407889  -10.301286
     96          1           0        6.562090   -4.237015  -10.380434
     97          1           0        8.055484   -3.668680  -10.686858
     98          8           0       11.424650    1.456037   -6.042912
     99          1           0       11.946512    2.281533   -6.062475
    100          1           0        2.820251   -2.606566    0.418138
 ---------------------------------------------------------------------

 SCF Done:  E(RB3LYP) =  -2418.43357938     A.U. after    1 cycles

 Alpha  occ. eigenvalues --  -19.33854 -19.32016 -19.28071 -19.24405 -19.23565
 Alpha  occ. eigenvalues --  -19.22613 -19.21849 -19.21628 -19.20099 -19.19072
 Alpha  occ. eigenvalues --  -19.16805 -14.52233 -14.47439 -14.45455 -14.45065
 Alpha  occ. eigenvalues --  -14.43139 -14.43050 -14.41172 -14.39826 -14.36031
 Alpha  occ. eigenvalues --  -10.46322 -10.41160 -10.40570 -10.39089 -10.38755
 Alpha  occ. eigenvalues --  -10.38302 -10.37889 -10.36564 -10.35656 -10.35444
 Alpha  occ. eigenvalues --  -10.34918 -10.34759 -10.33373 -10.32269 -10.31436
 Alpha  occ. eigenvalues --  -10.30463 -10.29362 -10.27549 -10.26424 -10.26221
 Alpha  occ. eigenvalues --  -10.25996 -10.25882 -10.24828 -10.24504 -10.24429
 Alpha  occ. eigenvalues --  -10.23771 -10.23650 -10.23375  -1.24474  -1.19135
 Alpha  occ. eigenvalues --   -1.18362  -1.15951  -1.13670  -1.13492  -1.12042
 Alpha  occ. eigenvalues --   -1.11588  -1.10537  -1.10262  -1.09196  -1.08548
 Alpha  occ. eigenvalues --   -1.03919  -1.02125  -1.02076  -1.00250  -0.99477
 Alpha  occ. eigenvalues --   -0.96247  -0.95852  -0.92863  -0.92570  -0.88900
 Alpha  occ. eigenvalues --   -0.88078  -0.87541  -0.84657  -0.84265  -0.82905
 Alpha  occ. eigenvalues --   -0.82573  -0.81967  -0.80025  -0.79382  -0.77582
 Alpha  occ. eigenvalues --   -0.76692  -0.75800  -0.72917  -0.72455  -0.72328
 Alpha  occ. eigenvalues --   -0.72047  -0.70919  -0.69964  -0.69348  -0.68381
 Alpha  occ. eigenvalues --   -0.67943  -0.67583  -0.67080  -0.65543  -0.64808
 Alpha  occ. eigenvalues --   -0.64666  -0.64193  -0.64160  -0.63584  -0.63377
 Alpha  occ. eigenvalues --   -0.62929  -0.61345  -0.60726  -0.60172  -0.59442
 Alpha  occ. eigenvalues --   -0.59251  -0.58839  -0.58091  -0.57815  -0.57380
 Alpha  occ. eigenvalues --   -0.57031  -0.56683  -0.56227  -0.55678  -0.55505
 Alpha  occ. eigenvalues --   -0.55325  -0.55165  -0.54773  -0.54444  -0.54186
 Alpha  occ. eigenvalues --   -0.53555  -0.53238  -0.52786  -0.52603  -0.52382
 Alpha  occ. eigenvalues --   -0.51888  -0.51723  -0.51380  -0.50741  -0.50417
 Alpha  occ. eigenvalues --   -0.50088  -0.50059  -0.49498  -0.49354  -0.49298
 Alpha  occ. eigenvalues --   -0.49079  -0.48598  -0.48241  -0.48156  -0.48014
 Alpha  occ. eigenvalues --   -0.47508  -0.47312  -0.47271  -0.46928  -0.46689
 Alpha  occ. eigenvalues --   -0.46648  -0.46217  -0.45665  -0.45592  -0.45231
 Alpha  occ. eigenvalues --   -0.45074  -0.45000  -0.44422  -0.43370  -0.43246
 Alpha  occ. eigenvalues --   -0.42939  -0.42718  -0.42609  -0.42062  -0.41899
 Alpha  occ. eigenvalues --   -0.41827  -0.41493  -0.40751  -0.40013  -0.39767
 Alpha  occ. eigenvalues --   -0.39392  -0.39177  -0.38871  -0.38768  -0.38037
 Alpha  occ. eigenvalues --   -0.37227  -0.37092  -0.36480  -0.36431  -0.35647
 Alpha  occ. eigenvalues --   -0.35616  -0.34891  -0.34664  -0.34017  -0.32719
 Alpha  occ. eigenvalues --   -0.32433  -0.31919  -0.31367  -0.30365  -0.28260
 Alpha virt. eigenvalues --   -0.15705  -0.09893  -0.07721  -0.07615  -0.07430
 Alpha virt. eigenvalues --   -0.06971  -0.06731  -0.04713  -0.02862  -0.02819
 Alpha virt. eigenvalues --   -0.02418  -0.00767  -0.00274  -0.00049   0.00863

 Mulliken charges:
               1
     1  N   -0.743730
     2  H    0.322577
     3  H    0.313231
     4  C   -0.081555
     5  H    0.206474
     6  C    0.634093
     7  C   -0.367881
     8  H    0.174878
     9  H    0.150218
    10  O   -0.562867
    11  C    0.630777
    12  N   -0.743332
    13  H    0.344370
    14  H    0.341103
    15  O   -0.522337
    16  N   -0.614873
    17  H    0.370424
    18  C   -0.058510
    19  H    0.185929
    20  C    0.641358
    21  C   -0.088312
    22  H    0.137837
    23  O   -0.561427
    24  C   -0.271437
    25  H    0.147730
    26  H    0.140671
    27  C   -0.478848
    28  H    0.185356
    29  H    0.153696
    30  H    0.139883
    31  C   -0.460456
    32  H    0.140926
    33  H    0.155878
    34  H    0.152606
    35  N   -0.617621
    36  H    0.395070
    37  C   -0.060916
    38  H    0.181597
    39  C    0.627537
    40  C   -0.480979
    41  H    0.163869
    42  H    0.200417
    43  H    0.174114
    44  O   -0.530577
    45  N   -0.632126
    46  H    0.408392
    47  C   -0.039819
    48  H    0.206092
    49  C    0.641941
    50  C    0.116395
    51  H    0.156725
    52  O   -0.573683
    53  C   -0.478890
    54  H    0.155668
    55  H    0.169509
    56  H    0.173720
    57  O   -0.619861
    58  H    0.414596
    59  N   -0.595021
    60  H    0.451484
    61  C   -0.105897
    62  H    0.196111
    63  C    0.626946
    64  C   -0.061293
    65  H    0.193898
    66  H    0.213746
    67  O   -0.492628
    68  O   -0.632456
    69  H    0.440323
    70  N   -0.632616
    71  H    0.360571
    72  C   -0.202419
    73  H    0.208265
    74  H    0.209400
    75  C    0.610856
    76  O   -0.533369
    77  N   -0.602635
    78  H    0.358085
    79  C   -0.054926
    80  H    0.202935
    81  C    0.587206
    82  C   -0.265351
    83  H    0.150489
    84  H    0.170828
    85  O   -0.464277
    86  C   -0.260282
    87  H    0.145703
    88  H    0.134616
    89  C   -0.252501
    90  H    0.131796
    91  H    0.153586
    92  C   -0.131628
    93  H    0.112593
    94  H    0.132090
    95  N   -0.714357
    96  H    0.300066
    97  H    0.296910
    98  O   -0.554798
    99  H    0.428184
   100  H    0.474149
 Sum of Mulliken charges =   1.00000

 Dipole moment (field-independent basis, Debye):
    X=             12.0324    Y=             -0.9651    Z=             -1.5188  Tot=             12.1662
 Quadrupole moment (field-independent basis, Debye-Ang):
   XX=            -79.4530   YY=           -228.7075   ZZ=           -213.4365
   XY=            -57.1843   XZ=            -87.3920   YZ=             15.6638

 Normal termination of Gaussian 16 at Fri May 27 02:49:46 2022.
