 Gaussian 16, Revision C.01,
 Gaussian 16:  ES64L-G16RevC.01  3-Jul-2019

 -------------------------------------------------------------------
 # B3LYP/6-31G* guess=read geom=check nosymm integral(ultrafinegrid)
 -------------------------------------------------------------------

 ------------------------------------------------------
 Candidate Structure: Conf:727 Charge calc in gas phase
 ------------------------------------------------------
 Structure from the checkpoint file:  "conf-727.chk"
 Charge =  1 Multiplicity = 1

                          Input orientation:
 ---------------------------------------------------------------------
 Center     Atomic      Atomic             Coordinates (Angstroms)
 Number     Number       Type             X           Y           Z
 ---------------------------------------------------------------------
      1          7           0       -6.639408    3.798920    1.989016
      2          1           0       -5.903145    4.466682    1.757529
      3          1           0       -6.620164    3.692127    3.002500
      4          6           0       -6.330693    2.518662    1.342868
      5          1           0       -7.032065    1.772440    1.733317
      6          6           0       -4.886178    2.094253    1.652465
      7          6           0       -6.547418    2.668349   -0.168486
      8          1           0       -7.506126    3.170793   -0.331993
      9          1           0       -5.761655    3.322118   -0.570802
     10          8           0       -3.934054    2.793096    1.280938
     11          6           0       -6.471884    1.333623   -0.894173
     12          7           0       -7.189619    1.244423   -2.044997
     13          1           0       -7.197303    0.363296   -2.540779
     14          1           0       -7.837634    1.961994   -2.333980
     15          8           0       -5.779277    0.404212   -0.478821
     16          7           0       -4.728037    1.013625    2.462325
     17          1           0       -5.485573    0.343223    2.505524
     18          6           0       -3.414213    0.583448    2.949966
     19          1           0       -2.838467    1.504619    3.092791
     20          6           0       -2.725631   -0.247401    1.839664
     21          6           0       -3.508137   -0.174833    4.291350
     22          1           0       -4.022341   -1.126412    4.094911
     23          8           0       -2.683530   -1.476896    1.858166
     24          6           0       -4.319698    0.625093    5.333199
     25          1           0       -5.273864    0.934133    4.890901
     26          1           0       -3.781296    1.555369    5.567062
     27          6           0       -2.095333   -0.498014    4.806721
     28          1           0       -1.539285    0.423554    5.024709
     29          1           0       -2.141726   -1.081769    5.730158
     30          1           0       -1.530039   -1.084404    4.077747
     31          6           0       -4.608920   -0.141745    6.629287
     32          1           0       -5.253014    0.449609    7.288737
     33          1           0       -5.124607   -1.087802    6.423579
     34          1           0       -3.696843   -0.373760    7.188547
     35          7           0       -2.197691    0.517985    0.840036
     36          1           0       -2.490871    1.498093    0.832032
     37          6           0       -1.734764   -0.070324   -0.413898
     38          1           0       -1.892732   -1.147414   -0.311118
     39          6           0       -0.224738    0.177028   -0.562856
     40          6           0       -2.521457    0.460300   -1.612290
     41          1           0       -2.183816   -0.017578   -2.538290
     42          1           0       -3.583862    0.249844   -1.466208
     43          1           0       -2.385795    1.540762   -1.721646
     44          8           0        0.238184    1.014630   -1.365477
     45          7           0        0.609997   -0.530636    0.235068
     46          1           0        0.321703   -1.494384    0.593753
     47          6           0        2.012387   -0.157448    0.144169
     48          1           0        2.087890    0.921624    0.318396
     49          6           0        2.470052   -0.431659   -1.291285
     50          6           0        2.914254   -0.838555    1.195903
     51          1           0        3.933781   -0.449758    1.026494
     52          8           0        2.456032   -1.471527   -1.878042
     53          6           0        2.482724   -0.476435    2.618700
     54          1           0        2.523492    0.605329    2.785576
     55          1           0        3.161790   -0.946327    3.339195
     56          1           0        1.466841   -0.825965    2.820722
     57          8           0        2.877914   -2.234702    0.956352
     58          1           0        3.440335   -2.672317    1.615040
     59          7           0        2.943720    0.786247   -2.093520
     60          1           0        3.976603    0.737747   -2.247870
     61          6           0        2.381366    0.780763   -3.490922
     62          1           0        1.413125    0.282289   -3.441234
     63          6           0        3.419115   -0.000500   -4.313476
     64          6           0        2.191120    2.266363   -3.892312
     65          1           0        1.528947    2.316585   -4.765416
     66          1           0        3.151640    2.714901   -4.160865
     67          8           0        4.597462    0.063200   -3.959127
     68          8           0        1.699908    3.004374   -2.788946
     69          1           0        0.823110    2.658222   -2.530561
     70          7           0        2.948587   -0.727263   -5.342380
     71          1           0        1.950805   -0.738790   -5.515193
     72          6           0        3.774882   -1.643304   -6.126842
     73          1           0        3.666229   -1.432803   -7.193168
     74          1           0        4.816212   -1.464007   -5.847871
     75          6           0        3.440725   -3.134274   -5.926121
     76          8           0        3.710255   -3.935032   -6.806797
     77          7           0        2.869093   -3.485220   -4.740986
     78          1           0        2.717077   -2.795361   -4.018441
     79          6           0        2.551162   -4.878977   -4.458133
     80          1           0        3.420071   -5.490143   -4.721662
     81          6           0        1.409513   -5.433804   -5.314382
     82          6           0        2.234138   -5.084238   -2.960643
     83          1           0        2.242685   -6.162108   -2.769222
     84          1           0        3.065489   -4.653646   -2.387057
     85          8           0        1.202034   -6.617178   -5.438788
     86          6           0        0.898277   -4.485912   -2.485245
     87          1           0        0.754712   -3.486145   -2.918558
     88          1           0        0.070095   -5.100433   -2.862428
     89          6           0        0.820172   -4.362830   -0.957281
     90          1           0        1.617706   -3.694497   -0.615956
     91          1           0        1.005576   -5.341620   -0.492724
     92          6           0       -0.525790   -3.807916   -0.468872
     93          1           0       -0.903602   -3.076070   -1.196336
     94          1           0       -1.275128   -4.611706   -0.423600
     95          7           0       -0.384772   -3.101855    0.823179
     96          1           0        0.097719   -3.697698    1.494860
     97          1           0       -1.300309   -2.874243    1.219426
     98          8           0        0.621800   -4.478633   -5.863587
     99          1           0       -0.052132   -4.961630   -6.379982
    100          1           0        2.650487    1.683909   -1.668881
 ---------------------------------------------------------------------

 SCF Done:  E(RB3LYP) =  -2418.41291748     A.U. after    2 cycles

 Alpha  occ. eigenvalues --  -19.32052 -19.28437 -19.26949 -19.26595 -19.25867
 Alpha  occ. eigenvalues --  -19.24827 -19.20737 -19.20679 -19.20026 -19.19684
 Alpha  occ. eigenvalues --  -19.19369 -14.57808 -14.50239 -14.46648 -14.44775
 Alpha  occ. eigenvalues --  -14.44512 -14.44227 -14.43732 -14.41306 -14.39277
 Alpha  occ. eigenvalues --  -10.47441 -10.43171 -10.40453 -10.39085 -10.39027
 Alpha  occ. eigenvalues --  -10.37890 -10.37670 -10.37503 -10.37325 -10.37323
 Alpha  occ. eigenvalues --  -10.37069 -10.36659 -10.33224 -10.32911 -10.31824
 Alpha  occ. eigenvalues --  -10.31222 -10.30454 -10.29643 -10.28974 -10.27553
 Alpha  occ. eigenvalues --  -10.27074 -10.26920 -10.26772 -10.26432 -10.26191
 Alpha  occ. eigenvalues --  -10.25051 -10.24584 -10.23707  -1.23810  -1.18223
 Alpha  occ. eigenvalues --   -1.17641  -1.16309  -1.15707  -1.14330  -1.12412
 Alpha  occ. eigenvalues --   -1.11970  -1.11498  -1.11271  -1.10883  -1.08558
 Alpha  occ. eigenvalues --   -1.06129  -1.03822  -1.01259  -1.01033  -1.00452
 Alpha  occ. eigenvalues --   -0.98330  -0.97274  -0.96534  -0.91936  -0.90044
 Alpha  occ. eigenvalues --   -0.88596  -0.88415  -0.86157  -0.85040  -0.83828
 Alpha  occ. eigenvalues --   -0.83677  -0.82650  -0.80937  -0.78614  -0.77771
 Alpha  occ. eigenvalues --   -0.76997  -0.76316  -0.75229  -0.73605  -0.72920
 Alpha  occ. eigenvalues --   -0.72295  -0.71657  -0.71615  -0.70662  -0.68833
 Alpha  occ. eigenvalues --   -0.68548  -0.67925  -0.67627  -0.66992  -0.66333
 Alpha  occ. eigenvalues --   -0.66307  -0.65983  -0.65686  -0.64528  -0.63694
 Alpha  occ. eigenvalues --   -0.63251  -0.63047  -0.61760  -0.61621  -0.60914
 Alpha  occ. eigenvalues --   -0.60498  -0.59846  -0.59449  -0.58412  -0.58047
 Alpha  occ. eigenvalues --   -0.57929  -0.57332  -0.57207  -0.56573  -0.56395
 Alpha  occ. eigenvalues --   -0.56326  -0.56210  -0.55834  -0.55564  -0.55406
 Alpha  occ. eigenvalues --   -0.54384  -0.54027  -0.53795  -0.53738  -0.53441
 Alpha  occ. eigenvalues --   -0.53017  -0.52848  -0.52619  -0.52415  -0.51809
 Alpha  occ. eigenvalues --   -0.51663  -0.51150  -0.51024  -0.50455  -0.49851
 Alpha  occ. eigenvalues --   -0.49770  -0.49638  -0.49338  -0.49150  -0.48916
 Alpha  occ. eigenvalues --   -0.48828  -0.48548  -0.48002  -0.47754  -0.47429
 Alpha  occ. eigenvalues --   -0.46949  -0.46551  -0.46493  -0.46167  -0.45971
 Alpha  occ. eigenvalues --   -0.45662  -0.45504  -0.45110  -0.44839  -0.44564
 Alpha  occ. eigenvalues --   -0.44302  -0.44059  -0.43694  -0.43551  -0.42731
 Alpha  occ. eigenvalues --   -0.42678  -0.42160  -0.42036  -0.41233  -0.41040
 Alpha  occ. eigenvalues --   -0.40337  -0.40144  -0.39647  -0.39581  -0.39280
 Alpha  occ. eigenvalues --   -0.39151  -0.38896  -0.38613  -0.37833  -0.36490
 Alpha  occ. eigenvalues --   -0.36058  -0.35127  -0.34788  -0.34254  -0.34011
 Alpha  occ. eigenvalues --   -0.33430  -0.33401  -0.32805  -0.32230  -0.30885
 Alpha virt. eigenvalues --   -0.18422  -0.12052  -0.10620  -0.07228  -0.06546
 Alpha virt. eigenvalues --   -0.06199  -0.05846  -0.05705  -0.05637  -0.05103
 Alpha virt. eigenvalues --   -0.04975  -0.02859  -0.02205  -0.00900  -0.00499

 Mulliken charges:
               1
     1  N   -0.701137
     2  H    0.316125
     3  H    0.310801
     4  C   -0.056763
     5  H    0.146926
     6  C    0.642063
     7  C   -0.366635
     8  H    0.174894
     9  H    0.192359
    10  O   -0.570030
    11  C    0.614507
    12  N   -0.746711
    13  H    0.349714
    14  H    0.350559
    15  O   -0.531855
    16  N   -0.600734
    17  H    0.347511
    18  C   -0.059456
    19  H    0.172980
    20  C    0.633787
    21  C   -0.089943
    22  H    0.146171
    23  O   -0.538592
    24  C   -0.254038
    25  H    0.131952
    26  H    0.134755
    27  C   -0.471188
    28  H    0.139674
    29  H    0.164027
    30  H    0.154364
    31  C   -0.451135
    32  H    0.156564
    33  H    0.148321
    34  H    0.153580
    35  N   -0.610848
    36  H    0.382185
    37  C   -0.070751
    38  H    0.192821
    39  C    0.635691
    40  C   -0.471907
    41  H    0.138838
    42  H    0.213034
    43  H    0.159505
    44  O   -0.602225
    45  N   -0.623021
    46  H    0.452489
    47  C   -0.041288
    48  H    0.177750
    49  C    0.600883
    50  C    0.115778
    51  H    0.136471
    52  O   -0.374458
    53  C   -0.472941
    54  H    0.165675
    55  H    0.168561
    56  H    0.187281
    57  O   -0.608934
    58  H    0.414329
    59  N   -0.685124
    60  H    0.416314
    61  C   -0.134005
    62  H    0.211443
    63  C    0.648705
    64  C   -0.052284
    65  H    0.182828
    66  H    0.200615
    67  O   -0.517894
    68  O   -0.613495
    69  H    0.440759
    70  N   -0.604181
    71  H    0.355025
    72  C   -0.247603
    73  H    0.214024
    74  H    0.235652
    75  C    0.610298
    76  O   -0.491008
    77  N   -0.626778
    78  H    0.347146
    79  C   -0.022516
    80  H    0.208323
    81  C    0.611087
    82  C   -0.310150
    83  H    0.184575
    84  H    0.154895
    85  O   -0.454736
    86  C   -0.274417
    87  H    0.121984
    88  H    0.159543
    89  C   -0.298303
    90  H    0.182829
    91  H    0.144372
    92  C   -0.133786
    93  H    0.130912
    94  H    0.155417
    95  N   -0.808520
    96  H    0.318970
    97  H    0.373056
    98  O   -0.578110
    99  H    0.418058
   100  H    0.417744
 Sum of Mulliken charges =   1.00000

 Dipole moment (field-independent basis, Debye):
    X=             -1.2705    Y=              2.5988    Z=             -2.7353  Tot=              3.9811
 Quadrupole moment (field-independent basis, Debye-Ang):
   XX=           -196.9253   YY=           -290.3267   ZZ=           -229.4435
   XY=             -4.0257   XZ=             13.0520   YZ=            -30.5388

 Normal termination of Gaussian 16 at Fri May 27 02:50:18 2022.
