 Gaussian 16, Revision C.01,
 Gaussian 16:  ES64L-G16RevC.01  3-Jul-2019

 -------------------------------------------------------------------
 # B3LYP/6-31G* guess=read geom=check nosymm integral(ultrafinegrid)
 -------------------------------------------------------------------

 ------------------------------------------------------
 Candidate Structure: Conf:240 Charge calc in gas phase
 ------------------------------------------------------
 Structure from the checkpoint file:  "conf-240.chk"
 Charge =  1 Multiplicity = 1

                          Input orientation:
 ---------------------------------------------------------------------
 Center     Atomic      Atomic             Coordinates (Angstroms)
 Number     Number       Type             X           Y           Z
 ---------------------------------------------------------------------
      1          7           0       -5.109138    1.215070   -1.350199
      2          1           0       -5.239841    2.043508   -0.764408
      3          1           0       -6.026493    0.773948   -1.406953
      4          6           0       -4.177238    0.327475   -0.646632
      5          1           0       -4.296050   -0.685386   -1.050789
      6          6           0       -4.430858    0.325312    0.875273
      7          6           0       -2.713579    0.792933   -0.868694
      8          1           0       -2.634223    1.834583   -0.528586
      9          1           0       -2.036329    0.217780   -0.233765
     10          8           0       -4.881714    1.315270    1.435624
     11          6           0       -2.196447    0.724222   -2.300967
     12          7           0       -3.059274    1.068940   -3.261194
     13          1           0       -2.755352    1.054308   -4.226086
     14          1           0       -4.015743    1.319904   -2.988846
     15          8           0       -1.018382    0.401418   -2.558405
     16          7           0       -4.095155   -0.826038    1.534707
     17          1           0       -3.560594   -1.506463    1.009736
     18          6           0       -3.855263   -0.806336    2.970010
     19          1           0       -4.696741   -0.271144    3.421708
     20          6           0       -2.570504    0.017878    3.241523
     21          6           0       -3.824345   -2.262567    3.523441
     22          1           0       -4.701544   -2.738113    3.063788
     23          8           0       -1.836522    0.370427    2.308792
     24          6           0       -4.029952   -2.331150    5.053940
     25          1           0       -4.783580   -1.586401    5.348643
     26          1           0       -3.096030   -2.066760    5.568583
     27          6           0       -2.568975   -3.033395    3.079957
     28          1           0       -1.659221   -2.592760    3.505074
     29          1           0       -2.619329   -4.075207    3.408249
     30          1           0       -2.447388   -3.053973    1.990135
     31          6           0       -4.492914   -3.706856    5.551047
     32          1           0       -4.653682   -3.689991    6.633720
     33          1           0       -5.437414   -3.999163    5.078104
     34          1           0       -3.755262   -4.488708    5.342706
     35          7           0       -2.290698    0.331264    4.527791
     36          1           0       -2.939438    0.047768    5.250315
     37          6           0       -1.231563    1.278571    4.923820
     38          1           0       -1.238296    2.085149    4.180585
     39          6           0        0.179544    0.626943    4.881921
     40          6           0       -1.533583    1.837804    6.309989
     41          1           0       -0.774777    2.569927    6.593949
     42          1           0       -2.511144    2.329982    6.312979
     43          1           0       -1.518723    1.046411    7.065518
     44          8           0        0.853911    0.480224    5.900819
     45          7           0        0.584900    0.291639    3.631210
     46          1           0       -0.130917    0.364651    2.901573
     47          6           0        1.903156   -0.225263    3.272045
     48          1           0        2.682595    0.494802    3.550889
     49          6           0        1.891373   -0.384417    1.773791
     50          6           0        2.303108   -1.576515    4.004777
     51          1           0        1.369593   -2.157393    4.085889
     52          8           0        0.901361   -1.037202    1.267759
     53          6           0        3.346741   -2.391563    3.245611
     54          1           0        2.962664   -2.770272    2.292166
     55          1           0        3.627057   -3.247769    3.864465
     56          1           0        4.253542   -1.802218    3.069046
     57          8           0        2.855822   -1.278737    5.255077
     58          1           0        2.222247   -0.703142    5.737191
     59          7           0        2.864480    0.121024    1.048401
     60          1           0        3.603390    0.690209    1.482451
     61          6           0        3.138997   -0.080512   -0.383115
     62          1           0        3.308525   -1.150298   -0.563473
     63          6           0        4.465584    0.696763   -0.618264
     64          6           0        1.997420    0.379353   -1.300337
     65          1           0        2.336420    0.366654   -2.341284
     66          1           0        1.698654    1.404791   -1.047006
     67          8           0        4.966007    1.335062    0.308976
     68          8           0        0.914150   -0.537425   -1.148751
     69          1           0        0.090198   -0.188127   -1.643366
     70          7           0        4.984882    0.604999   -1.846404
     71          1           0        4.593792    0.024072   -2.588561
     72          6           0        6.235934    1.232545   -2.227904
     73          1           0        6.169958    2.322839   -2.134058
     74          1           0        7.053313    0.895744   -1.577875
     75          6           0        6.495582    0.819291   -3.686057
     76          8           0        5.710793    0.070049   -4.264909
     77          7           0        7.598068    1.347585   -4.260275
     78          1           0        8.270746    1.827701   -3.675273
     79          6           0        8.033488    0.950534   -5.598399
     80          1           0        7.148801    0.903900   -6.237323
     81          6           0        8.647472   -0.451338   -5.619180
     82          6           0        9.026736    1.996285   -6.152385
     83          1           0        8.577931    2.984205   -5.984080
     84          1           0        9.950269    1.960905   -5.555328
     85          8           0        8.643137   -1.182653   -6.579468
     86          6           0        9.349586    1.830431   -7.642436
     87          1           0        9.751182    0.827579   -7.830645
     88          1           0        8.429596    1.910569   -8.232280
     89          6           0       10.347773    2.881039   -8.144842
     90          1           0       11.317331    2.751710   -7.643683
     91          1           0        9.995278    3.888742   -7.875182
     92          6           0       10.563518    2.821943   -9.662528
     93          1           0       11.411110    3.477527   -9.928528
     94          1           0       10.856530    1.802611   -9.944247
     95          7           0        9.320877    3.140066  -10.377854
     96          1           0        9.425661    2.928282  -11.368257
     97          1           0        9.141711    4.142250  -10.322628
     98          8           0        9.256234   -0.763760   -4.447353
     99          1           0        9.651550   -1.647308   -4.576109
    100          1           0        0.825422   -0.915562    0.211123
 ---------------------------------------------------------------------

 SCF Done:  E(RB3LYP) =  -2418.45062982     A.U. after    2 cycles

 Alpha  occ. eigenvalues --  -19.31939 -19.28058 -19.26747 -19.24113 -19.23007
 Alpha  occ. eigenvalues --  -19.22624 -19.22296 -19.21716 -19.21139 -19.21084
 Alpha  occ. eigenvalues --  -19.20741 -14.52331 -14.47629 -14.47141 -14.45850
 Alpha  occ. eigenvalues --  -14.45567 -14.45385 -14.44557 -14.42244 -14.35750
 Alpha  occ. eigenvalues --  -10.45932 -10.41415 -10.39589 -10.39551 -10.39067
 Alpha  occ. eigenvalues --  -10.38882 -10.38845 -10.37797 -10.37719 -10.37017
 Alpha  occ. eigenvalues --  -10.35520 -10.33843 -10.33691 -10.33490 -10.33174
 Alpha  occ. eigenvalues --  -10.33030 -10.31551 -10.29588 -10.29413 -10.27622
 Alpha  occ. eigenvalues --  -10.27117 -10.27042 -10.26637 -10.26406 -10.25484
 Alpha  occ. eigenvalues --  -10.25343 -10.23341 -10.23250  -1.23178  -1.17460
 Alpha  occ. eigenvalues --   -1.16319  -1.15152  -1.14964  -1.13845  -1.13618
 Alpha  occ. eigenvalues --   -1.13254  -1.12804  -1.09594  -1.08883  -1.08454
 Alpha  occ. eigenvalues --   -1.04096  -1.03368  -1.02709  -1.02091  -1.02071
 Alpha  occ. eigenvalues --   -1.00726  -0.98513  -0.92454  -0.92038  -0.90705
 Alpha  occ. eigenvalues --   -0.88369  -0.87470  -0.86387  -0.86088  -0.83802
 Alpha  occ. eigenvalues --   -0.82656  -0.82365  -0.80830  -0.79978  -0.79155
 Alpha  occ. eigenvalues --   -0.75601  -0.75268  -0.74674  -0.73811  -0.72751
 Alpha  occ. eigenvalues --   -0.72592  -0.71269  -0.70142  -0.69834  -0.69564
 Alpha  occ. eigenvalues --   -0.68445  -0.68030  -0.67852  -0.67649  -0.66895
 Alpha  occ. eigenvalues --   -0.65935  -0.65632  -0.65447  -0.63902  -0.63281
 Alpha  occ. eigenvalues --   -0.62965  -0.62172  -0.61611  -0.61111  -0.61055
 Alpha  occ. eigenvalues --   -0.60198  -0.59294  -0.58604  -0.58423  -0.58135
 Alpha  occ. eigenvalues --   -0.58052  -0.57514  -0.56698  -0.56249  -0.55921
 Alpha  occ. eigenvalues --   -0.55708  -0.55464  -0.55252  -0.54950  -0.54886
 Alpha  occ. eigenvalues --   -0.54800  -0.54185  -0.54045  -0.53295  -0.53158
 Alpha  occ. eigenvalues --   -0.52956  -0.52727  -0.52458  -0.51607  -0.51436
 Alpha  occ. eigenvalues --   -0.51100  -0.50915  -0.50761  -0.50718  -0.49689
 Alpha  occ. eigenvalues --   -0.49647  -0.49476  -0.49081  -0.48771  -0.48536
 Alpha  occ. eigenvalues --   -0.48319  -0.48060  -0.47796  -0.47685  -0.47222
 Alpha  occ. eigenvalues --   -0.47176  -0.46975  -0.46817  -0.46774  -0.45972
 Alpha  occ. eigenvalues --   -0.45808  -0.45611  -0.45508  -0.45207  -0.45169
 Alpha  occ. eigenvalues --   -0.44986  -0.44238  -0.43180  -0.42615  -0.42461
 Alpha  occ. eigenvalues --   -0.42055  -0.41967  -0.41680  -0.41540  -0.40921
 Alpha  occ. eigenvalues --   -0.39416  -0.39073  -0.38755  -0.38417  -0.38271
 Alpha  occ. eigenvalues --   -0.38030  -0.37546  -0.37156  -0.36959  -0.36731
 Alpha  occ. eigenvalues --   -0.36644  -0.36314  -0.35879  -0.35577  -0.35321
 Alpha  occ. eigenvalues --   -0.34742  -0.33980  -0.33813  -0.32917  -0.27941
 Alpha virt. eigenvalues --   -0.15056  -0.09795  -0.09075  -0.08419  -0.08010
 Alpha virt. eigenvalues --   -0.07232  -0.06713  -0.05954  -0.03341  -0.02469
 Alpha virt. eigenvalues --   -0.01736  -0.01228  -0.01016  -0.00550  -0.00124

 Mulliken charges:
               1
     1  N   -0.736721
     2  H    0.339470
     3  H    0.330134
     4  C   -0.104355
     5  H    0.158230
     6  C    0.624659
     7  C   -0.364409
     8  H    0.198565
     9  H    0.179008
    10  O   -0.514366
    11  C    0.613580
    12  N   -0.723900
    13  H    0.354428
    14  H    0.398936
    15  O   -0.584480
    16  N   -0.595993
    17  H    0.333831
    18  C   -0.076178
    19  H    0.196522
    20  C    0.646736
    21  C   -0.085443
    22  H    0.161342
    23  O   -0.563317
    24  C   -0.287731
    25  H    0.142553
    26  H    0.140134
    27  C   -0.477394
    28  H    0.158569
    29  H    0.176709
    30  H    0.139463
    31  C   -0.453580
    32  H    0.165917
    33  H    0.159308
    34  H    0.158566
    35  N   -0.603139
    36  H    0.354967
    37  C   -0.059304
    38  H    0.191188
    39  C    0.637683
    40  C   -0.476247
    41  H    0.192005
    42  H    0.166961
    43  H    0.179292
    44  O   -0.528439
    45  N   -0.678296
    46  H    0.411894
    47  C   -0.013495
    48  H    0.192595
    49  C    0.600089
    50  C    0.164979
    51  H    0.139146
    52  O   -0.578230
    53  C   -0.479030
    54  H    0.141834
    55  H    0.197784
    56  H    0.159704
    57  O   -0.635658
    58  H    0.437831
    59  N   -0.598894
    60  H    0.402769
    61  C   -0.097380
    62  H    0.220107
    63  C    0.636749
    64  C   -0.030358
    65  H    0.189619
    66  H    0.175508
    67  O   -0.525603
    68  O   -0.712108
    69  H    0.482351
    70  N   -0.631274
    71  H    0.373941
    72  C   -0.205528
    73  H    0.205740
    74  H    0.207488
    75  C    0.620119
    76  O   -0.521678
    77  N   -0.612769
    78  H    0.343335
    79  C   -0.025217
    80  H    0.207416
    81  C    0.599507
    82  C   -0.308054
    83  H    0.156258
    84  H    0.146216
    85  O   -0.442837
    86  C   -0.262243
    87  H    0.158968
    88  H    0.174296
    89  C   -0.254238
    90  H    0.132313
    91  H    0.124782
    92  C   -0.144199
    93  H    0.124142
    94  H    0.145684
    95  N   -0.715627
    96  H    0.305212
    97  H    0.294783
    98  O   -0.578433
    99  H    0.420306
   100  H    0.493923
 Sum of Mulliken charges =   1.00000

 Dipole moment (field-independent basis, Debye):
    X=              4.5253    Y=              2.0839    Z=             -1.7178  Tot=              5.2699
 Quadrupole moment (field-independent basis, Debye-Ang):
   XX=           -123.6679   YY=           -258.2807   ZZ=           -220.4597
   XY=             40.4898   XZ=            -75.8513   YZ=            -39.2554

 Normal termination of Gaussian 16 at Fri May 27 02:50:10 2022.
