 Gaussian 16, Revision C.01,
 Gaussian 16:  ES64L-G16RevC.01  3-Jul-2019

 -------------------------------------------------------------------
 # B3LYP/6-31G* guess=read geom=check nosymm integral(ultrafinegrid)
 -------------------------------------------------------------------

 ------------------------------------------------------
 Candidate Structure: Conf:981 Charge calc in gas phase
 ------------------------------------------------------
 Structure from the checkpoint file:  "conf-981.chk"
 Charge =  1 Multiplicity = 1

                          Input orientation:
 ---------------------------------------------------------------------
 Center     Atomic      Atomic             Coordinates (Angstroms)
 Number     Number       Type             X           Y           Z
 ---------------------------------------------------------------------
      1          7           0       -7.759771   -1.306781    2.386382
      2          1           0       -8.616526   -1.436008    1.849565
      3          1           0       -7.992999   -1.532648    3.354120
      4          6           0       -7.388441    0.108734    2.280953
      5          1           0       -7.453163    0.360047    1.214233
      6          6           0       -5.915647    0.316496    2.662819
      7          6           0       -8.292525    1.095407    3.033886
      8          1           0       -8.359708    0.815809    4.095101
      9          1           0       -7.846066    2.096037    3.007616
     10          8           0       -5.450554    1.438338    2.909613
     11          6           0       -9.697419    1.123975    2.428119
     12          7           0      -10.556891    2.008615    3.003397
     13          1           0      -11.486339    2.095478    2.615555
     14          1           0      -10.264229    2.672284    3.704934
     15          8           0      -10.031500    0.393806    1.500153
     16          7           0       -5.171115   -0.812257    2.654710
     17          1           0       -5.673563   -1.658278    2.393939
     18          6           0       -3.758609   -0.842877    3.034108
     19          1           0       -3.628855   -0.074497    3.805444
     20          6           0       -2.931235   -0.405243    1.798035
     21          6           0       -3.344811   -2.219532    3.595150
     22          1           0       -3.350163   -2.925494    2.754062
     23          8           0       -2.289226   -1.208486    1.098236
     24          6           0       -4.338841   -2.751572    4.656274
     25          1           0       -3.981549   -3.743191    4.962337
     26          1           0       -5.318399   -2.922996    4.193577
     27          6           0       -1.912022   -2.173744    4.153579
     28          1           0       -1.798001   -1.398670    4.920551
     29          1           0       -1.658266   -3.134141    4.615112
     30          1           0       -1.173971   -1.987197    3.370248
     31          6           0       -4.522962   -1.877210    5.903467
     32          1           0       -5.222116   -2.352941    6.599594
     33          1           0       -3.581587   -1.726098    6.442472
     34          1           0       -4.929562   -0.889422    5.656695
     35          7           0       -3.018358    0.918100    1.530240
     36          1           0       -3.688306    1.438408    2.106111
     37          6           0       -2.639700    1.534979    0.245416
     38          1           0       -2.962562    0.860166   -0.558443
     39          6           0       -1.102034    1.680704    0.153760
     40          6           0       -3.325248    2.890708    0.108344
     41          1           0       -3.122894    3.317631   -0.877547
     42          1           0       -4.407271    2.783639    0.229266
     43          1           0       -2.945024    3.589145    0.858459
     44          8           0       -0.501439    2.721540    0.368631
     45          7           0       -0.481130    0.505878   -0.201279
     46          1           0       -1.061511   -0.330400   -0.129466
     47          6           0        0.936560    0.341858   -0.017054
     48          1           0        1.370974    1.342827    0.087741
     49          6           0        1.558017   -0.342849   -1.210083
     50          6           0        1.263389   -0.504875    1.275621
     51          1           0        2.340828   -0.712995    1.273298
     52          8           0        0.792001   -1.096332   -1.928519
     53          6           0        0.917136    0.269491    2.546219
     54          1           0        1.482575    1.204881    2.608751
     55          1           0        1.163794   -0.348616    3.414274
     56          1           0       -0.147473    0.517463    2.590066
     57          8           0        0.640148   -1.768525    1.188702
     58          1           0       -0.323831   -1.671472    1.327599
     59          7           0        2.846434   -0.196792   -1.436618
     60          1           0        3.392939    0.468194   -0.870763
     61          6           0        3.741337   -0.966415   -2.310778
     62          1           0        3.701511   -2.024477   -2.017846
     63          6           0        5.158369   -0.404524   -1.977223
     64          6           0        3.392685   -0.850152   -3.804632
     65          1           0        4.200550   -1.258749   -4.417378
     66          1           0        3.249599    0.198025   -4.079255
     67          8           0        5.264617    0.531914   -1.186217
     68          8           0        2.159900   -1.530624   -4.100227
     69          1           0        2.339226   -2.434899   -4.404863
     70          7           0        6.179212   -1.005168   -2.595675
     71          1           0        6.084446   -1.826285   -3.194975
     72          6           0        7.568665   -0.642774   -2.383427
     73          1           0        7.754912    0.389702   -2.701338
     74          1           0        7.831350   -0.711808   -1.320886
     75          6           0        8.396354   -1.634418   -3.221578
     76          8           0        7.826996   -2.510579   -3.877792
     77          7           0        9.727154   -1.465081   -3.172829
     78          1           0       10.150858   -0.754742   -2.583228
     79          6           0       10.670080   -2.338592   -3.869336
     80          1           0       10.317117   -3.371926   -3.790273
     81          6           0       11.989333   -2.197202   -3.117891
     82          6           0       10.792899   -1.960249   -5.369407
     83          1           0        9.765388   -1.900126   -5.746337
     84          1           0       11.219905   -0.951342   -5.442203
     85          8           0       12.246003   -1.267476   -2.381017
     86          6           0       11.588739   -2.946282   -6.233812
     87          1           0       12.631581   -2.991764   -5.897923
     88          1           0       11.176033   -3.955645   -6.096422
     89          6           0       11.549924   -2.574464   -7.722350
     90          1           0       11.949165   -1.557999   -7.854268
     91          1           0       10.504601   -2.541990   -8.065919
     92          6           0       12.347497   -3.537249   -8.625386
     93          1           0       12.340371   -3.144184   -9.649371
     94          1           0       13.398783   -3.544659   -8.308238
     95          7           0       11.896240   -4.927872   -8.684440
     96          1           0       10.918339   -4.972565   -8.967553
     97          1           0       11.956829   -5.369417   -7.769291
     98          8           0       12.838225   -3.203968   -3.373679
     99          1           0       13.663483   -3.018141   -2.884107
    100          1           0        1.231466   -1.411679   -2.781513
 ---------------------------------------------------------------------

 SCF Done:  E(RB3LYP) =  -2418.43573194     A.U. after    3 cycles

 Alpha  occ. eigenvalues --  -19.34085 -19.32492 -19.28830 -19.25295 -19.23427
 Alpha  occ. eigenvalues --  -19.23310 -19.22557 -19.21509 -19.20552 -19.19359
 Alpha  occ. eigenvalues --  -19.17631 -14.53170 -14.48787 -14.46211 -14.44601
 Alpha  occ. eigenvalues --  -14.44388 -14.43407 -14.41851 -14.38903 -14.36119
 Alpha  occ. eigenvalues --  -10.46787 -10.42635 -10.41323 -10.39821 -10.39450
 Alpha  occ. eigenvalues --  -10.39253 -10.37813 -10.37407 -10.36020 -10.35385
 Alpha  occ. eigenvalues --  -10.35212 -10.34791 -10.34366 -10.33057 -10.31930
 Alpha  occ. eigenvalues --  -10.31138 -10.29556 -10.27040 -10.26585 -10.26539
 Alpha  occ. eigenvalues --  -10.26175 -10.25701 -10.25407 -10.25152 -10.24895
 Alpha  occ. eigenvalues --  -10.24357 -10.24019 -10.23669  -1.24959  -1.19900
 Alpha  occ. eigenvalues --   -1.18923  -1.17480  -1.14424  -1.13086  -1.12182
 Alpha  occ. eigenvalues --   -1.11287  -1.10986  -1.10822  -1.10046  -1.09376
 Alpha  occ. eigenvalues --   -1.05248  -1.02835  -1.02156  -1.01079  -1.00079
 Alpha  occ. eigenvalues --   -0.96549  -0.95829  -0.93405  -0.92899  -0.88882
 Alpha  occ. eigenvalues --   -0.88320  -0.87836  -0.85148  -0.84885  -0.83664
 Alpha  occ. eigenvalues --   -0.82573  -0.82248  -0.80564  -0.79994  -0.77763
 Alpha  occ. eigenvalues --   -0.76688  -0.76267  -0.73759  -0.73582  -0.72822
 Alpha  occ. eigenvalues --   -0.72545  -0.71276  -0.71203  -0.70374  -0.69731
 Alpha  occ. eigenvalues --   -0.69002  -0.67678  -0.67087  -0.66221  -0.65607
 Alpha  occ. eigenvalues --   -0.65293  -0.64605  -0.64344  -0.64134  -0.62780
 Alpha  occ. eigenvalues --   -0.62542  -0.61586  -0.60474  -0.60374  -0.60187
 Alpha  occ. eigenvalues --   -0.59617  -0.58981  -0.58658  -0.58564  -0.58282
 Alpha  occ. eigenvalues --   -0.57966  -0.57515  -0.56753  -0.56302  -0.56009
 Alpha  occ. eigenvalues --   -0.55662  -0.55237  -0.54793  -0.54622  -0.54601
 Alpha  occ. eigenvalues --   -0.54203  -0.54065  -0.52989  -0.52836  -0.52709
 Alpha  occ. eigenvalues --   -0.52604  -0.52555  -0.51772  -0.51536  -0.51368
 Alpha  occ. eigenvalues --   -0.51206  -0.50170  -0.49998  -0.49821  -0.49327
 Alpha  occ. eigenvalues --   -0.49085  -0.48951  -0.48448  -0.48102  -0.47886
 Alpha  occ. eigenvalues --   -0.47483  -0.47456  -0.47263  -0.46797  -0.46713
 Alpha  occ. eigenvalues --   -0.46579  -0.46550  -0.46229  -0.45915  -0.45588
 Alpha  occ. eigenvalues --   -0.45491  -0.45117  -0.44973  -0.44618  -0.44287
 Alpha  occ. eigenvalues --   -0.43645  -0.43396  -0.43248  -0.42893  -0.42383
 Alpha  occ. eigenvalues --   -0.41750  -0.41649  -0.41499  -0.40670  -0.39795
 Alpha  occ. eigenvalues --   -0.39607  -0.39495  -0.39173  -0.39072  -0.38777
 Alpha  occ. eigenvalues --   -0.38479  -0.37396  -0.37324  -0.36739  -0.36517
 Alpha  occ. eigenvalues --   -0.36335  -0.35317  -0.34522  -0.34181  -0.33062
 Alpha  occ. eigenvalues --   -0.32666  -0.32373  -0.31839  -0.30772  -0.28061
 Alpha virt. eigenvalues --   -0.15755  -0.11079  -0.08552  -0.08014  -0.07992
 Alpha virt. eigenvalues --   -0.07451  -0.06880  -0.05135  -0.03346  -0.03218
 Alpha virt. eigenvalues --   -0.02647  -0.01574  -0.00749  -0.00707   0.00420

 Mulliken charges:
               1
     1  N   -0.757818
     2  H    0.347878
     3  H    0.306313
     4  C   -0.062368
     5  H    0.193332
     6  C    0.617718
     7  C   -0.389522
     8  H    0.166707
     9  H    0.196067
    10  O   -0.568421
    11  C    0.611126
    12  N   -0.748674
    13  H    0.353019
    14  H    0.345179
    15  O   -0.512218
    16  N   -0.612710
    17  H    0.374939
    18  C   -0.044835
    19  H    0.179843
    20  C    0.632762
    21  C   -0.100046
    22  H    0.151433
    23  O   -0.577190
    24  C   -0.263523
    25  H    0.148072
    26  H    0.133852
    27  C   -0.475803
    28  H    0.150561
    29  H    0.160767
    30  H    0.149675
    31  C   -0.460290
    32  H    0.157436
    33  H    0.155448
    34  H    0.149247
    35  N   -0.619428
    36  H    0.396616
    37  C   -0.055439
    38  H    0.173805
    39  C    0.621779
    40  C   -0.477173
    41  H    0.172811
    42  H    0.169691
    43  H    0.189830
    44  O   -0.501296
    45  N   -0.618624
    46  H    0.375011
    47  C   -0.094423
    48  H    0.213481
    49  C    0.666101
    50  C    0.126614
    51  H    0.145180
    52  O   -0.546935
    53  C   -0.476404
    54  H    0.169190
    55  H    0.183119
    56  H    0.169431
    57  O   -0.651474
    58  H    0.446581
    59  N   -0.601129
    60  H    0.406057
    61  C   -0.096200
    62  H    0.210029
    63  C    0.637060
    64  C   -0.063715
    65  H    0.194249
    66  H    0.213329
    67  O   -0.517269
    68  O   -0.628345
    69  H    0.441265
    70  N   -0.631924
    71  H    0.366855
    72  C   -0.203795
    73  H    0.210397
    74  H    0.211191
    75  C    0.618895
    76  O   -0.538368
    77  N   -0.623051
    78  H    0.363415
    79  C   -0.033075
    80  H    0.198397
    81  C    0.586494
    82  C   -0.270012
    83  H    0.168576
    84  H    0.152097
    85  O   -0.463656
    86  C   -0.264434
    87  H    0.153214
    88  H    0.129716
    89  C   -0.264039
    90  H    0.133866
    91  H    0.124967
    92  C   -0.146246
    93  H    0.151446
    94  H    0.145389
    95  N   -0.701621
    96  H    0.293005
    97  H    0.297678
    98  O   -0.550812
    99  H    0.429219
   100  H    0.474887
 Sum of Mulliken charges =   1.00000

 Dipole moment (field-independent basis, Debye):
    X=             10.0693    Y=             -4.3528    Z=             -4.5538  Tot=             11.8775
 Quadrupole moment (field-independent basis, Debye-Ang):
   XX=            -39.7104   YY=           -277.1417   ZZ=           -221.7871
   XY=            -49.5561   XZ=           -104.5988   YZ=              9.1800

 Normal termination of Gaussian 16 at Fri May 27 02:50:20 2022.
