 Gaussian 16, Revision C.01,
 Gaussian 16:  ES64L-G16RevC.01  3-Jul-2019

 -------------------------------------------------------------------
 # B3LYP/6-31G* guess=read geom=check nosymm integral(ultrafinegrid)
 -------------------------------------------------------------------

 ------------------------------------------------------
 Candidate Structure: Conf:102 Charge calc in gas phase
 ------------------------------------------------------
 Structure from the checkpoint file:  "conf-102.chk"
 Charge =  1 Multiplicity = 1

                          Input orientation:
 ---------------------------------------------------------------------
 Center     Atomic      Atomic             Coordinates (Angstroms)
 Number     Number       Type             X           Y           Z
 ---------------------------------------------------------------------
      1          7           0       -6.359204    4.347585   -1.787872
      2          1           0       -7.282457    4.360063   -2.211651
      3          1           0       -5.662757    4.138817   -2.498358
      4          6           0       -6.280860    3.388655   -0.701224
      5          1           0       -6.777688    3.816359    0.177530
      6          6           0       -4.786501    3.217761   -0.359699
      7          6           0       -6.955393    2.008483   -0.982279
      8          1           0       -7.816819    2.180265   -1.639597
      9          1           0       -6.276295    1.348982   -1.540546
     10          8           0       -3.906590    3.499265   -1.187677
     11          6           0       -7.428800    1.279756    0.276568
     12          7           0       -8.413087    0.366745    0.089842
     13          1           0       -8.774490   -0.122686    0.898039
     14          1           0       -8.878357    0.238715   -0.796279
     15          8           0       -6.952530    1.489637    1.394450
     16          7           0       -4.512555    2.745975    0.876341
     17          1           0       -5.300308    2.366470    1.409645
     18          6           0       -3.153222    2.689257    1.414687
     19          1           0       -2.626815    3.567579    1.023010
     20          6           0       -2.444109    1.445339    0.839435
     21          6           0       -3.131296    2.722953    2.957515
     22          1           0       -3.524048    1.758988    3.307119
     23          8           0       -2.280599    0.387775    1.472217
     24          6           0       -4.039721    3.831893    3.540829
     25          1           0       -3.973832    3.754944    4.633634
     26          1           0       -5.086318    3.617628    3.293790
     27          6           0       -1.683659    2.853015    3.464482
     28          1           0       -1.209631    3.772031    3.100502
     29          1           0       -1.673165    2.889775    4.558897
     30          1           0       -1.060144    2.006942    3.161772
     31          6           0       -3.709620    5.268682    3.116439
     32          1           0       -4.391673    5.971540    3.606141
     33          1           0       -2.690695    5.557960    3.395382
     34          1           0       -3.818195    5.414510    2.035337
     35          7           0       -2.010770    1.590176   -0.439755
     36          1           0       -2.382060    2.418440   -0.923477
     37          6           0       -1.650178    0.445406   -1.283469
     38          1           0       -2.292469   -0.401989   -1.000824
     39          6           0       -0.215880   -0.042802   -0.997605
     40          6           0       -1.874670    0.794581   -2.754756
     41          1           0       -1.682629   -0.068441   -3.395068
     42          1           0       -2.913063    1.109357   -2.888367
     43          1           0       -1.220629    1.610736   -3.074160
     44          8           0        0.547874   -0.146539   -2.036022
     45          7           0        0.065679   -0.317185    0.250175
     46          1           0       -0.740487   -0.142749    0.880853
     47          6           0        1.292309   -0.739804    0.945946
     48          1           0        1.873930    0.160423    1.177016
     49          6           0        2.086133   -1.716219    0.081725
     50          6           0        0.856004   -1.381071    2.299975
     51          1           0        0.256816   -2.269632    2.062602
     52          8           0        1.542533   -2.717145   -0.393800
     53          6           0        2.061743   -1.771575    3.145875
     54          1           0        2.688955   -2.514288    2.642885
     55          1           0        1.711631   -2.198084    4.089054
     56          1           0        2.669075   -0.890467    3.380377
     57          8           0        0.098070   -0.421413    3.022926
     58          1           0       -0.855688   -0.556863    2.898741
     59          7           0        3.369806   -1.369651   -0.141605
     60          1           0        3.797323   -0.538799    0.261771
     61          6           0        4.231741   -2.093858   -1.057305
     62          1           0        4.095184   -3.170258   -0.904260
     63          6           0        5.670457   -1.644190   -0.752929
     64          6           0        3.882239   -1.713434   -2.522226
     65          1           0        4.384669   -2.394218   -3.220045
     66          1           0        4.207865   -0.692193   -2.739396
     67          8           0        5.858475   -0.557783   -0.202305
     68          8           0        2.468362   -1.740960   -2.750883
     69          1           0        2.114948   -2.573967   -2.380970
     70          7           0        6.664182   -2.442029   -1.193495
     71          1           0        6.433724   -3.297342   -1.682249
     72          6           0        8.066000   -2.017521   -1.180335
     73          1           0        8.224347   -1.418661   -0.278854
     74          1           0        8.706745   -2.898449   -1.136608
     75          6           0        8.482630   -1.208254   -2.429212
     76          8           0        9.515312   -1.468732   -3.029396
     77          7           0        7.610106   -0.226315   -2.783058
     78          1           0        6.877277    0.048127   -2.138158
     79          6           0        7.822150    0.649089   -3.932026
     80          1           0        8.819035    1.101745   -3.882697
     81          6           0        6.768359    1.741457   -3.833415
     82          6           0        7.692285   -0.123420   -5.273690
     83          1           0        8.366292   -0.981847   -5.188612
     84          1           0        6.668685   -0.516601   -5.344414
     85          8           0        5.690090    1.607013   -3.283484
     86          6           0        8.045385    0.688505   -6.525330
     87          1           0        7.348739    1.519701   -6.669190
     88          1           0        9.040878    1.137048   -6.397273
     89          6           0        8.045727   -0.172571   -7.795153
     90          1           0        7.086761   -0.707486   -7.880700
     91          1           0        8.822096   -0.946649   -7.724654
     92          6           0        8.272733    0.642667   -9.074167
     93          1           0        9.194229    1.229104   -8.968027
     94          1           0        8.437813   -0.051363   -9.916715
     95          7           0        7.168747    1.587845   -9.295867
     96          1           0        6.345433    1.077469   -9.614751
     97          1           0        7.408760    2.227455  -10.051290
     98          8           0        7.145997    2.874010   -4.443641
     99          1           0        6.397425    3.498917   -4.387055
    100          1           0        1.406524   -0.690630   -2.056795
 ---------------------------------------------------------------------

 SCF Done:  E(RB3LYP) =  -2418.42770873     A.U. after    2 cycles

 Alpha  occ. eigenvalues --  -19.33511 -19.28973 -19.27892 -19.25168 -19.24384
 Alpha  occ. eigenvalues --  -19.24300 -19.23425 -19.22525 -19.21349 -19.21206
 Alpha  occ. eigenvalues --  -19.18867 -14.51917 -14.48794 -14.48046 -14.47115
 Alpha  occ. eigenvalues --  -14.45007 -14.44524 -14.43222 -14.38629 -14.36103
 Alpha  occ. eigenvalues --  -10.46374 -10.41794 -10.40717 -10.40396 -10.40383
 Alpha  occ. eigenvalues --  -10.38770 -10.37818 -10.36987 -10.36579 -10.36386
 Alpha  occ. eigenvalues --  -10.35978 -10.35902 -10.35760 -10.32634 -10.31854
 Alpha  occ. eigenvalues --  -10.31185 -10.31127 -10.29346 -10.29174 -10.27484
 Alpha  occ. eigenvalues --  -10.27346 -10.25502 -10.25245 -10.25181 -10.24762
 Alpha  occ. eigenvalues --  -10.23806 -10.23229 -10.23185  -1.23560  -1.18979
 Alpha  occ. eigenvalues --   -1.17128  -1.15874  -1.15413  -1.15082  -1.13023
 Alpha  occ. eigenvalues --   -1.12922  -1.12531  -1.10853  -1.09855  -1.09031
 Alpha  occ. eigenvalues --   -1.05185  -1.04058  -1.03786  -1.01394  -0.99803
 Alpha  occ. eigenvalues --   -0.99712  -0.96499  -0.92715  -0.92579  -0.89747
 Alpha  occ. eigenvalues --   -0.88682  -0.88076  -0.86554  -0.84652  -0.83458
 Alpha  occ. eigenvalues --   -0.82691  -0.81780  -0.80599  -0.79999  -0.78607
 Alpha  occ. eigenvalues --   -0.76881  -0.75805  -0.75349  -0.73891  -0.73281
 Alpha  occ. eigenvalues --   -0.71830  -0.71179  -0.70739  -0.70430  -0.69629
 Alpha  occ. eigenvalues --   -0.69342  -0.68309  -0.67825  -0.66821  -0.65749
 Alpha  occ. eigenvalues --   -0.65351  -0.64345  -0.63914  -0.63845  -0.63195
 Alpha  occ. eigenvalues --   -0.63016  -0.62927  -0.62649  -0.61421  -0.61357
 Alpha  occ. eigenvalues --   -0.60471  -0.60370  -0.59401  -0.58604  -0.57971
 Alpha  occ. eigenvalues --   -0.57583  -0.57425  -0.56988  -0.56809  -0.56056
 Alpha  occ. eigenvalues --   -0.55513  -0.55133  -0.54516  -0.54017  -0.53888
 Alpha  occ. eigenvalues --   -0.53528  -0.53366  -0.53223  -0.53100  -0.52951
 Alpha  occ. eigenvalues --   -0.52755  -0.52263  -0.52036  -0.51450  -0.51181
 Alpha  occ. eigenvalues --   -0.50913  -0.50755  -0.50486  -0.50378  -0.49993
 Alpha  occ. eigenvalues --   -0.49754  -0.49571  -0.49368  -0.49180  -0.49055
 Alpha  occ. eigenvalues --   -0.48795  -0.48593  -0.48398  -0.47941  -0.47668
 Alpha  occ. eigenvalues --   -0.47443  -0.46954  -0.46749  -0.46654  -0.46594
 Alpha  occ. eigenvalues --   -0.46009  -0.45458  -0.45392  -0.45092  -0.44574
 Alpha  occ. eigenvalues --   -0.43904  -0.43482  -0.43403  -0.42991  -0.42457
 Alpha  occ. eigenvalues --   -0.42248  -0.41096  -0.40509  -0.40075  -0.39747
 Alpha  occ. eigenvalues --   -0.39551  -0.39264  -0.39065  -0.38993  -0.38566
 Alpha  occ. eigenvalues --   -0.38216  -0.38080  -0.38022  -0.37770  -0.37169
 Alpha  occ. eigenvalues --   -0.37055  -0.36300  -0.36075  -0.35423  -0.34885
 Alpha  occ. eigenvalues --   -0.34185  -0.32825  -0.31855  -0.30604  -0.28276
 Alpha virt. eigenvalues --   -0.15138  -0.11741  -0.10398  -0.09810  -0.07516
 Alpha virt. eigenvalues --   -0.07326  -0.06531  -0.05312  -0.03548  -0.03330
 Alpha virt. eigenvalues --   -0.02054  -0.01241  -0.00955  -0.00360   0.00017

 Mulliken charges:
               1
     1  N   -0.712043
     2  H    0.303829
     3  H    0.319901
     4  C   -0.048967
     5  H    0.181588
     6  C    0.611829
     7  C   -0.396293
     8  H    0.163302
     9  H    0.177682
    10  O   -0.559592
    11  C    0.619571
    12  N   -0.737122
    13  H    0.360948
    14  H    0.352394
    15  O   -0.525929
    16  N   -0.632024
    17  H    0.404856
    18  C   -0.044905
    19  H    0.184372
    20  C    0.634514
    21  C   -0.103914
    22  H    0.152751
    23  O   -0.573255
    24  C   -0.265977
    25  H    0.150055
    26  H    0.145893
    27  C   -0.481220
    28  H    0.150703
    29  H    0.164778
    30  H    0.158727
    31  C   -0.461184
    32  H    0.162859
    33  H    0.153447
    34  H    0.152263
    35  N   -0.614683
    36  H    0.403246
    37  C   -0.075219
    38  H    0.210716
    39  C    0.655294
    40  C   -0.472605
    41  H    0.186457
    42  H    0.184343
    43  H    0.189311
    44  O   -0.580191
    45  N   -0.611334
    46  H    0.421070
    47  C   -0.008393
    48  H    0.191360
    49  C    0.582144
    50  C    0.086306
    51  H    0.170676
    52  O   -0.550152
    53  C   -0.462920
    54  H    0.162232
    55  H    0.191201
    56  H    0.170115
    57  O   -0.622610
    58  H    0.434286
    59  N   -0.598442
    60  H    0.373544
    61  C   -0.103787
    62  H    0.191901
    63  C    0.619502
    64  C   -0.039805
    65  H    0.168010
    66  H    0.211749
    67  O   -0.530634
    68  O   -0.640689
    69  H    0.436830
    70  N   -0.583427
    71  H    0.349432
    72  C   -0.254282
    73  H    0.219893
    74  H    0.202318
    75  C    0.601814
    76  O   -0.494373
    77  N   -0.647400
    78  H    0.370499
    79  C    0.009651
    80  H    0.193815
    81  C    0.568482
    82  C   -0.282169
    83  H    0.184721
    84  H    0.128707
    85  O   -0.486291
    86  C   -0.260424
    87  H    0.170151
    88  H    0.140287
    89  C   -0.253716
    90  H    0.120153
    91  H    0.138688
    92  C   -0.144762
    93  H    0.144963
    94  H    0.123738
    95  N   -0.716923
    96  H    0.292404
    97  H    0.303867
    98  O   -0.542198
    99  H    0.421611
   100  H    0.488100
 Sum of Mulliken charges =   1.00000

 Dipole moment (field-independent basis, Debye):
    X=             -2.8624    Y=             -2.6481    Z=             -7.2217  Tot=              8.2072
 Quadrupole moment (field-independent basis, Debye-Ang):
   XX=           -143.8872   YY=           -264.3524   ZZ=           -221.7348
   XY=            -18.9140   XZ=            -17.2707   YZ=             -0.7170

 Normal termination of Gaussian 16 at Fri May 27 02:50:11 2022.
