 Gaussian 16, Revision C.01,
 Gaussian 16:  ES64L-G16RevC.01  3-Jul-2019

 -------------------------------------------------------------------
 # B3LYP/6-31G* guess=read geom=check nosymm integral(ultrafinegrid)
 -------------------------------------------------------------------

 ------------------------------------------------------
 Candidate Structure: Conf:746 Charge calc in gas phase
 ------------------------------------------------------
 Structure from the checkpoint file:  "conf-746.chk"
 Charge =  1 Multiplicity = 1

                          Input orientation:
 ---------------------------------------------------------------------
 Center     Atomic      Atomic             Coordinates (Angstroms)
 Number     Number       Type             X           Y           Z
 ---------------------------------------------------------------------
      1          7           0       -6.162264   -0.157176    1.115329
      2          1           0       -6.916254   -0.631620    0.624304
      3          1           0       -6.601194    0.521825    1.742218
      4          6           0       -5.313940    0.566086    0.163379
      5          1           0       -5.247315   -0.031728   -0.755206
      6          6           0       -3.866333    0.664435    0.687711
      7          6           0       -5.814147    1.978250   -0.235352
      8          1           0       -5.150172    2.397230   -0.994854
      9          1           0       -6.817379    1.884315   -0.662663
     10          8           0       -3.047497    1.451475    0.181456
     11          6           0       -5.913887    2.877536    0.991998
     12          7           0       -5.017208    3.902461    1.049332
     13          1           0       -4.973832    4.425225    1.915070
     14          1           0       -4.180445    3.865376    0.483122
     15          8           0       -6.747268    2.670602    1.871738
     16          7           0       -3.572010   -0.184341    1.687749
     17          1           0       -4.365000   -0.738884    2.006976
     18          6           0       -2.323176   -0.153056    2.455901
     19          1           0       -2.002978    0.896271    2.468790
     20          6           0       -1.201842   -0.918978    1.706599
     21          6           0       -2.607167   -0.596997    3.912606
     22          1           0       -3.424642    0.069012    4.228002
     23          8           0       -0.598521   -1.896130    2.186408
     24          6           0       -1.438042   -0.346145    4.890226
     25          1           0       -0.646606   -1.083935    4.726169
     26          1           0       -1.828006   -0.547275    5.896526
     27          6           0       -3.110747   -2.046723    4.034137
     28          1           0       -2.340146   -2.756524    3.724778
     29          1           0       -3.375916   -2.257026    5.075970
     30          1           0       -4.009965   -2.237998    3.435899
     31          6           0       -0.839356    1.064955    4.864625
     32          1           0       -0.141451    1.194918    5.697855
     33          1           0       -0.269879    1.256590    3.948594
     34          1           0       -1.616357    1.834657    4.957251
     35          7           0       -0.925411   -0.415042    0.484678
     36          1           0       -1.468577    0.401895    0.186756
     37          6           0       -0.065855   -1.071429   -0.511375
     38          1           0       -0.222144   -2.152939   -0.409803
     39          6           0        1.423915   -0.788157   -0.199330
     40          6           0       -0.456247   -0.609511   -1.910618
     41          1           0        0.130041   -1.125668   -2.676503
     42          1           0       -1.517427   -0.812615   -2.086047
     43          1           0       -0.278461    0.464514   -2.021332
     44          8           0        2.120265   -0.015501   -0.865571
     45          7           0        1.884760   -1.467195    0.880991
     46          1           0        1.172658   -1.985312    1.396533
     47          6           0        3.090668   -1.062894    1.611723
     48          1           0        3.192104    0.024876    1.510698
     49          6           0        4.319520   -1.728742    0.967498
     50          6           0        2.933310   -1.402316    3.113585
     51          1           0        2.882448   -2.496446    3.215009
     52          8           0        4.930989   -2.675030    1.452339
     53          6           0        4.097949   -0.874671    3.943137
     54          1           0        5.039593   -1.338669    3.641387
     55          1           0        3.915823   -1.099871    4.997494
     56          1           0        4.176153    0.213893    3.840480
     57          8           0        1.754144   -0.789521    3.619793
     58          1           0        0.969341   -1.276656    3.311640
     59          7           0        4.686019   -1.162479   -0.227812
     60          1           0        4.035751   -0.515524   -0.684894
     61          6           0        5.796594   -1.714438   -0.956383
     62          1           0        6.555270   -2.034676   -0.234813
     63          6           0        6.357764   -0.701659   -1.940959
     64          6           0        5.358599   -2.955677   -1.772256
     65          1           0        4.489882   -2.700828   -2.389155
     66          1           0        5.101468   -3.751476   -1.069913
     67          8           0        5.666788    0.094562   -2.564094
     68          8           0        6.461923   -3.383012   -2.619525
     69          1           0        6.328280   -4.312455   -2.867383
     70          7           0        7.691621   -0.849519   -2.236985
     71          1           0        8.235400   -1.569825   -1.781417
     72          6           0        8.192528   -0.231059   -3.436471
     73          1           0        8.149074    0.860745   -3.369902
     74          1           0        9.237722   -0.525043   -3.582009
     75          6           0        7.391960   -0.678494   -4.657495
     76          8           0        6.861000   -1.856966   -4.734066
     77          7           0        7.292088    0.116839   -5.689683
     78          1           0        7.731049    1.031210   -5.630275
     79          6           0        6.563864   -0.162454   -6.944902
     80          1           0        6.461474   -1.244494   -7.037457
     81          6           0        7.375963    0.329556   -8.142149
     82          6           0        5.165951    0.506152   -6.950386
     83          1           0        5.293635    1.591054   -6.836923
     84          1           0        4.751109    0.339836   -7.951453
     85          8           0        7.214173   -0.077656   -9.261653
     86          6           0        4.209922   -0.034970   -5.880190
     87          1           0        4.091141   -1.117762   -6.028117
     88          1           0        4.639410    0.106324   -4.880537
     89          6           0        2.835019    0.646644   -5.919216
     90          1           0        2.379670    0.510765   -6.911291
     91          1           0        2.965292    1.729517   -5.782061
     92          6           0        1.868264    0.128326   -4.835298
     93          1           0        2.310944    0.270930   -3.841398
     94          1           0        0.959355    0.740317   -4.855266
     95          7           0        1.449646   -1.273829   -4.937318
     96          1           0        2.254705   -1.896852   -4.915771
     97          1           0        0.976840   -1.441367   -5.824618
     98          8           0        8.236477    1.317676   -7.795744
     99          1           0        8.679115    1.626447   -8.610590
    100          1           0        6.823523   -2.396780   -3.869034
 ---------------------------------------------------------------------

 SCF Done:  E(RB3LYP) =  -2418.42974694     A.U. after    3 cycles

 Alpha  occ. eigenvalues --  -19.36053 -19.32831 -19.31871 -19.26565 -19.25865
 Alpha  occ. eigenvalues --  -19.20111 -19.19947 -19.19871 -19.19428 -19.18809
 Alpha  occ. eigenvalues --  -19.16749 -14.55632 -14.50972 -14.44394 -14.42915
 Alpha  occ. eigenvalues --  -14.42890 -14.42498 -14.40900 -14.39434 -14.38242
 Alpha  occ. eigenvalues --  -10.49414 -10.45103 -10.42478 -10.40171 -10.38532
 Alpha  occ. eigenvalues --  -10.37004 -10.36851 -10.36447 -10.36208 -10.35318
 Alpha  occ. eigenvalues --  -10.35266 -10.34397 -10.31412 -10.30720 -10.30125
 Alpha  occ. eigenvalues --  -10.30092 -10.30028 -10.29692 -10.28720 -10.28205
 Alpha  occ. eigenvalues --  -10.26876 -10.25325 -10.25269 -10.24099 -10.22941
 Alpha  occ. eigenvalues --  -10.22729 -10.22436 -10.21978  -1.26697  -1.23423
 Alpha  occ. eigenvalues --   -1.18291  -1.17445  -1.14656  -1.12565  -1.12217
 Alpha  occ. eigenvalues --   -1.11477  -1.10751  -1.10097  -1.08432  -1.07366
 Alpha  occ. eigenvalues --   -1.07205  -1.01703  -1.00076  -0.99576  -0.98780
 Alpha  occ. eigenvalues --   -0.95957  -0.95654  -0.95212  -0.94687  -0.90432
 Alpha  occ. eigenvalues --   -0.88002  -0.86595  -0.86142  -0.84828  -0.82951
 Alpha  occ. eigenvalues --   -0.81915  -0.81874  -0.79734  -0.78967  -0.78492
 Alpha  occ. eigenvalues --   -0.77102  -0.76681  -0.75151  -0.73699  -0.72445
 Alpha  occ. eigenvalues --   -0.72234  -0.71485  -0.71021  -0.69240  -0.68328
 Alpha  occ. eigenvalues --   -0.67853  -0.67600  -0.67265  -0.66638  -0.66379
 Alpha  occ. eigenvalues --   -0.65444  -0.64330  -0.64246  -0.63940  -0.63681
 Alpha  occ. eigenvalues --   -0.62366  -0.62071  -0.61552  -0.60318  -0.60052
 Alpha  occ. eigenvalues --   -0.59762  -0.59466  -0.59290  -0.58554  -0.58123
 Alpha  occ. eigenvalues --   -0.57779  -0.57557  -0.57409  -0.57175  -0.56508
 Alpha  occ. eigenvalues --   -0.56365  -0.55821  -0.55743  -0.55297  -0.54738
 Alpha  occ. eigenvalues --   -0.54482  -0.54091  -0.53902  -0.53156  -0.52938
 Alpha  occ. eigenvalues --   -0.52082  -0.51928  -0.51076  -0.50945  -0.50388
 Alpha  occ. eigenvalues --   -0.50169  -0.49812  -0.49745  -0.49535  -0.49048
 Alpha  occ. eigenvalues --   -0.48973  -0.48511  -0.48378  -0.48126  -0.47811
 Alpha  occ. eigenvalues --   -0.47162  -0.46897  -0.46602  -0.46339  -0.46149
 Alpha  occ. eigenvalues --   -0.45543  -0.45288  -0.45251  -0.45093  -0.44950
 Alpha  occ. eigenvalues --   -0.44941  -0.44365  -0.44260  -0.44142  -0.43777
 Alpha  occ. eigenvalues --   -0.43667  -0.43010  -0.42675  -0.42607  -0.42440
 Alpha  occ. eigenvalues --   -0.41788  -0.41750  -0.41640  -0.41526  -0.40741
 Alpha  occ. eigenvalues --   -0.40449  -0.39857  -0.39322  -0.38606  -0.38130
 Alpha  occ. eigenvalues --   -0.37839  -0.37657  -0.35877  -0.35252  -0.34609
 Alpha  occ. eigenvalues --   -0.34415  -0.34072  -0.32927  -0.32503  -0.31992
 Alpha  occ. eigenvalues --   -0.31543  -0.31359  -0.31009  -0.30547  -0.30003
 Alpha virt. eigenvalues --   -0.17698  -0.12298  -0.11777  -0.07952  -0.06964
 Alpha virt. eigenvalues --   -0.06497  -0.06223  -0.05545  -0.04736  -0.04689
 Alpha virt. eigenvalues --   -0.03367  -0.03014  -0.02533  -0.01046  -0.00495

 Mulliken charges:
               1
     1  N   -0.761040
     2  H    0.318589
     3  H    0.349997
     4  C   -0.084119
     5  H    0.174102
     6  C    0.622884
     7  C   -0.347990
     8  H    0.165718
     9  H    0.176588
    10  O   -0.584665
    11  C    0.575869
    12  N   -0.726711
    13  H    0.343736
    14  H    0.353756
    15  O   -0.511502
    16  N   -0.608440
    17  H    0.383304
    18  C   -0.065279
    19  H    0.187958
    20  C    0.640666
    21  C   -0.096799
    22  H    0.140630
    23  O   -0.575451
    24  C   -0.267099
    25  H    0.154423
    26  H    0.143095
    27  C   -0.476122
    28  H    0.180857
    29  H    0.156426
    30  H    0.140643
    31  C   -0.452985
    32  H    0.160008
    33  H    0.148945
    34  H    0.138463
    35  N   -0.613549
    36  H    0.396536
    37  C   -0.057589
    38  H    0.174614
    39  C    0.626464
    40  C   -0.488755
    41  H    0.203610
    42  H    0.153152
    43  H    0.170640
    44  O   -0.544495
    45  N   -0.630888
    46  H    0.371491
    47  C   -0.055278
    48  H    0.178187
    49  C    0.632879
    50  C    0.108125
    51  H    0.144040
    52  O   -0.528912
    53  C   -0.464120
    54  H    0.166009
    55  H    0.170962
    56  H    0.150853
    57  O   -0.659915
    58  H    0.432927
    59  N   -0.639393
    60  H    0.392269
    61  C   -0.038821
    62  H    0.196115
    63  C    0.586913
    64  C   -0.070606
    65  H    0.179622
    66  H    0.213949
    67  O   -0.498225
    68  O   -0.668319
    69  H    0.441988
    70  N   -0.587334
    71  H    0.365841
    72  C   -0.226106
    73  H    0.226789
    74  H    0.231458
    75  C    0.657772
    76  O   -0.582461
    77  N   -0.546876
    78  H    0.392786
    79  C   -0.093371
    80  H    0.225500
    81  C    0.606756
    82  C   -0.273063
    83  H    0.162602
    84  H    0.195413
    85  O   -0.415635
    86  C   -0.291736
    87  H    0.126510
    88  H    0.171852
    89  C   -0.266386
    90  H    0.137337
    91  H    0.143349
    92  C   -0.161363
    93  H    0.175242
    94  H    0.157858
    95  N   -0.707605
    96  H    0.289045
    97  H    0.303018
    98  O   -0.587302
    99  H    0.443260
   100  H    0.495915
 Sum of Mulliken charges =   1.00000

 Dipole moment (field-independent basis, Debye):
    X=             26.9517    Y=             -3.6774    Z=            -20.5142  Tot=             34.0698
 Quadrupole moment (field-independent basis, Debye-Ang):
   XX=            -27.6744   YY=           -253.7535   ZZ=           -178.6240
   XY=            -14.6323   XZ=           -138.6284   YZ=              5.3598

 Normal termination of Gaussian 16 at Fri May 27 02:50:35 2022.
