 Gaussian 16, Revision C.01,
 Gaussian 16:  ES64L-G16RevC.01  3-Jul-2019

 -------------------------------------------------------------------
 # B3LYP/6-31G* guess=read geom=check nosymm integral(ultrafinegrid)
 -------------------------------------------------------------------

 ------------------------------------------------------
 Candidate Structure: Conf:962 Charge calc in gas phase
 ------------------------------------------------------
 Structure from the checkpoint file:  "conf-962.chk"
 Charge =  1 Multiplicity = 1

                          Input orientation:
 ---------------------------------------------------------------------
 Center     Atomic      Atomic             Coordinates (Angstroms)
 Number     Number       Type             X           Y           Z
 ---------------------------------------------------------------------
      1          7           0       -2.445116    3.703084   -0.668187
      2          1           0       -2.387448    3.414914   -1.640792
      3          1           0       -2.770633    4.667026   -0.656873
      4          6           0       -1.149085    3.565682   -0.005617
      5          1           0       -0.508894    2.894114   -0.596295
      6          6           0       -1.342104    2.868379    1.330208
      7          6           0       -0.342821    4.871648    0.120160
      8          1           0       -0.998549    5.703202    0.407493
      9          1           0        0.417786    4.790661    0.906361
     10          8           0       -0.333764    2.612353    2.118424
     11          6           0        0.396359    5.143315   -1.210630
     12          7           0        0.634328    6.430318   -1.499860
     13          1           0        1.175749    6.711681   -2.355532
     14          1           0        0.331601    7.158192   -0.867520
     15          8           0        0.746256    4.190141   -1.913517
     16          7           0       -2.535143    2.481369    1.681153
     17          1           0       -3.238791    2.706672    0.969171
     18          6           0       -2.884077    1.640322    2.847832
     19          1           0       -2.084152    1.795234    3.576020
     20          6           0       -2.839036    0.138588    2.404461
     21          6           0       -4.219270    2.115891    3.467952
     22          1           0       -4.039189    3.167619    3.738412
     23          8           0       -3.828298   -0.578672    2.392374
     24          6           0       -4.548414    1.362162    4.776582
     25          1           0       -4.763952    0.314541    4.544614
     26          1           0       -5.481578    1.792724    5.160129
     27          6           0       -5.409044    2.074471    2.492779
     28          1           0       -5.627648    1.051724    2.179746
     29          1           0       -6.297270    2.482192    2.986062
     30          1           0       -5.248484    2.686776    1.595123
     31          6           0       -3.478587    1.453433    5.871839
     32          1           0       -3.848539    1.009870    6.801716
     33          1           0       -2.559035    0.915370    5.610303
     34          1           0       -3.209434    2.494849    6.089132
     35          7           0       -1.598473   -0.258631    2.009716
     36          1           0       -0.789213    0.314218    2.227041
     37          6           0       -1.264043   -1.583994    1.493088
     38          1           0       -1.410651   -2.335762    2.283869
     39          6           0        0.245881   -1.520689    1.168645
     40          6           0       -2.117660   -1.975151    0.275086
     41          1           0       -1.913855   -3.004574   -0.036081
     42          1           0       -3.172953   -1.913201    0.543081
     43          1           0       -1.920112   -1.310355   -0.571679
     44          8           0        0.943619   -0.585711    1.603797
     45          7           0        0.754737   -2.491103    0.395984
     46          1           0        0.210347   -3.316988    0.170560
     47          6           0        2.151394   -2.535382   -0.045279
     48          1           0        2.806396   -2.473675    0.834343
     49          6           0        2.405019   -1.342362   -0.998765
     50          6           0        2.374056   -3.873033   -0.803181
     51          1           0        1.911997   -3.756393   -1.787414
     52          8           0        1.993404   -1.351876   -2.156558
     53          6           0        3.854041   -4.201183   -0.959686
     54          1           0        4.385567   -3.402677   -1.488707
     55          1           0        3.970470   -5.124625   -1.533318
     56          1           0        4.335817   -4.337378    0.017904
     57          8           0        1.642824   -4.925516   -0.180061
     58          1           0        2.143777   -5.242033    0.590255
     59          7           0        3.061511   -0.275479   -0.470628
     60          1           0        3.368492   -0.329718    0.492351
     61          6           0        2.993321    1.046528   -1.103275
     62          1           0        2.096264    1.037908   -1.733272
     63          6           0        4.190910    1.352566   -2.019233
     64          6           0        2.817975    2.127904   -0.038377
     65          1           0        2.724517    3.097553   -0.524528
     66          1           0        3.673879    2.156119    0.647089
     67          8           0        4.926253    2.320097   -1.809213
     68          8           0        1.596755    1.897213    0.682599
     69          1           0        1.523653    0.955020    0.959154
     70          7           0        4.323268    0.510216   -3.067836
     71          1           0        3.597799   -0.186642   -3.215040
     72          6           0        5.347278    0.704196   -4.094054
     73          1           0        6.270962    1.019876   -3.599823
     74          1           0        5.515475   -0.242290   -4.608027
     75          6           0        4.920916    1.739821   -5.154083
     76          8           0        4.668500    1.418844   -6.305661
     77          7           0        4.833817    3.016990   -4.673842
     78          1           0        4.986030    3.161308   -3.678217
     79          6           0        4.249950    4.087839   -5.471831
     80          1           0        4.299819    3.737156   -6.508524
     81          6           0        5.138530    5.329107   -5.353863
     82          6           0        2.796732    4.394066   -5.081187
     83          1           0        2.266925    3.438144   -5.001647
     84          1           0        2.777009    4.835297   -4.079417
     85          8           0        4.816434    6.379512   -4.829381
     86          6           0        2.068373    5.293183   -6.099895
     87          1           0        2.754666    6.054841   -6.492740
     88          1           0        1.784257    4.675733   -6.960718
     89          6           0        0.817695    6.000005   -5.530458
     90          1           0        0.375062    5.389546   -4.732146
     91          1           0        0.059022    6.086845   -6.318127
     92          6           0        1.078812    7.418685   -5.010117
     93          1           0        1.469976    8.031103   -5.838462
     94          1           0        0.127066    7.870906   -4.704362
     95          7           0        1.980019    7.447774   -3.836582
     96          1           0        2.166095    8.421744   -3.593148
     97          1           0        2.891951    7.059066   -4.091014
     98          8           0        6.353724    5.133723   -5.891705
     99          1           0        6.859481    5.959104   -5.762934
    100          1           0        0.551573    2.588258    1.608261
 ---------------------------------------------------------------------

 SCF Done:  E(RB3LYP) =  -2418.45034493     A.U. after    3 cycles

 Alpha  occ. eigenvalues --  -19.33098 -19.27944 -19.26751 -19.25388 -19.25019
 Alpha  occ. eigenvalues --  -19.23168 -19.22295 -19.21787 -19.21252 -19.20919
 Alpha  occ. eigenvalues --  -19.18023 -14.52211 -14.48526 -14.47787 -14.46276
 Alpha  occ. eigenvalues --  -14.45538 -14.45272 -14.43380 -14.42301 -14.39573
 Alpha  occ. eigenvalues --  -10.45536 -10.41730 -10.40251 -10.39759 -10.39462
 Alpha  occ. eigenvalues --  -10.38668 -10.38312 -10.36409 -10.35382 -10.35321
 Alpha  occ. eigenvalues --  -10.34951 -10.34919 -10.34542 -10.34452 -10.33960
 Alpha  occ. eigenvalues --  -10.31887 -10.30469 -10.30202 -10.29419 -10.28007
 Alpha  occ. eigenvalues --  -10.27798 -10.27648 -10.26262 -10.26134 -10.25507
 Alpha  occ. eigenvalues --  -10.24824 -10.24711 -10.24639  -1.23662  -1.17974
 Alpha  occ. eigenvalues --   -1.16853  -1.15146  -1.14476  -1.14125  -1.12921
 Alpha  occ. eigenvalues --   -1.12785  -1.12275  -1.09857  -1.09699  -1.08866
 Alpha  occ. eigenvalues --   -1.04638  -1.03762  -1.03017  -1.02322  -1.01197
 Alpha  occ. eigenvalues --   -0.98945  -0.98929  -0.95542  -0.91967  -0.90065
 Alpha  occ. eigenvalues --   -0.88455  -0.87551  -0.86713  -0.86308  -0.84184
 Alpha  occ. eigenvalues --   -0.82807  -0.81134  -0.80770  -0.80319  -0.79050
 Alpha  occ. eigenvalues --   -0.77480  -0.76610  -0.76222  -0.75310  -0.72850
 Alpha  occ. eigenvalues --   -0.71828  -0.70948  -0.70484  -0.69920  -0.68216
 Alpha  occ. eigenvalues --   -0.67989  -0.67828  -0.67521  -0.66938  -0.66374
 Alpha  occ. eigenvalues --   -0.66015  -0.65223  -0.64917  -0.63984  -0.63795
 Alpha  occ. eigenvalues --   -0.63245  -0.63016  -0.62068  -0.61586  -0.60797
 Alpha  occ. eigenvalues --   -0.60489  -0.59981  -0.59901  -0.59448  -0.58519
 Alpha  occ. eigenvalues --   -0.58363  -0.57330  -0.56895  -0.56426  -0.56118
 Alpha  occ. eigenvalues --   -0.55792  -0.55416  -0.55262  -0.55168  -0.54589
 Alpha  occ. eigenvalues --   -0.54561  -0.54278  -0.54106  -0.53816  -0.53466
 Alpha  occ. eigenvalues --   -0.53329  -0.52658  -0.52375  -0.51581  -0.51492
 Alpha  occ. eigenvalues --   -0.50916  -0.50566  -0.50448  -0.50307  -0.50113
 Alpha  occ. eigenvalues --   -0.49885  -0.49584  -0.49264  -0.49033  -0.48912
 Alpha  occ. eigenvalues --   -0.48684  -0.48433  -0.48028  -0.47908  -0.47671
 Alpha  occ. eigenvalues --   -0.47515  -0.47356  -0.46975  -0.46898  -0.46854
 Alpha  occ. eigenvalues --   -0.46350  -0.46205  -0.45870  -0.45581  -0.45330
 Alpha  occ. eigenvalues --   -0.44746  -0.44435  -0.43739  -0.43086  -0.42807
 Alpha  occ. eigenvalues --   -0.42615  -0.41963  -0.41567  -0.40960  -0.40669
 Alpha  occ. eigenvalues --   -0.40318  -0.40157  -0.40072  -0.39221  -0.39132
 Alpha  occ. eigenvalues --   -0.38559  -0.38373  -0.38139  -0.37749  -0.36465
 Alpha  occ. eigenvalues --   -0.36026  -0.35753  -0.35497  -0.35422  -0.35252
 Alpha  occ. eigenvalues --   -0.34867  -0.33970  -0.32468  -0.31606  -0.31039
 Alpha virt. eigenvalues --   -0.15257  -0.10949  -0.09857  -0.08492  -0.08046
 Alpha virt. eigenvalues --   -0.07087  -0.06900  -0.04253  -0.04075  -0.03317
 Alpha virt. eigenvalues --   -0.02505  -0.02001  -0.01504  -0.00872  -0.00538

 Mulliken charges:
               1
     1  N   -0.762151
     2  H    0.353740
     3  H    0.334494
     4  C   -0.075343
     5  H    0.236836
     6  C    0.629108
     7  C   -0.407966
     8  H    0.164501
     9  H    0.192282
    10  O   -0.604142
    11  C    0.627251
    12  N   -0.786621
    13  H    0.433205
    14  H    0.330015
    15  O   -0.537058
    16  N   -0.552412
    17  H    0.406530
    18  C   -0.104250
    19  H    0.204277
    20  C    0.641265
    21  C   -0.080699
    22  H    0.136877
    23  O   -0.494529
    24  C   -0.270629
    25  H    0.179605
    26  H    0.153027
    27  C   -0.485985
    28  H    0.200895
    29  H    0.170696
    30  H    0.127658
    31  C   -0.462719
    32  H    0.171309
    33  H    0.138137
    34  H    0.148663
    35  N   -0.650437
    36  H    0.367502
    37  C   -0.022799
    38  H    0.200008
    39  C    0.634344
    40  C   -0.473430
    41  H    0.161020
    42  H    0.218157
    43  H    0.162570
    44  O   -0.587872
    45  N   -0.605311
    46  H    0.373896
    47  C   -0.052405
    48  H    0.157995
    49  C    0.625514
    50  C    0.102397
    51  H    0.195565
    52  O   -0.520745
    53  C   -0.483405
    54  H    0.169547
    55  H    0.194327
    56  H    0.149365
    57  O   -0.624340
    58  H    0.402998
    59  N   -0.600830
    60  H    0.345539
    61  C   -0.104928
    62  H    0.212234
    63  C    0.640569
    64  C   -0.051919
    65  H    0.207748
    66  H    0.169035
    67  O   -0.541974
    68  O   -0.728617
    69  H    0.469921
    70  N   -0.595592
    71  H    0.371585
    72  C   -0.244404
    73  H    0.199377
    74  H    0.193198
    75  C    0.598420
    76  O   -0.493526
    77  N   -0.619090
    78  H    0.368921
    79  C   -0.036835
    80  H    0.208834
    81  C    0.582643
    82  C   -0.267251
    83  H    0.150925
    84  H    0.158783
    85  O   -0.475373
    86  C   -0.283477
    87  H    0.144955
    88  H    0.152573
    89  C   -0.268755
    90  H    0.150174
    91  H    0.144470
    92  C   -0.138903
    93  H    0.142267
    94  H    0.137967
    95  N   -0.794131
    96  H    0.313109
    97  H    0.368222
    98  O   -0.543216
    99  H    0.419763
   100  H    0.487259
 Sum of Mulliken charges =   1.00000

 Dipole moment (field-independent basis, Debye):
    X=              1.4377    Y=             10.8430    Z=              3.3724  Tot=             11.4460
 Quadrupole moment (field-independent basis, Debye-Ang):
   XX=           -236.3287   YY=           -161.5762   ZZ=           -267.9401
   XY=            -20.6727   XZ=            -11.7038   YZ=            -25.4346

 Normal termination of Gaussian 16 at Fri May 27 02:50:41 2022.
