 Gaussian 16, Revision C.01,
 Gaussian 16:  ES64L-G16RevC.01  3-Jul-2019

 -------------------------------------------------------------------
 # B3LYP/6-31G* guess=read geom=check nosymm integral(ultrafinegrid)
 -------------------------------------------------------------------

 ------------------------------------------------------
 Candidate Structure: Conf:807 Charge calc in gas phase
 ------------------------------------------------------
 Structure from the checkpoint file:  "conf-807.chk"
 Charge =  1 Multiplicity = 1

                          Input orientation:
 ---------------------------------------------------------------------
 Center     Atomic      Atomic             Coordinates (Angstroms)
 Number     Number       Type             X           Y           Z
 ---------------------------------------------------------------------
      1          7           0       -7.625089   -0.629327    3.956288
      2          1           0       -7.811230    0.363617    3.801028
      3          1           0       -8.051717   -0.881468    4.843716
      4          6           0       -6.168606   -0.793932    4.015469
      5          1           0       -5.876439   -1.307967    4.939757
      6          6           0       -5.473098    0.581119    3.961471
      7          6           0       -5.657728   -1.665418    2.826255
      8          1           0       -4.581642   -1.842564    2.904135
      9          1           0       -6.173829   -2.629528    2.881944
     10          8           0       -6.085995    1.584013    3.610717
     11          6           0       -5.908395   -1.011287    1.467284
     12          7           0       -7.214928   -0.990943    1.090916
     13          1           0       -7.452412   -0.424195    0.286643
     14          1           0       -7.908652   -1.098053    1.828394
     15          8           0       -4.993514   -0.557093    0.780848
     16          7           0       -4.143087    0.588574    4.281734
     17          1           0       -3.683658   -0.307863    4.391232
     18          6           0       -3.268744    1.665986    3.810549
     19          1           0       -3.944814    2.459305    3.486849
     20          6           0       -2.516694    1.084961    2.603425
     21          6           0       -2.351270    2.227014    4.927907
     22          1           0       -3.049026    2.602303    5.690304
     23          8           0       -1.844466    0.049978    2.714052
     24          6           0       -1.501249    3.418837    4.436115
     25          1           0       -0.802353    3.077527    3.660154
     26          1           0       -0.876011    3.740250    5.279567
     27          6           0       -1.461648    1.163999    5.591122
     28          1           0       -0.734572    0.754298    4.883944
     29          1           0       -0.919849    1.609864    6.433070
     30          1           0       -2.049977    0.330976    5.991188
     31          6           0       -2.295014    4.631258    3.932808
     32          1           0       -1.624240    5.472008    3.725877
     33          1           0       -2.839760    4.423209    3.004312
     34          1           0       -3.027485    4.966219    4.676944
     35          7           0       -2.664907    1.725099    1.419196
     36          1           0       -3.321599    2.493591    1.374550
     37          6           0       -2.330281    1.080146    0.138999
     38          1           0       -2.518544    0.008950    0.276803
     39          6           0       -0.836888    1.262857   -0.196861
     40          6           0       -3.237043    1.614882   -0.963564
     41          1           0       -2.970891    1.162360   -1.921738
     42          1           0       -4.270039    1.349424   -0.727180
     43          1           0       -3.134744    2.699584   -1.075115
     44          8           0       -0.460123    1.862101   -1.217185
     45          7           0        0.023506    0.687719    0.676826
     46          1           0       -0.384135    0.293995    1.532236
     47          6           0        1.459437    0.970159    0.652676
     48          1           0        1.593265    2.021660    0.364563
     49          6           0        2.132212    0.096448   -0.424277
     50          6           0        2.077186    0.754682    2.044129
     51          1           0        2.020571   -0.316823    2.284383
     52          8           0        2.880854   -0.857992   -0.168149
     53          6           0        3.531597    1.220673    2.117158
     54          1           0        4.173353    0.636866    1.452236
     55          1           0        3.911015    1.093236    3.137452
     56          1           0        3.607073    2.283286    1.861184
     57          8           0        1.252993    1.509895    2.931198
     58          1           0        1.543560    1.333614    3.839237
     59          7           0        1.824835    0.455732   -1.699468
     60          1           0        1.069181    1.156456   -1.792379
     61          6           0        2.084602   -0.464251   -2.796995
     62          1           0        1.958673   -1.492959   -2.435167
     63          6           0        3.548858   -0.348806   -3.241783
     64          6           0        1.107068   -0.265971   -3.953432
     65          1           0        1.277264    0.701966   -4.441513
     66          1           0        0.089098   -0.273854   -3.540873
     67          8           0        3.775593    0.264168   -4.350280
     68          8           0        1.338005   -1.357397   -4.831482
     69          1           0        0.829803   -1.220625   -5.645519
     70          7           0        4.440326   -0.882293   -2.431294
     71          1           0        4.011005   -1.182920   -1.534000
     72          6           0        5.903959   -0.746885   -2.457846
     73          1           0        6.191577    0.291461   -2.266279
     74          1           0        6.291580   -1.354441   -1.635878
     75          6           0        6.600536   -1.146535   -3.763045
     76          8           0        7.680985   -0.657282   -4.041570
     77          7           0        5.933701   -2.001402   -4.593117
     78          1           0        5.060156   -2.425363   -4.313598
     79          6           0        6.357602   -2.107917   -5.978636
     80          1           0        7.412060   -2.398023   -6.013735
     81          6           0        6.259229   -0.717689   -6.613463
     82          6           0        5.516774   -3.144051   -6.758086
     83          1           0        5.975519   -3.262087   -7.745555
     84          1           0        5.633302   -4.106872   -6.244618
     85          8           0        5.616226    0.222903   -6.159599
     86          6           0        4.028260   -2.796354   -6.914827
     87          1           0        3.560026   -2.606172   -5.938369
     88          1           0        3.928126   -1.856669   -7.476670
     89          6           0        3.231709   -3.895312   -7.632305
     90          1           0        3.349435   -4.848266   -7.095948
     91          1           0        3.643479   -4.053045   -8.639405
     92          6           0        1.731666   -3.560311   -7.740545
     93          1           0        1.326403   -3.420986   -6.728413
     94          1           0        1.615929   -2.598048   -8.259500
     95          7           0        0.887319   -4.533644   -8.424699
     96          1           0        0.948259   -5.442230   -7.967998
     97          1           0        1.204806   -4.670194   -9.382964
     98          8           0        6.932383   -0.634791   -7.752652
     99          1           0        6.829352    0.268336   -8.113055
    100          1           0        4.659053    0.190195   -4.857084
 ---------------------------------------------------------------------

 SCF Done:  E(RB3LYP) =  -2418.42330449     A.U. after    2 cycles

 Alpha  occ. eigenvalues --  -19.34462 -19.32586 -19.28165 -19.26417 -19.24704
 Alpha  occ. eigenvalues --  -19.23780 -19.23429 -19.21386 -19.19886 -19.18856
 Alpha  occ. eigenvalues --  -19.17005 -14.53391 -14.48752 -14.47479 -14.44435
 Alpha  occ. eigenvalues --  -14.44336 -14.42937 -14.40077 -14.38380 -14.38315
 Alpha  occ. eigenvalues --  -10.47434 -10.45496 -10.41623 -10.40855 -10.37614
 Alpha  occ. eigenvalues --  -10.37234 -10.37198 -10.36587 -10.36025 -10.35553
 Alpha  occ. eigenvalues --  -10.35533 -10.34344 -10.33326 -10.33304 -10.30905
 Alpha  occ. eigenvalues --  -10.30491 -10.29997 -10.29945 -10.28817 -10.28749
 Alpha  occ. eigenvalues --  -10.26972 -10.26258 -10.25786 -10.25607 -10.24599
 Alpha  occ. eigenvalues --  -10.24185 -10.23484 -10.23417  -1.24861  -1.24019
 Alpha  occ. eigenvalues --   -1.16389  -1.16185  -1.14878  -1.13681  -1.12805
 Alpha  occ. eigenvalues --   -1.11599  -1.10912  -1.10534  -1.10462  -1.08306
 Alpha  occ. eigenvalues --   -1.05289  -1.04540  -1.01216  -1.00205  -0.99415
 Alpha  occ. eigenvalues --   -0.96192  -0.95417  -0.94537  -0.92506  -0.90838
 Alpha  occ. eigenvalues --   -0.88030  -0.87480  -0.86641  -0.85499  -0.84217
 Alpha  occ. eigenvalues --   -0.82518  -0.80470  -0.79782  -0.79460  -0.79349
 Alpha  occ. eigenvalues --   -0.77227  -0.75903  -0.75222  -0.73267  -0.72717
 Alpha  occ. eigenvalues --   -0.72058  -0.71447  -0.71129  -0.70892  -0.69074
 Alpha  occ. eigenvalues --   -0.68151  -0.67950  -0.67350  -0.66606  -0.65536
 Alpha  occ. eigenvalues --   -0.65228  -0.64939  -0.63775  -0.63442  -0.63205
 Alpha  occ. eigenvalues --   -0.63041  -0.62842  -0.61909  -0.60848  -0.60592
 Alpha  occ. eigenvalues --   -0.60179  -0.59841  -0.58999  -0.58861  -0.58465
 Alpha  occ. eigenvalues --   -0.58198  -0.57792  -0.57451  -0.57068  -0.56626
 Alpha  occ. eigenvalues --   -0.56159  -0.55459  -0.54652  -0.54360  -0.53997
 Alpha  occ. eigenvalues --   -0.53719  -0.53298  -0.53217  -0.52867  -0.52532
 Alpha  occ. eigenvalues --   -0.52413  -0.52258  -0.51840  -0.51702  -0.51459
 Alpha  occ. eigenvalues --   -0.51160  -0.50646  -0.50548  -0.50074  -0.49716
 Alpha  occ. eigenvalues --   -0.49165  -0.49140  -0.48965  -0.48537  -0.48188
 Alpha  occ. eigenvalues --   -0.47725  -0.47150  -0.47014  -0.46844  -0.46712
 Alpha  occ. eigenvalues --   -0.46314  -0.45888  -0.45804  -0.45574  -0.45423
 Alpha  occ. eigenvalues --   -0.45229  -0.44937  -0.44922  -0.44598  -0.44433
 Alpha  occ. eigenvalues --   -0.44283  -0.44041  -0.43329  -0.43162  -0.43072
 Alpha  occ. eigenvalues --   -0.42800  -0.41990  -0.41896  -0.41740  -0.41705
 Alpha  occ. eigenvalues --   -0.41476  -0.39305  -0.39202  -0.38954  -0.38828
 Alpha  occ. eigenvalues --   -0.38456  -0.38387  -0.38215  -0.37485  -0.36456
 Alpha  occ. eigenvalues --   -0.35846  -0.34572  -0.34188  -0.33276  -0.33082
 Alpha  occ. eigenvalues --   -0.32345  -0.31479  -0.31126  -0.30440  -0.30213
 Alpha virt. eigenvalues --   -0.16560  -0.12385  -0.10635  -0.10325  -0.07319
 Alpha virt. eigenvalues --   -0.06556  -0.05246  -0.04190  -0.03642  -0.03494
 Alpha virt. eigenvalues --   -0.03367  -0.01984  -0.01464  -0.00150  -0.00051

 Mulliken charges:
               1
     1  N   -0.749082
     2  H    0.340364
     3  H    0.319931
     4  C   -0.085498
     5  H    0.156974
     6  C    0.610305
     7  C   -0.348340
     8  H    0.165472
     9  H    0.178506
    10  O   -0.519049
    11  C    0.570574
    12  N   -0.723739
    13  H    0.333880
    14  H    0.367908
    15  O   -0.529529
    16  N   -0.597284
    17  H    0.345063
    18  C   -0.072743
    19  H    0.183223
    20  C    0.658700
    21  C   -0.071425
    22  H    0.145883
    23  O   -0.570170
    24  C   -0.281873
    25  H    0.159809
    26  H    0.141063
    27  C   -0.470090
    28  H    0.158565
    29  H    0.147548
    30  H    0.142815
    31  C   -0.452112
    32  H    0.155921
    33  H    0.128810
    34  H    0.157798
    35  N   -0.598335
    36  H    0.354037
    37  C   -0.053705
    38  H    0.214687
    39  C    0.630855
    40  C   -0.479869
    41  H    0.161242
    42  H    0.195301
    43  H    0.158888
    44  O   -0.563607
    45  N   -0.625347
    46  H    0.408967
    47  C   -0.055058
    48  H    0.190669
    49  C    0.642973
    50  C    0.122255
    51  H    0.153870
    52  O   -0.556001
    53  C   -0.475418
    54  H    0.157317
    55  H    0.159290
    56  H    0.164271
    57  O   -0.625309
    58  H    0.409646
    59  N   -0.634273
    60  H    0.409498
    61  C   -0.080614
    62  H    0.214361
    63  C    0.649143
    64  C   -0.049505
    65  H    0.172769
    66  H    0.175881
    67  O   -0.563657
    68  O   -0.626991
    69  H    0.423213
    70  N   -0.589660
    71  H    0.422657
    72  C   -0.252016
    73  H    0.237485
    74  H    0.232386
    75  C    0.590035
    76  O   -0.474742
    77  N   -0.619982
    78  H    0.349069
    79  C   -0.029038
    80  H    0.223390
    81  C    0.657560
    82  C   -0.307678
    83  H    0.187886
    84  H    0.173675
    85  O   -0.518806
    86  C   -0.298946
    87  H    0.139488
    88  H    0.147865
    89  C   -0.264710
    90  H    0.136622
    91  H    0.142546
    92  C   -0.151436
    93  H    0.143968
    94  H    0.138224
    95  N   -0.700225
    96  H    0.301268
    97  H    0.303060
    98  O   -0.534127
    99  H    0.441711
   100  H    0.492838
 Sum of Mulliken charges =   1.00000

 Dipole moment (field-independent basis, Debye):
    X=             10.7003    Y=             -4.2496    Z=            -10.6842  Tot=             15.7070
 Quadrupole moment (field-independent basis, Debye-Ang):
   XX=           -175.7016   YY=           -259.4402   ZZ=           -131.2165
   XY=            -19.3202   XZ=            -99.5875   YZ=             30.2457

 Normal termination of Gaussian 16 at Fri May 27 02:50:16 2022.
