 Gaussian 16, Revision C.01,
 Gaussian 16:  ES64L-G16RevC.01  3-Jul-2019

 -------------------------------------------------------------------
 # B3LYP/6-31G* guess=read geom=check nosymm integral(ultrafinegrid)
 -------------------------------------------------------------------

 ------------------------------------------------------
 Candidate Structure: Conf:549 Charge calc in gas phase
 ------------------------------------------------------
 Structure from the checkpoint file:  "conf-549.chk"
 Charge =  1 Multiplicity = 1

                          Input orientation:
 ---------------------------------------------------------------------
 Center     Atomic      Atomic             Coordinates (Angstroms)
 Number     Number       Type             X           Y           Z
 ---------------------------------------------------------------------
      1          7           0       -6.894043    1.736689    2.965889
      2          1           0       -6.453246    2.595611    3.299536
      3          1           0       -7.050193    1.162490    3.793492
      4          6           0       -5.952886    1.069496    2.062022
      5          1           0       -6.292280    0.035736    1.922728
      6          6           0       -4.521903    1.079007    2.623573
      7          6           0       -5.925089    1.778877    0.687094
      8          1           0       -5.724421    2.846047    0.856110
      9          1           0       -5.107381    1.389482    0.073929
     10          8           0       -4.100129    2.054118    3.257179
     11          6           0       -7.189634    1.645951   -0.178510
     12          7           0       -8.363266    1.735046    0.495835
     13          1           0       -9.224932    1.679203   -0.028954
     14          1           0       -8.360140    1.865224    1.505015
     15          8           0       -7.098266    1.496698   -1.389650
     16          7           0       -3.748915   -0.002850    2.350654
     17          1           0       -4.123038   -0.742456    1.770037
     18          6           0       -2.352054   -0.117514    2.793311
     19          1           0       -2.299899    0.388058    3.763326
     20          6           0       -1.474028    0.670733    1.794935
     21          6           0       -1.914986   -1.588537    2.942721
     22          1           0       -1.899226   -2.022496    1.933449
     23          8           0       -0.798413    0.131721    0.913714
     24          6           0       -2.904867   -2.417738    3.795737
     25          1           0       -2.534954   -3.450810    3.804295
     26          1           0       -3.881452   -2.460689    3.296119
     27          6           0       -0.481057   -1.670666    3.495685
     28          1           0       -0.385321   -1.148323    4.455345
     29          1           0       -0.205337   -2.717319    3.663787
     30          1           0        0.244056   -1.247880    2.795940
     31          6           0       -3.109020   -1.944621    5.240681
     32          1           0       -3.800080   -2.613827    5.764039
     33          1           0       -2.171265   -1.938528    5.806262
     34          1           0       -3.535623   -0.935604    5.287753
     35          7           0       -1.523727    2.022393    1.945497
     36          1           0       -2.226416    2.376381    2.596985
     37          6           0       -1.078584    2.929356    0.882986
     38          1           0       -1.272173    2.426651   -0.076779
     39          6           0        0.441657    3.192478    0.902277
     40          6           0       -1.865695    4.237942    0.950982
     41          1           0       -1.558748    4.910781    0.148686
     42          1           0       -2.935493    4.032736    0.853944
     43          1           0       -1.691129    4.752242    1.901324
     44          8           0        0.902919    4.324203    0.669006
     45          7           0        1.234136    2.121007    1.126184
     46          1           0        0.822255    1.182144    1.107398
     47          6           0        2.679878    2.235247    1.283209
     48          1           0        2.888915    3.173644    1.811190
     49          6           0        3.338893    2.327615   -0.104419
     50          6           0        3.230567    1.042261    2.095308
     51          1           0        4.328195    1.105843    2.059176
     52          8           0        4.011631    1.411397   -0.603605
     53          6           0        2.775607    1.075549    3.548778
     54          1           0        3.142079    1.976031    4.053001
     55          1           0        3.169880    0.199223    4.069749
     56          1           0        1.684201    1.055110    3.620579
     57          8           0        2.784618   -0.179543    1.524661
     58          1           0        3.233399   -0.273878    0.666988
     59          7           0        3.126480    3.512450   -0.738082
     60          1           0        2.437711    4.117160   -0.256787
     61          6           0        3.267021    3.689866   -2.179135
     62          1           0        2.853695    2.822953   -2.716989
     63          6           0        4.724079    3.778493   -2.655423
     64          6           0        2.456028    4.941739   -2.561767
     65          1           0        2.826921    5.813952   -2.007316
     66          1           0        1.408396    4.776253   -2.291550
     67          8           0        5.079867    4.618634   -3.581899
     68          8           0        2.602455    5.130673   -3.976574
     69          1           0        2.131584    5.935987   -4.249491
     70          7           0        5.627194    2.963169   -2.184176
     71          1           0        5.277321    2.266426   -1.505268
     72          6           0        6.980895    2.853933   -2.751461
     73          1           0        7.460662    3.832809   -2.767658
     74          1           0        7.553509    2.190525   -2.099019
     75          6           0        6.983711    2.329829   -4.209896
     76          8           0        7.793515    2.766853   -5.005564
     77          7           0        6.054125    1.370737   -4.486016
     78          1           0        5.406067    1.091246   -3.761986
     79          6           0        5.720290    0.976850   -5.847989
     80          1           0        6.499912    1.403311   -6.487526
     81          6           0        4.397573    1.588550   -6.317821
     82          6           0        5.693088   -0.554324   -6.039770
     83          1           0        4.966493   -0.992127   -5.338778
     84          1           0        5.309811   -0.748760   -7.046919
     85          8           0        3.938595    1.441984   -7.421653
     86          6           0        7.064813   -1.214798   -5.862492
     87          1           0        7.764259   -0.773265   -6.584463
     88          1           0        7.458460   -0.992239   -4.860287
     89          6           0        7.011150   -2.733677   -6.071831
     90          1           0        6.632891   -2.947403   -7.079325
     91          1           0        6.303544   -3.177867   -5.356673
     92          6           0        8.370849   -3.425456   -5.912904
     93          1           0        8.722953   -3.301650   -4.871400
     94          1           0        8.228305   -4.501172   -6.065586
     95          7           0        9.327944   -2.957155   -6.922081
     96          1           0       10.101173   -3.614278   -6.999648
     97          1           0        9.743029   -2.072727   -6.635967
     98          8           0        3.751020    2.321695   -5.355234
     99          1           0        2.935565    2.642135   -5.787714
    100          1           0        4.261750    5.038510   -3.982214
 ---------------------------------------------------------------------

 SCF Done:  E(RB3LYP) =  -2418.42091535     A.U. after    1 cycles

 Alpha  occ. eigenvalues --  -19.36158 -19.33497 -19.30418 -19.27482 -19.23914
 Alpha  occ. eigenvalues --  -19.23821 -19.23645 -19.22504 -19.21408 -19.21063
 Alpha  occ. eigenvalues --  -19.15596 -14.54395 -14.50343 -14.47210 -14.46807
 Alpha  occ. eigenvalues --  -14.45798 -14.44959 -14.40445 -14.39521 -14.36455
 Alpha  occ. eigenvalues --  -10.48709 -10.43444 -10.41945 -10.41142 -10.40578
 Alpha  occ. eigenvalues --  -10.40438 -10.40030 -10.37983 -10.37615 -10.36713
 Alpha  occ. eigenvalues --  -10.35022 -10.34306 -10.33753 -10.33649 -10.33583
 Alpha  occ. eigenvalues --  -10.31981 -10.31252 -10.27484 -10.27192 -10.27127
 Alpha  occ. eigenvalues --  -10.26537 -10.26494 -10.26309 -10.25498 -10.25463
 Alpha  occ. eigenvalues --  -10.24285 -10.24151 -10.24056  -1.27041  -1.20605
 Alpha  occ. eigenvalues --   -1.19973  -1.18869  -1.15021  -1.14785  -1.13310
 Alpha  occ. eigenvalues --   -1.12435  -1.11835  -1.11633  -1.11523  -1.07558
 Alpha  occ. eigenvalues --   -1.07461  -1.03680  -1.03382  -1.02022  -1.01236
 Alpha  occ. eigenvalues --   -0.97687  -0.94343  -0.93893  -0.93263  -0.89833
 Alpha  occ. eigenvalues --   -0.89088  -0.88273  -0.87422  -0.86152  -0.83518
 Alpha  occ. eigenvalues --   -0.83229  -0.82280  -0.81040  -0.80682  -0.80011
 Alpha  occ. eigenvalues --   -0.78034  -0.76933  -0.75591  -0.73936  -0.72793
 Alpha  occ. eigenvalues --   -0.71778  -0.71616  -0.70683  -0.69847  -0.69533
 Alpha  occ. eigenvalues --   -0.69272  -0.69019  -0.68987  -0.68443  -0.67746
 Alpha  occ. eigenvalues --   -0.67029  -0.65758  -0.65532  -0.63996  -0.63605
 Alpha  occ. eigenvalues --   -0.63551  -0.63207  -0.62900  -0.61998  -0.61577
 Alpha  occ. eigenvalues --   -0.60419  -0.59964  -0.59560  -0.58975  -0.58638
 Alpha  occ. eigenvalues --   -0.58463  -0.58383  -0.58111  -0.57883  -0.57595
 Alpha  occ. eigenvalues --   -0.57283  -0.56353  -0.56011  -0.55668  -0.55370
 Alpha  occ. eigenvalues --   -0.54999  -0.54772  -0.54284  -0.54001  -0.53199
 Alpha  occ. eigenvalues --   -0.52999  -0.52872  -0.52572  -0.51930  -0.51766
 Alpha  occ. eigenvalues --   -0.51691  -0.51384  -0.50998  -0.50791  -0.50622
 Alpha  occ. eigenvalues --   -0.50149  -0.50034  -0.49491  -0.48719  -0.48368
 Alpha  occ. eigenvalues --   -0.48108  -0.47831  -0.47645  -0.47592  -0.47387
 Alpha  occ. eigenvalues --   -0.47204  -0.46947  -0.46076  -0.46045  -0.45974
 Alpha  occ. eigenvalues --   -0.45847  -0.45408  -0.45397  -0.45245  -0.44635
 Alpha  occ. eigenvalues --   -0.44489  -0.44232  -0.44111  -0.43794  -0.43435
 Alpha  occ. eigenvalues --   -0.43135  -0.41895  -0.41513  -0.41339  -0.41155
 Alpha  occ. eigenvalues --   -0.40270  -0.40182  -0.40096  -0.39648  -0.39529
 Alpha  occ. eigenvalues --   -0.39057  -0.38950  -0.38437  -0.37599  -0.37133
 Alpha  occ. eigenvalues --   -0.36233  -0.35959  -0.35803  -0.35036  -0.34611
 Alpha  occ. eigenvalues --   -0.33410  -0.32846  -0.31002  -0.29467  -0.28719
 Alpha virt. eigenvalues --   -0.17964  -0.13487  -0.09694  -0.09233  -0.09095
 Alpha virt. eigenvalues --   -0.08825  -0.08287  -0.06528  -0.04952  -0.02665
 Alpha virt. eigenvalues --   -0.02283  -0.02155  -0.01783  -0.01098  -0.00712

 Mulliken charges:
               1
     1  N   -0.720252
     2  H    0.329617
     3  H    0.321076
     4  C   -0.087457
     5  H    0.156937
     6  C    0.613872
     7  C   -0.356424
     8  H    0.175207
     9  H    0.164988
    10  O   -0.553783
    11  C    0.577270
    12  N   -0.749993
    13  H    0.340974
    14  H    0.376883
    15  O   -0.508392
    16  N   -0.608562
    17  H    0.347468
    18  C   -0.050323
    19  H    0.183965
    20  C    0.619782
    21  C   -0.102185
    22  H    0.150711
    23  O   -0.546210
    24  C   -0.258553
    25  H    0.152200
    26  H    0.122724
    27  C   -0.483859
    28  H    0.144286
    29  H    0.159193
    30  H    0.183235
    31  C   -0.459441
    32  H    0.160562
    33  H    0.157381
    34  H    0.147322
    35  N   -0.615397
    36  H    0.386874
    37  C   -0.056751
    38  H    0.189019
    39  C    0.629628
    40  C   -0.468573
    41  H    0.171225
    42  H    0.173174
    43  H    0.176693
    44  O   -0.567095
    45  N   -0.617421
    46  H    0.408999
    47  C   -0.077296
    48  H    0.193081
    49  C    0.640514
    50  C    0.114190
    51  H    0.140277
    52  O   -0.570325
    53  C   -0.456493
    54  H    0.154313
    55  H    0.183768
    56  H    0.166479
    57  O   -0.621744
    58  H    0.414979
    59  N   -0.645388
    60  H    0.412848
    61  C   -0.063424
    62  H    0.237056
    63  C    0.661312
    64  C   -0.108967
    65  H    0.194337
    66  H    0.211038
    67  O   -0.549176
    68  O   -0.645212
    69  H    0.449641
    70  N   -0.582914
    71  H    0.422889
    72  C   -0.257620
    73  H    0.238861
    74  H    0.221744
    75  C    0.606670
    76  O   -0.467757
    77  N   -0.582799
    78  H    0.328234
    79  C   -0.076609
    80  H    0.231036
    81  C    0.599597
    82  C   -0.275813
    83  H    0.133558
    84  H    0.190685
    85  O   -0.427960
    86  C   -0.267751
    87  H    0.158789
    88  H    0.126038
    89  C   -0.237145
    90  H    0.154690
    91  H    0.123156
    92  C   -0.147217
    93  H    0.111961
    94  H    0.149529
    95  N   -0.715253
    96  H    0.307361
    97  H    0.297432
    98  O   -0.610332
    99  H    0.419052
   100  H    0.481490
 Sum of Mulliken charges =   1.00000

 Dipole moment (field-independent basis, Debye):
    X=             10.9923    Y=             12.9554    Z=             -0.5987  Tot=             17.0009
 Quadrupole moment (field-independent basis, Debye-Ang):
   XX=           -172.4876   YY=           -204.6132   ZZ=           -265.1405
   XY=             31.7528   XZ=            -54.4677   YZ=            -31.7766

 Normal termination of Gaussian 16 at Fri May 27 02:49:55 2022.
