 Gaussian 16, Revision C.01,
 Gaussian 16:  ES64L-G16RevC.01  3-Jul-2019

 -------------------------------------------------------------------
 # B3LYP/6-31G* guess=read geom=check nosymm integral(ultrafinegrid)
 -------------------------------------------------------------------

 ------------------------------------------------------
 Candidate Structure: Conf:239 Charge calc in gas phase
 ------------------------------------------------------
 Structure from the checkpoint file:  "conf-239.chk"
 Charge =  1 Multiplicity = 1

                          Input orientation:
 ---------------------------------------------------------------------
 Center     Atomic      Atomic             Coordinates (Angstroms)
 Number     Number       Type             X           Y           Z
 ---------------------------------------------------------------------
      1          7           0       -3.348655    5.024960    4.671976
      2          1           0       -2.380697    4.999604    4.994949
      3          1           0       -3.889061    4.486841    5.348286
      4          6           0       -3.416281    4.386113    3.353941
      5          1           0       -4.475954    4.269111    3.096485
      6          6           0       -2.723500    3.014640    3.373099
      7          6           0       -2.748648    5.316151    2.328910
      8          1           0       -3.148713    6.324850    2.469792
      9          1           0       -1.673419    5.353982    2.549670
     10          8           0       -1.517743    2.925175    3.633728
     11          6           0       -2.914972    4.825085    0.898260
     12          7           0       -3.078760    5.791911   -0.042108
     13          1           0       -3.186281    5.515891   -1.008561
     14          1           0       -3.150616    6.770812    0.191017
     15          8           0       -2.883066    3.628432    0.608620
     16          7           0       -3.522573    1.925222    3.216299
     17          1           0       -4.421873    2.061243    2.771705
     18          6           0       -2.995040    0.556681    3.249621
     19          1           0       -2.191752    0.566282    3.992876
     20          6           0       -2.367989    0.255608    1.871163
     21          6           0       -4.075510   -0.465844    3.654223
     22          1           0       -4.807344   -0.500267    2.835371
     23          8           0       -2.933424   -0.426824    1.009226
     24          6           0       -4.830352   -0.048803    4.938305
     25          1           0       -5.606555   -0.803805    5.117962
     26          1           0       -5.364844    0.892162    4.758251
     27          6           0       -3.467971   -1.874177    3.778941
     28          1           0       -2.638623   -1.897183    4.496455
     29          1           0       -4.227152   -2.580279    4.132852
     30          1           0       -3.103831   -2.237818    2.814663
     31          6           0       -3.974632    0.102441    6.202607
     32          1           0       -4.605437    0.367539    7.057936
     33          1           0       -3.453041   -0.825883    6.459249
     34          1           0       -3.221192    0.891936    6.096849
     35          7           0       -1.148248    0.821855    1.668969
     36          1           0       -0.865844    1.509979    2.370265
     37          6           0       -0.618834    1.024922    0.314759
     38          1           0       -1.475079    1.214746   -0.349106
     39          6           0        0.082162   -0.226132   -0.243467
     40          6           0        0.313222    2.234679    0.296544
     41          1           0        0.709875    2.393469   -0.707927
     42          1           0       -0.250460    3.117644    0.604579
     43          1           0        1.161417    2.089912    0.973407
     44          8           0        1.150694   -0.154830   -0.874142
     45          7           0       -0.553251   -1.410243   -0.058533
     46          1           0       -1.515528   -1.413941    0.307366
     47          6           0        0.091861   -2.668980   -0.395677
     48          1           0        1.161694   -2.572583   -0.176902
     49          6           0       -0.019270   -2.889588   -1.904261
     50          6           0       -0.501190   -3.830877    0.442461
     51          1           0       -0.135288   -4.774540    0.012956
     52          8           0       -0.829127   -3.810928   -2.334519
     53          6           0       -0.052739   -3.736894    1.896884
     54          1           0        1.035675   -3.823635    1.978803
     55          1           0       -0.512284   -4.549336    2.465150
     56          1           0       -0.364040   -2.787222    2.341441
     57          8           0       -1.919208   -3.785489    0.426518
     58          1           0       -2.232662   -4.116240   -0.429991
     59          7           0        0.708090   -2.127876   -2.689081
     60          1           0        1.167617   -1.342030   -2.174494
     61          6           0        0.858784   -2.229151   -4.159232
     62          1           0        1.229029   -3.241521   -4.376885
     63          6           0        1.931936   -1.212592   -4.639465
     64          6           0       -0.448246   -2.017772   -4.930925
     65          1           0       -0.217320   -1.863601   -5.985209
     66          1           0       -0.982955   -1.139231   -4.564039
     67          8           0        1.726571   -0.524676   -5.630660
     68          8           0       -1.329844   -3.152411   -4.755515
     69          1           0       -1.247265   -3.758208   -5.509195
     70          7           0        3.055584   -1.182568   -3.898857
     71          1           0        3.267922   -1.849406   -3.156631
     72          6           0        4.187281   -0.335431   -4.218401
     73          1           0        4.486691   -0.466772   -5.265702
     74          1           0        3.934693    0.722816   -4.080690
     75          6           0        5.321694   -0.755081   -3.267027
     76          8           0        5.156707   -1.691065   -2.483904
     77          7           0        6.456481   -0.033549   -3.365740
     78          1           0        6.520591    0.720011   -4.038759
     79          6           0        7.637782   -0.292452   -2.537473
     80          1           0        7.298655   -0.836749   -1.654778
     81          6           0        8.225347    1.028182   -2.054577
     82          6           0        8.693613   -1.133641   -3.293595
     83          1           0        8.186338   -2.050950   -3.619154
     84          1           0        8.989309   -0.592634   -4.202572
     85          8           0        8.674598    1.231365   -0.954658
     86          6           0        9.932262   -1.481763   -2.458928
     87          1           0       10.472355   -0.575280   -2.166579
     88          1           0        9.617465   -1.967663   -1.524335
     89          6           0       10.901772   -2.405321   -3.207571
     90          1           0       11.133822   -1.975550   -4.194283
     91          1           0       10.425116   -3.376358   -3.401619
     92          6           0       12.214823   -2.638412   -2.449314
     93          1           0       11.987621   -3.008054   -1.441165
     94          1           0       12.783001   -3.438088   -2.956258
     95          7           0       12.960322   -1.381940   -2.303339
     96          1           0       13.380041   -1.126977   -3.196774
     97          1           0       13.735046   -1.508678   -1.655003
     98          8           0        8.226891    1.959572   -3.046677
     99          1           0        8.648989    2.760528   -2.681188
    100          1           0       -1.042699   -3.721927   -3.331840
 ---------------------------------------------------------------------

 SCF Done:  E(RB3LYP) =  -2418.42749017     A.U. after    1 cycles

 Alpha  occ. eigenvalues --  -19.34839 -19.31962 -19.27422 -19.24758 -19.23374
 Alpha  occ. eigenvalues --  -19.22910 -19.21447 -19.21394 -19.20394 -19.19391
 Alpha  occ. eigenvalues --  -19.19012 -14.52981 -14.46955 -14.46586 -14.45539
 Alpha  occ. eigenvalues --  -14.44046 -14.43577 -14.43480 -14.38817 -14.35833
 Alpha  occ. eigenvalues --  -10.47048 -10.40802 -10.39585 -10.39494 -10.38803
 Alpha  occ. eigenvalues --  -10.38171 -10.37637 -10.36796 -10.36751 -10.36315
 Alpha  occ. eigenvalues --  -10.36121 -10.35211 -10.33116 -10.32203 -10.31548
 Alpha  occ. eigenvalues --  -10.30604 -10.30132 -10.26778 -10.26717 -10.26039
 Alpha  occ. eigenvalues --  -10.25845 -10.25575 -10.25473 -10.24454 -10.23530
 Alpha  occ. eigenvalues --  -10.23447 -10.23339 -10.23305  -1.25242  -1.18148
 Alpha  occ. eigenvalues --   -1.18039  -1.15244  -1.14928  -1.13276  -1.12503
 Alpha  occ. eigenvalues --   -1.12096  -1.11049  -1.10468  -1.10052  -1.09134
 Alpha  occ. eigenvalues --   -1.03521  -1.03141  -1.01940  -1.00646  -0.99856
 Alpha  occ. eigenvalues --   -0.98028  -0.96108  -0.92570  -0.92548  -0.88892
 Alpha  occ. eigenvalues --   -0.87675  -0.87549  -0.85231  -0.84186  -0.83429
 Alpha  occ. eigenvalues --   -0.83325  -0.81322  -0.80203  -0.78718  -0.77245
 Alpha  occ. eigenvalues --   -0.77157  -0.75409  -0.73606  -0.72577  -0.72444
 Alpha  occ. eigenvalues --   -0.71345  -0.70708  -0.70069  -0.70013  -0.68479
 Alpha  occ. eigenvalues --   -0.68235  -0.67815  -0.67082  -0.66923  -0.65991
 Alpha  occ. eigenvalues --   -0.65180  -0.64927  -0.63933  -0.63264  -0.62879
 Alpha  occ. eigenvalues --   -0.62648  -0.62514  -0.61492  -0.60998  -0.60154
 Alpha  occ. eigenvalues --   -0.59591  -0.58857  -0.58747  -0.58320  -0.57490
 Alpha  occ. eigenvalues --   -0.57180  -0.56788  -0.56606  -0.55746  -0.55590
 Alpha  occ. eigenvalues --   -0.55334  -0.55106  -0.54810  -0.54595  -0.54210
 Alpha  occ. eigenvalues --   -0.53646  -0.53390  -0.53251  -0.53016  -0.52096
 Alpha  occ. eigenvalues --   -0.51991  -0.51589  -0.51320  -0.50824  -0.50549
 Alpha  occ. eigenvalues --   -0.50172  -0.50026  -0.49743  -0.49316  -0.49045
 Alpha  occ. eigenvalues --   -0.48947  -0.48680  -0.48195  -0.47977  -0.47806
 Alpha  occ. eigenvalues --   -0.47681  -0.47376  -0.47213  -0.47008  -0.46517
 Alpha  occ. eigenvalues --   -0.46179  -0.46038  -0.45926  -0.45902  -0.45509
 Alpha  occ. eigenvalues --   -0.45371  -0.44899  -0.44484  -0.44320  -0.43471
 Alpha  occ. eigenvalues --   -0.43378  -0.43115  -0.42874  -0.42621  -0.42520
 Alpha  occ. eigenvalues --   -0.42225  -0.41349  -0.40060  -0.39462  -0.39173
 Alpha  occ. eigenvalues --   -0.38709  -0.38585  -0.38488  -0.38422  -0.38218
 Alpha  occ. eigenvalues --   -0.37809  -0.37231  -0.36863  -0.36593  -0.36060
 Alpha  occ. eigenvalues --   -0.35978  -0.35456  -0.34601  -0.34443  -0.33709
 Alpha  occ. eigenvalues --   -0.33135  -0.32985  -0.31838  -0.30432  -0.28011
 Alpha virt. eigenvalues --   -0.16564  -0.09708  -0.09205  -0.07452  -0.07322
 Alpha virt. eigenvalues --   -0.07253  -0.06013  -0.05402  -0.04395  -0.03190
 Alpha virt. eigenvalues --   -0.01401  -0.00869  -0.00232   0.00472   0.00660

 Mulliken charges:
               1
     1  N   -0.700951
     2  H    0.317874
     3  H    0.311123
     4  C   -0.060679
     5  H    0.143789
     6  C    0.646873
     7  C   -0.366873
     8  H    0.171066
     9  H    0.195080
    10  O   -0.567180
    11  C    0.616573
    12  N   -0.745068
    13  H    0.348274
    14  H    0.351602
    15  O   -0.539594
    16  N   -0.603039
    17  H    0.343703
    18  C   -0.063214
    19  H    0.182546
    20  C    0.636673
    21  C   -0.094373
    22  H    0.146581
    23  O   -0.555991
    24  C   -0.253194
    25  H    0.146037
    26  H    0.126331
    27  C   -0.482284
    28  H    0.142799
    29  H    0.156093
    30  H    0.177191
    31  C   -0.460303
    32  H    0.156687
    33  H    0.154555
    34  H    0.148463
    35  N   -0.618370
    36  H    0.389658
    37  C   -0.049564
    38  H    0.205336
    39  C    0.635276
    40  C   -0.479311
    41  H    0.169538
    42  H    0.186037
    43  H    0.167844
    44  O   -0.558868
    45  N   -0.623412
    46  H    0.418131
    47  C   -0.067052
    48  H    0.207757
    49  C    0.635980
    50  C    0.105457
    51  H    0.149260
    52  O   -0.584933
    53  C   -0.458084
    54  H    0.159051
    55  H    0.187426
    56  H    0.176123
    57  O   -0.609712
    58  H    0.413098
    59  N   -0.611541
    60  H    0.437174
    61  C   -0.102495
    62  H    0.201860
    63  C    0.614940
    64  C   -0.062196
    65  H    0.222736
    66  H    0.206695
    67  O   -0.500814
    68  O   -0.645742
    69  H    0.442658
    70  N   -0.620773
    71  H    0.363215
    72  C   -0.200032
    73  H    0.204817
    74  H    0.203081
    75  C    0.616413
    76  O   -0.529620
    77  N   -0.619017
    78  H    0.355310
    79  C   -0.045398
    80  H    0.208501
    81  C    0.591354
    82  C   -0.268245
    83  H    0.154856
    84  H    0.145868
    85  O   -0.438850
    86  C   -0.265915
    87  H    0.184237
    88  H    0.139052
    89  C   -0.253492
    90  H    0.127107
    91  H    0.130875
    92  C   -0.143179
    93  H    0.142757
    94  H    0.123230
    95  N   -0.714666
    96  H    0.295571
    97  H    0.305339
    98  O   -0.584997
    99  H    0.425291
   100  H    0.480195
 Sum of Mulliken charges =   1.00000

 Dipole moment (field-independent basis, Debye):
    X=              3.3713    Y=             -3.8229    Z=            -11.1798  Tot=             12.2869
 Quadrupole moment (field-independent basis, Debye-Ang):
   XX=           -166.5147   YY=           -195.5598   ZZ=           -205.8346
   XY=            -25.0967   XZ=            -56.9378   YZ=             32.6562

 Normal termination of Gaussian 16 at Fri May 27 02:49:55 2022.
