 Gaussian 16, Revision C.01,
 Gaussian 16:  ES64L-G16RevC.01  3-Jul-2019

 -------------------------------------------------------------------
 # B3LYP/6-31G* guess=read geom=check nosymm integral(ultrafinegrid)
 -------------------------------------------------------------------

 ------------------------------------------------------
 Candidate Structure: Conf:121 Charge calc in gas phase
 ------------------------------------------------------
 Structure from the checkpoint file:  "conf-121.chk"
 Charge =  1 Multiplicity = 1

                          Input orientation:
 ---------------------------------------------------------------------
 Center     Atomic      Atomic             Coordinates (Angstroms)
 Number     Number       Type             X           Y           Z
 ---------------------------------------------------------------------
      1          7           0       -2.891986    5.223911    0.054519
      2          1           0       -1.942086    4.887359   -0.113341
      3          1           0       -2.827770    5.864696    0.845056
      4          6           0       -3.714907    4.060954    0.419748
      5          1           0       -4.653899    4.435469    0.845097
      6          6           0       -2.982582    3.167984    1.433078
      7          6           0       -4.026011    3.202712   -0.825877
      8          1           0       -3.071452    2.913147   -1.286206
      9          1           0       -4.525057    2.275920   -0.527401
     10          8           0       -1.799501    2.860248    1.245613
     11          6           0       -4.922232    3.826306   -1.908101
     12          7           0       -4.766597    5.161433   -2.097800
     13          1           0       -5.313783    5.608953   -2.819726
     14          1           0       -4.073746    5.672712   -1.554661
     15          8           0       -5.691977    3.126298   -2.552868
     16          7           0       -3.691059    2.735572    2.505021
     17          1           0       -4.678343    2.949553    2.564773
     18          6           0       -3.115106    1.853261    3.530292
     19          1           0       -2.050303    2.101952    3.569431
     20          6           0       -3.259176    0.393839    3.033810
     21          6           0       -3.764040    2.072867    4.910647
     22          1           0       -4.798801    1.710997    4.838283
     23          8           0       -4.126071   -0.373105    3.437921
     24          6           0       -3.813272    3.564123    5.318170
     25          1           0       -4.329585    3.619102    6.285099
     26          1           0       -4.447004    4.119137    4.614146
     27          6           0       -3.057959    1.212385    5.972745
     28          1           0       -1.988247    1.443842    6.039990
     29          1           0       -3.498862    1.394705    6.958754
     30          1           0       -3.167516    0.148398    5.749946
     31          6           0       -2.459046    4.276377    5.430923
     32          1           0       -2.601454    5.314966    5.748791
     33          1           0       -1.805050    3.797697    6.167493
     34          1           0       -1.924669    4.297910    4.473653
     35          7           0       -2.349709    0.045364    2.075106
     36          1           0       -1.769828    0.771380    1.655826
     37          6           0       -2.463340   -1.233274    1.395607
     38          1           0       -2.775432   -1.967753    2.144907
     39          6           0       -1.095235   -1.595439    0.833139
     40          6           0       -3.504822   -1.217467    0.256278
     41          1           0       -3.579147   -2.197494   -0.227984
     42          1           0       -4.481127   -0.965681    0.677801
     43          1           0       -3.235005   -0.472401   -0.498721
     44          8           0       -0.343164   -0.759507    0.323534
     45          7           0       -0.757171   -2.911709    0.835626
     46          1           0       -1.278370   -3.606562    1.357344
     47          6           0        0.550253   -3.333715    0.367810
     48          1           0        1.310960   -3.168801    1.144119
     49          6           0        0.937543   -2.521575   -0.853139
     50          6           0        0.505759   -4.851271    0.049948
     51          1           0       -0.189605   -4.995508   -0.789387
     52          8           0        0.123630   -2.588377   -1.861360
     53          6           0        1.876646   -5.429525   -0.290770
     54          1           0        2.287325   -4.993680   -1.208603
     55          1           0        1.793854   -6.509124   -0.455492
     56          1           0        2.583129   -5.266138    0.529681
     57          8           0       -0.028670   -5.419866    1.241846
     58          1           0       -0.196568   -6.363386    1.090611
     59          7           0        2.111608   -1.936748   -0.894715
     60          1           0        2.664497   -1.846070   -0.031660
     61          6           0        2.699583   -1.121340   -1.961728
     62          1           0        2.950303   -1.765051   -2.815638
     63          6           0        4.018869   -0.578919   -1.335384
     64          6           0        1.767413    0.010982   -2.444451
     65          1           0        2.330510    0.764675   -2.998944
     66          1           0        1.273113    0.479780   -1.590859
     67          8           0        4.249311   -0.771790   -0.144824
     68          8           0        0.718373   -0.517118   -3.281146
     69          1           0        1.028788   -0.566724   -4.200122
     70          7           0        4.823138    0.070502   -2.193045
     71          1           0        4.505712    0.249125   -3.145644
     72          6           0        5.989845    0.851456   -1.754123
     73          1           0        5.872211    1.109726   -0.701791
     74          1           0        6.913044    0.273021   -1.881610
     75          6           0        5.955312    2.117714   -2.616688
     76          8           0        5.392103    3.137547   -2.259725
     77          7           0        6.469478    1.944270   -3.879751
     78          1           0        6.843027    1.034979   -4.123500
     79          6           0        5.965889    2.749046   -4.976609
     80          1           0        5.933650    3.790926   -4.643748
     81          6           0        4.517510    2.337661   -5.280066
     82          6           0        6.857380    2.633039   -6.230165
     83          1           0        6.900208    1.578766   -6.542865
     84          1           0        6.369105    3.177712   -7.045190
     85          8           0        3.942482    1.360799   -4.818831
     86          6           0        8.277594    3.171843   -6.014008
     87          1           0        8.219565    4.236484   -5.743987
     88          1           0        8.740967    2.654427   -5.165629
     89          6           0        9.162852    2.992714   -7.253460
     90          1           0        8.710563    3.511269   -8.110608
     91          1           0        9.214677    1.926015   -7.508359
     92          6           0       10.594593    3.508914   -7.061189
     93          1           0       11.154015    3.319137   -7.983862
     94          1           0       10.573219    4.605205   -6.928209
     95          7           0       11.275078    2.797927   -5.968480
     96          1           0       11.059935    3.239172   -5.076383
     97          1           0       12.283405    2.882954   -6.078207
     98          8           0        3.935916    3.178858   -6.139402
     99          1           0        3.024010    2.871295   -6.303526
    100          1           0        0.287861   -1.866261   -2.555014
 ---------------------------------------------------------------------

 SCF Done:  E(RB3LYP) =  -2418.41762805     A.U. after    3 cycles

 Alpha  occ. eigenvalues --  -19.33586 -19.31755 -19.31232 -19.26735 -19.26437
 Alpha  occ. eigenvalues --  -19.25014 -19.23324 -19.21822 -19.19508 -19.18387
 Alpha  occ. eigenvalues --  -19.15049 -14.52833 -14.48698 -14.47725 -14.46380
 Alpha  occ. eigenvalues --  -14.44425 -14.42639 -14.40061 -14.39063 -14.37104
 Alpha  occ. eigenvalues --  -10.47396 -10.43875 -10.42244 -10.39820 -10.39163
 Alpha  occ. eigenvalues --  -10.38704 -10.38030 -10.37393 -10.36960 -10.36256
 Alpha  occ. eigenvalues --  -10.35415 -10.34096 -10.33630 -10.33228 -10.32149
 Alpha  occ. eigenvalues --  -10.30389 -10.30000 -10.29323 -10.28547 -10.26729
 Alpha  occ. eigenvalues --  -10.26142 -10.26042 -10.25673 -10.25504 -10.24586
 Alpha  occ. eigenvalues --  -10.24211 -10.23088 -10.22846  -1.24599  -1.22442
 Alpha  occ. eigenvalues --   -1.18113  -1.17116  -1.15374  -1.14261  -1.14113
 Alpha  occ. eigenvalues --   -1.13141  -1.11395  -1.10149  -1.09945  -1.06932
 Alpha  occ. eigenvalues --   -1.05134  -1.04225  -1.03020  -1.00378  -0.99388
 Alpha  occ. eigenvalues --   -0.97093  -0.93833  -0.93809  -0.93364  -0.90194
 Alpha  occ. eigenvalues --   -0.89293  -0.87417  -0.85597  -0.84985  -0.83759
 Alpha  occ. eigenvalues --   -0.82816  -0.82652  -0.80531  -0.79712  -0.77637
 Alpha  occ. eigenvalues --   -0.77349  -0.76738  -0.74174  -0.73910  -0.73129
 Alpha  occ. eigenvalues --   -0.72594  -0.71753  -0.71016  -0.70454  -0.69856
 Alpha  occ. eigenvalues --   -0.69111  -0.69073  -0.67832  -0.66215  -0.65307
 Alpha  occ. eigenvalues --   -0.65116  -0.64669  -0.64562  -0.64221  -0.62944
 Alpha  occ. eigenvalues --   -0.62798  -0.62114  -0.61623  -0.61433  -0.60415
 Alpha  occ. eigenvalues --   -0.60140  -0.59456  -0.59315  -0.58457  -0.58042
 Alpha  occ. eigenvalues --   -0.57773  -0.57571  -0.57275  -0.56474  -0.56427
 Alpha  occ. eigenvalues --   -0.56120  -0.55729  -0.55342  -0.55289  -0.55012
 Alpha  occ. eigenvalues --   -0.54758  -0.54013  -0.53555  -0.53372  -0.52602
 Alpha  occ. eigenvalues --   -0.52422  -0.52380  -0.51899  -0.51725  -0.51399
 Alpha  occ. eigenvalues --   -0.51254  -0.50869  -0.50824  -0.50378  -0.49962
 Alpha  occ. eigenvalues --   -0.49708  -0.49530  -0.49174  -0.48695  -0.48541
 Alpha  occ. eigenvalues --   -0.48474  -0.48340  -0.47889  -0.47068  -0.46482
 Alpha  occ. eigenvalues --   -0.46435  -0.46378  -0.45928  -0.45573  -0.45425
 Alpha  occ. eigenvalues --   -0.45336  -0.45200  -0.44884  -0.44241  -0.44065
 Alpha  occ. eigenvalues --   -0.44012  -0.43824  -0.43551  -0.43144  -0.42879
 Alpha  occ. eigenvalues --   -0.42574  -0.42100  -0.41378  -0.40820  -0.40529
 Alpha  occ. eigenvalues --   -0.40323  -0.39285  -0.39245  -0.39024  -0.38864
 Alpha  occ. eigenvalues --   -0.38545  -0.38217  -0.38181  -0.37659  -0.36776
 Alpha  occ. eigenvalues --   -0.36369  -0.35309  -0.34714  -0.34496  -0.32487
 Alpha  occ. eigenvalues --   -0.31977  -0.30960  -0.30553  -0.29449  -0.28930
 Alpha virt. eigenvalues --   -0.15669  -0.11417  -0.10699  -0.09138  -0.08235
 Alpha virt. eigenvalues --   -0.07071  -0.06402  -0.04213  -0.03882  -0.03126
 Alpha virt. eigenvalues --   -0.02899  -0.02491  -0.01645  -0.01257  -0.01078

 Mulliken charges:
               1
     1  N   -0.725000
     2  H    0.325249
     3  H    0.319369
     4  C   -0.083412
     5  H    0.151844
     6  C    0.619585
     7  C   -0.355971
     8  H    0.171790
     9  H    0.171666
    10  O   -0.558692
    11  C    0.576241
    12  N   -0.754168
    13  H    0.337086
    14  H    0.375936
    15  O   -0.511337
    16  N   -0.610284
    17  H    0.343704
    18  C   -0.051006
    19  H    0.180466
    20  C    0.626550
    21  C   -0.099463
    22  H    0.151100
    23  O   -0.525074
    24  C   -0.255602
    25  H    0.149351
    26  H    0.119230
    27  C   -0.470724
    28  H    0.143113
    29  H    0.156165
    30  H    0.174917
    31  C   -0.458898
    32  H    0.154550
    33  H    0.156377
    34  H    0.146028
    35  N   -0.630341
    36  H    0.377994
    37  C   -0.042632
    38  H    0.182175
    39  C    0.654770
    40  C   -0.453255
    41  H    0.153001
    42  H    0.198372
    43  H    0.169034
    44  O   -0.551339
    45  N   -0.628676
    46  H    0.372282
    47  C    0.003858
    48  H    0.192585
    49  C    0.659742
    50  C    0.113202
    51  H    0.165604
    52  O   -0.577638
    53  C   -0.476212
    54  H    0.152139
    55  H    0.177377
    56  H    0.179985
    57  O   -0.631139
    58  H    0.420656
    59  N   -0.592683
    60  H    0.403627
    61  C   -0.095033
    62  H    0.197199
    63  C    0.626958
    64  C   -0.093829
    65  H    0.210631
    66  H    0.240979
    67  O   -0.509235
    68  O   -0.630747
    69  H    0.435143
    70  N   -0.637044
    71  H    0.380503
    72  C   -0.208559
    73  H    0.227891
    74  H    0.184423
    75  C    0.557381
    76  O   -0.471984
    77  N   -0.574681
    78  H    0.335875
    79  C   -0.051426
    80  H    0.221250
    81  C    0.613199
    82  C   -0.297719
    83  H    0.141696
    84  H    0.180296
    85  O   -0.514053
    86  C   -0.266717
    87  H    0.142883
    88  H    0.153642
    89  C   -0.235476
    90  H    0.132922
    91  H    0.142206
    92  C   -0.152861
    93  H    0.150813
    94  H    0.125532
    95  N   -0.721538
    96  H    0.297649
    97  H    0.308964
    98  O   -0.534115
    99  H    0.425271
   100  H    0.478532
 Sum of Mulliken charges =   1.00000

 Dipole moment (field-independent basis, Debye):
    X=             13.6301    Y=             -3.0390    Z=            -10.9979  Tot=             17.7755
 Quadrupole moment (field-independent basis, Debye-Ang):
   XX=           -198.7875   YY=           -192.9392   ZZ=           -202.6366
   XY=              3.4533   XZ=            -91.5358   YZ=             -6.2460

 Normal termination of Gaussian 16 at Fri May 27 02:50:20 2022.
