 Gaussian 16, Revision C.01,
 Gaussian 16:  ES64L-G16RevC.01  3-Jul-2019

 -------------------------------------------------------------------
 # B3LYP/6-31G* guess=read geom=check nosymm integral(ultrafinegrid)
 -------------------------------------------------------------------

 ------------------------------------------------------
 Candidate Structure: Conf:234 Charge calc in gas phase
 ------------------------------------------------------
 Structure from the checkpoint file:  "conf-234.chk"
 Charge =  1 Multiplicity = 1

                          Input orientation:
 ---------------------------------------------------------------------
 Center     Atomic      Atomic             Coordinates (Angstroms)
 Number     Number       Type             X           Y           Z
 ---------------------------------------------------------------------
      1          7           0       -1.978169    3.389899    5.106705
      2          1           0       -1.152217    3.060371    5.604155
      3          1           0       -2.163153    4.344828    5.416499
      4          6           0       -3.117622    2.570320    5.547837
      5          1           0       -3.225892    2.533477    6.645779
      6          6           0       -2.755685    1.138604    5.133000
      7          6           0       -4.423471    3.129261    4.964202
      8          1           0       -4.296601    3.291480    3.884352
      9          1           0       -5.246202    2.418155    5.110865
     10          8           0       -1.735772    0.622596    5.603114
     11          6           0       -4.801210    4.479559    5.586596
     12          7           0       -6.132207    4.761957    5.594209
     13          1           0       -6.430201    5.649333    5.976343
     14          1           0       -6.836585    4.108734    5.287789
     15          8           0       -3.966343    5.263438    6.023127
     16          7           0       -3.533139    0.488315    4.226195
     17          1           0       -4.263669    0.995325    3.745657
     18          6           0       -3.171861   -0.837540    3.702389
     19          1           0       -2.664301   -1.352395    4.525268
     20          6           0       -2.147948   -0.608920    2.566081
     21          6           0       -4.402488   -1.655338    3.260567
     22          1           0       -4.850209   -1.139759    2.398173
     23          8           0       -2.427361   -0.719341    1.366826
     24          6           0       -5.450486   -1.737464    4.392177
     25          1           0       -5.643128   -0.732273    4.786200
     26          1           0       -5.025996   -2.309622    5.229663
     27          6           0       -3.961627   -3.054815    2.797238
     28          1           0       -3.485908   -3.604334    3.620597
     29          1           0       -4.823067   -3.641618    2.466418
     30          1           0       -3.263880   -3.001994    1.958228
     31          6           0       -6.786816   -2.358967    3.968893
     32          1           0       -7.506308   -2.319562    4.793742
     33          1           0       -7.224720   -1.819499    3.119753
     34          1           0       -6.683516   -3.409087    3.677950
     35          7           0       -0.917104   -0.221320    2.991153
     36          1           0       -0.819119   -0.036603    3.991805
     37          6           0        0.025407    0.444594    2.085965
     38          1           0       -0.574430    0.951378    1.316133
     39          6           0        0.902400   -0.568428    1.327788
     40          6           0        0.862065    1.468002    2.849763
     41          1           0        1.557203    1.970737    2.173943
     42          1           0        0.200941    2.211374    3.305917
     43          1           0        1.454688    0.985003    3.633101
     44          8           0        2.128245   -0.470069    1.242761
     45          7           0        0.223645   -1.577412    0.707868
     46          1           0       -0.801848   -1.582339    0.697037
     47          6           0        0.954067   -2.669213    0.093699
     48          1           0        1.868502   -2.836208    0.672580
     49          6           0        1.394556   -2.222607   -1.296444
     50          6           0        0.102486   -3.966765    0.081174
     51          1           0        0.593928   -4.688470   -0.587655
     52          8           0        0.681738   -2.627219   -2.311977
     53          6           0        0.009361   -4.564672    1.480776
     54          1           0        0.997999   -4.854925    1.850871
     55          1           0       -0.627283   -5.452311    1.448633
     56          1           0       -0.431727   -3.849381    2.181122
     57          8           0       -1.220933   -3.696198   -0.355912
     58          1           0       -1.209056   -3.569005   -1.317460
     59          7           0        2.443465   -1.447299   -1.416838
     60          1           0        2.863789   -1.077190   -0.539939
     61          6           0        3.132448   -1.033119   -2.648107
     62          1           0        3.379269   -1.930679   -3.230168
     63          6           0        4.447878   -0.352777   -2.165977
     64          6           0        2.302485   -0.107002   -3.542019
     65          1           0        2.940817    0.328516   -4.316899
     66          1           0        1.858422    0.700076   -2.947629
     67          8           0        4.604388   -0.107235   -0.976021
     68          8           0        1.290126   -0.923086   -4.159983
     69          1           0        0.639043   -0.370210   -4.622569
     70          7           0        5.330535   -0.074903   -3.136402
     71          1           0        5.219207   -0.356778   -4.110756
     72          6           0        6.619658    0.538239   -2.878848
     73          1           0        6.495635    1.535243   -2.439765
     74          1           0        7.201707   -0.061359   -2.167777
     75          6           0        7.334143    0.620869   -4.239032
     76          8           0        6.790774    0.171868   -5.249534
     77          7           0        8.550109    1.199981   -4.226488
     78          1           0        8.957422    1.508461   -3.353340
     79          6           0        9.369534    1.306940   -5.435680
     80          1           0        9.189499    0.405549   -6.030158
     81          6           0       10.856853    1.321129   -5.103510
     82          6           0        9.005226    2.529705   -6.311602
     83          1           0        9.607823    2.462361   -7.224447
     84          1           0        7.956812    2.410054   -6.607773
     85          8           0       11.725174    1.266442   -5.938538
     86          6           0        9.217237    3.890964   -5.638651
     87          1           0        8.674499    3.920102   -4.682832
     88          1           0       10.281664    4.023186   -5.396947
     89          6           0        8.745950    5.055259   -6.518865
     90          1           0        7.676805    4.951346   -6.743935
     91          1           0        9.270905    5.016018   -7.484952
     92          6           0        8.972202    6.427608   -5.879444
     93          1           0        8.447772    6.467116   -4.915244
     94          1           0       10.048654    6.548631   -5.654431
     95          7           0        8.413205    7.483455   -6.729192
     96          1           0        8.951682    7.548528   -7.592658
     97          1           0        8.514066    8.387212   -6.270077
     98          8           0       11.106904    1.439625   -3.773851
     99          1           0       12.077808    1.465538   -3.671388
    100          1           0        0.858464   -2.085055   -3.148992
 ---------------------------------------------------------------------

 SCF Done:  E(RB3LYP) =  -2418.42397478     A.U. after    2 cycles

 Alpha  occ. eigenvalues --  -19.34973 -19.32560 -19.28339 -19.24756 -19.24070
 Alpha  occ. eigenvalues --  -19.22292 -19.22055 -19.21883 -19.20589 -19.19433
 Alpha  occ. eigenvalues --  -19.18217 -14.53069 -14.47857 -14.46099 -14.45947
 Alpha  occ. eigenvalues --  -14.44728 -14.43817 -14.42666 -14.36966 -14.36000
 Alpha  occ. eigenvalues --  -10.47040 -10.41681 -10.40340 -10.39343 -10.39325
 Alpha  occ. eigenvalues --  -10.38926 -10.38734 -10.37081 -10.36529 -10.36217
 Alpha  occ. eigenvalues --  -10.35963 -10.35185 -10.33812 -10.32351 -10.32194
 Alpha  occ. eigenvalues --  -10.31096 -10.29563 -10.27495 -10.26762 -10.26493
 Alpha  occ. eigenvalues --  -10.26094 -10.25923 -10.25432 -10.25094 -10.24786
 Alpha  occ. eigenvalues --  -10.23742 -10.23739 -10.23521  -1.25376  -1.18920
 Alpha  occ. eigenvalues --   -1.18888  -1.16462  -1.14204  -1.13930  -1.12456
 Alpha  occ. eigenvalues --   -1.12305  -1.11200  -1.10095  -1.09960  -1.09857
 Alpha  occ. eigenvalues --   -1.04354  -1.02909  -1.02454  -1.00980  -1.00146
 Alpha  occ. eigenvalues --   -0.97302  -0.94777  -0.93284  -0.92821  -0.89097
 Alpha  occ. eigenvalues --   -0.88136  -0.88020  -0.85244  -0.84594  -0.83894
 Alpha  occ. eigenvalues --   -0.83151  -0.81978  -0.80501  -0.79640  -0.77145
 Alpha  occ. eigenvalues --   -0.77013  -0.76059  -0.73676  -0.73169  -0.72684
 Alpha  occ. eigenvalues --   -0.71790  -0.71197  -0.70796  -0.70286  -0.68837
 Alpha  occ. eigenvalues --   -0.67978  -0.67699  -0.67067  -0.66688  -0.66176
 Alpha  occ. eigenvalues --   -0.66021  -0.65400  -0.64157  -0.63964  -0.63192
 Alpha  occ. eigenvalues --   -0.62965  -0.62699  -0.61351  -0.60693  -0.60471
 Alpha  occ. eigenvalues --   -0.59892  -0.59387  -0.58888  -0.58443  -0.58000
 Alpha  occ. eigenvalues --   -0.57535  -0.56688  -0.56556  -0.56269  -0.56080
 Alpha  occ. eigenvalues --   -0.55823  -0.55492  -0.55299  -0.54978  -0.54956
 Alpha  occ. eigenvalues --   -0.54284  -0.53894  -0.53266  -0.52913  -0.52459
 Alpha  occ. eigenvalues --   -0.52167  -0.51520  -0.51418  -0.51195  -0.50943
 Alpha  occ. eigenvalues --   -0.50560  -0.50179  -0.49894  -0.49843  -0.49376
 Alpha  occ. eigenvalues --   -0.49290  -0.48956  -0.48366  -0.48252  -0.47920
 Alpha  occ. eigenvalues --   -0.47784  -0.47658  -0.47286  -0.46726  -0.46546
 Alpha  occ. eigenvalues --   -0.46314  -0.46220  -0.45890  -0.45705  -0.45425
 Alpha  occ. eigenvalues --   -0.45154  -0.44883  -0.44422  -0.44084  -0.44038
 Alpha  occ. eigenvalues --   -0.43794  -0.43491  -0.43280  -0.42811  -0.42765
 Alpha  occ. eigenvalues --   -0.42332  -0.41789  -0.40491  -0.40027  -0.39913
 Alpha  occ. eigenvalues --   -0.39277  -0.39186  -0.38939  -0.38909  -0.38659
 Alpha  occ. eigenvalues --   -0.38266  -0.37584  -0.37105  -0.36444  -0.36117
 Alpha  occ. eigenvalues --   -0.36005  -0.35946  -0.34236  -0.33862  -0.33593
 Alpha  occ. eigenvalues --   -0.33299  -0.32485  -0.32230  -0.29674  -0.28272
 Alpha virt. eigenvalues --   -0.16483  -0.10263  -0.08393  -0.07726  -0.07494
 Alpha virt. eigenvalues --   -0.07352  -0.06836  -0.05136  -0.03998  -0.03037
 Alpha virt. eigenvalues --   -0.02546  -0.01658  -0.01020  -0.00630   0.00695

 Mulliken charges:
               1
     1  N   -0.750829
     2  H    0.315809
     3  H    0.346457
     4  C   -0.046892
     5  H    0.162732
     6  C    0.638317
     7  C   -0.404303
     8  H    0.185646
     9  H    0.148082
    10  O   -0.550263
    11  C    0.622816
    12  N   -0.747429
    13  H    0.356666
    14  H    0.342858
    15  O   -0.502700
    16  N   -0.617366
    17  H    0.343972
    18  C   -0.053485
    19  H    0.186031
    20  C    0.619263
    21  C   -0.090481
    22  H    0.138584
    23  O   -0.555001
    24  C   -0.254897
    25  H    0.127936
    26  H    0.141730
    27  C   -0.481265
    28  H    0.141013
    29  H    0.161332
    30  H    0.177647
    31  C   -0.450993
    32  H    0.155440
    33  H    0.143288
    34  H    0.156924
    35  N   -0.612636
    36  H    0.390121
    37  C   -0.060387
    38  H    0.184224
    39  C    0.626374
    40  C   -0.478611
    41  H    0.173368
    42  H    0.188095
    43  H    0.173454
    44  O   -0.529861
    45  N   -0.627191
    46  H    0.405173
    47  C   -0.053428
    48  H    0.205381
    49  C    0.631848
    50  C    0.105233
    51  H    0.146793
    52  O   -0.587861
    53  C   -0.456775
    54  H    0.159462
    55  H    0.186767
    56  H    0.174537
    57  O   -0.612121
    58  H    0.412684
    59  N   -0.597163
    60  H    0.451501
    61  C   -0.109432
    62  H    0.216833
    63  C    0.628177
    64  C   -0.042914
    65  H    0.196607
    66  H    0.191256
    67  O   -0.496231
    68  O   -0.649788
    69  H    0.445841
    70  N   -0.631981
    71  H    0.368230
    72  C   -0.202540
    73  H    0.205178
    74  H    0.208137
    75  C    0.616411
    76  O   -0.529973
    77  N   -0.616143
    78  H    0.361776
    79  C   -0.056680
    80  H    0.211713
    81  C    0.596393
    82  C   -0.267827
    83  H    0.176432
    84  H    0.164875
    85  O   -0.441319
    86  C   -0.275005
    87  H    0.124508
    88  H    0.144911
    89  C   -0.249685
    90  H    0.148650
    91  H    0.136790
    92  C   -0.133576
    93  H    0.133817
    94  H    0.117232
    95  N   -0.717045
    96  H    0.297356
    97  H    0.301688
    98  O   -0.588728
    99  H    0.428457
   100  H    0.481968
 Sum of Mulliken charges =   1.00000

 Dipole moment (field-independent basis, Debye):
    X=              6.3991    Y=             -0.4433    Z=             -6.6151  Tot=              9.2143
 Quadrupole moment (field-independent basis, Debye-Ang):
   XX=           -107.3576   YY=           -243.2092   ZZ=           -236.9496
   XY=             11.8826   XZ=            -80.2263   YZ=             -6.8973

 Normal termination of Gaussian 16 at Fri May 27 02:50:07 2022.
