 Gaussian 16, Revision C.01,
 Gaussian 16:  ES64L-G16RevC.01  3-Jul-2019

 -------------------------------------------------------------------
 # B3LYP/6-31G* guess=read geom=check nosymm integral(ultrafinegrid)
 -------------------------------------------------------------------

 ------------------------------------------------------
 Candidate Structure: Conf:123 Charge calc in gas phase
 ------------------------------------------------------
 Structure from the checkpoint file:  "conf-123.chk"
 Charge =  1 Multiplicity = 1

                          Input orientation:
 ---------------------------------------------------------------------
 Center     Atomic      Atomic             Coordinates (Angstroms)
 Number     Number       Type             X           Y           Z
 ---------------------------------------------------------------------
      1          7           0       -0.384492    1.931002    4.063731
      2          1           0        0.570963    2.253844    3.918405
      3          1           0       -0.706495    2.324100    4.949079
      4          6           0       -0.334451    0.471859    4.244840
      5          1           0        0.374084    0.156772    5.030943
      6          6           0        0.251068   -0.065121    2.933053
      7          6           0       -1.723862   -0.057151    4.627134
      8          1           0       -2.469012    0.332687    3.919369
      9          1           0       -1.747201   -1.153704    4.582233
     10          8           0        1.365642    0.340198    2.570201
     11          6           0       -2.141826    0.391963    6.034763
     12          7           0       -3.094516   -0.376768    6.626686
     13          1           0       -3.435910   -0.099228    7.537056
     14          1           0       -3.488865   -1.198343    6.194725
     15          8           0       -1.665793    1.379752    6.581733
     16          7           0       -0.470776   -0.930691    2.178740
     17          1           0       -1.429408   -1.126123    2.434236
     18          6           0       -0.021546   -1.372779    0.847295
     19          1           0        1.072242   -1.401992    0.889550
     20          6           0       -0.470866   -0.271560   -0.142762
     21          6           0       -0.549897   -2.776094    0.486579
     22          1           0       -1.645005   -2.713353    0.402000
     23          8           0       -1.436949   -0.394688   -0.901064
     24          6           0       -0.187530   -3.799995    1.584757
     25          1           0       -0.508483   -3.413111    2.559875
     26          1           0        0.906702   -3.881004    1.635468
     27          6           0        0.008227   -3.206635   -0.881220
     28          1           0        1.101900   -3.287934   -0.843214
     29          1           0       -0.388737   -4.182381   -1.173510
     30          1           0       -0.272744   -2.492365   -1.661001
     31          6           0       -0.809518   -5.186956    1.383534
     32          1           0       -0.585235   -5.834372    2.237922
     33          1           0       -1.901200   -5.125586    1.292057
     34          1           0       -0.427530   -5.688868    0.488919
     35          7           0        0.242525    0.883007   -0.047283
     36          1           0        0.943191    0.930063    0.694465
     37          6           0       -0.225352    2.143531   -0.632601
     38          1           0       -1.307258    2.218786   -0.468380
     39          6           0        0.034455    2.070916   -2.149174
     40          6           0        0.484964    3.319224    0.033720
     41          1           0        0.110249    4.268714   -0.360871
     42          1           0        0.295422    3.296813    1.111402
     43          1           0        1.563202    3.272707   -0.145325
     44          8           0        1.171520    2.235678   -2.619174
     45          7           0       -1.040678    1.781526   -2.923996
     46          1           0       -1.905679    1.568906   -2.423452
     47          6           0       -0.934330    0.899318   -4.091900
     48          1           0       -0.225838    0.095435   -3.854621
     49          6           0       -0.366420    1.539824   -5.350972
     50          6           0       -2.354987    0.261461   -4.355759
     51          1           0       -2.923230    0.945796   -4.995229
     52          8           0       -0.041249    0.868318   -6.316144
     53          6           0       -2.237203   -1.100898   -5.029792
     54          1           0       -1.664648   -1.032869   -5.958599
     55          1           0       -3.235547   -1.489508   -5.248926
     56          1           0       -1.729794   -1.812724   -4.365880
     57          8           0       -3.100239    0.210080   -3.149380
     58          1           0       -2.674870   -0.409662   -2.524712
     59          7           0       -0.205033    2.915279   -5.336556
     60          1           0       -0.457431    3.419469   -4.495517
     61          6           0        0.576548    3.535580   -6.371357
     62          1           0        0.607161    2.808352   -7.195936
     63          6           0        2.038566    3.740507   -5.964769
     64          6           0       -0.058382    4.827029   -6.916358
     65          1           0       -0.073177    5.619348   -6.155032
     66          1           0       -1.086506    4.603533   -7.217960
     67          8           0        2.828855    4.424791   -6.748019
     68          8           0        0.738534    5.211011   -8.045344
     69          1           0        0.456834    6.076824   -8.382525
     70          7           0        2.516299    3.207530   -4.878594
     71          1           0        1.850662    2.736480   -4.245037
     72          6           0        3.924765    3.267078   -4.453889
     73          1           0        4.523076    3.690431   -5.257439
     74          1           0        3.985431    3.924694   -3.578635
     75          6           0        4.542662    1.891000   -4.097250
     76          8           0        5.663245    1.631479   -4.502414
     77          7           0        3.787175    1.094596   -3.297027
     78          1           0        2.919919    1.444057   -2.899866
     79          6           0        4.306087   -0.136887   -2.704648
     80          1           0        5.270245   -0.342638   -3.170974
     81          6           0        3.411195   -1.332038   -3.013917
     82          6           0        4.469716    0.052438   -1.176683
     83          1           0        5.273740    0.785707   -1.033454
     84          1           0        3.549348    0.513479   -0.791269
     85          8           0        3.806713   -2.433581   -3.303749
     86          6           0        4.754707   -1.219294   -0.370307
     87          1           0        3.883029   -1.882599   -0.409019
     88          1           0        5.591892   -1.773502   -0.813830
     89          6           0        5.058528   -0.898146    1.102324
     90          1           0        4.445756   -0.045140    1.431086
     91          1           0        6.103934   -0.581733    1.209437
     92          6           0        4.780772   -2.069574    2.049819
     93          1           0        5.255990   -2.981248    1.666042
     94          1           0        5.243922   -1.857506    3.027945
     95          7           0        3.330681   -2.315066    2.140913
     96          1           0        2.888514   -1.512590    2.590799
     97          1           0        3.159253   -3.115650    2.747720
     98          8           0        2.083979   -1.050128   -2.857733
     99          1           0        1.620619   -1.896324   -3.009659
    100          1           0        2.282278    4.831141   -7.481357
 ---------------------------------------------------------------------

 SCF Done:  E(RB3LYP) =  -2418.42448539     A.U. after    1 cycles

 Alpha  occ. eigenvalues --  -19.34925 -19.31927 -19.28136 -19.25893 -19.24565
 Alpha  occ. eigenvalues --  -19.24338 -19.22556 -19.22027 -19.21183 -19.20859
 Alpha  occ. eigenvalues --  -19.19178 -14.53647 -14.49890 -14.47725 -14.46331
 Alpha  occ. eigenvalues --  -14.45963 -14.45129 -14.43526 -14.38146 -14.37652
 Alpha  occ. eigenvalues --  -10.47386 -10.41824 -10.41635 -10.39996 -10.39435
 Alpha  occ. eigenvalues --  -10.39402 -10.39077 -10.38935 -10.38214 -10.37183
 Alpha  occ. eigenvalues --  -10.35420 -10.34899 -10.34875 -10.34663 -10.32177
 Alpha  occ. eigenvalues --  -10.31851 -10.30885 -10.28627 -10.28386 -10.27822
 Alpha  occ. eigenvalues --  -10.26829 -10.26692 -10.26487 -10.25627 -10.25581
 Alpha  occ. eigenvalues --  -10.24646 -10.24378 -10.24339  -1.25639  -1.18637
 Alpha  occ. eigenvalues --   -1.18464  -1.17244  -1.16491  -1.14124  -1.13113
 Alpha  occ. eigenvalues --   -1.12860  -1.12343  -1.11060  -1.10828  -1.09655
 Alpha  occ. eigenvalues --   -1.06428  -1.04304  -1.02793  -1.01888  -1.01835
 Alpha  occ. eigenvalues --   -0.98213  -0.96024  -0.94090  -0.92487  -0.89654
 Alpha  occ. eigenvalues --   -0.88928  -0.88473  -0.86861  -0.86424  -0.84345
 Alpha  occ. eigenvalues --   -0.82290  -0.81745  -0.81534  -0.79502  -0.79165
 Alpha  occ. eigenvalues --   -0.78697  -0.76193  -0.75823  -0.74172  -0.73376
 Alpha  occ. eigenvalues --   -0.72146  -0.71833  -0.71011  -0.70332  -0.69862
 Alpha  occ. eigenvalues --   -0.68931  -0.68424  -0.68329  -0.67984  -0.67721
 Alpha  occ. eigenvalues --   -0.66799  -0.66432  -0.64453  -0.64350  -0.64329
 Alpha  occ. eigenvalues --   -0.63493  -0.62994  -0.62333  -0.61684  -0.61469
 Alpha  occ. eigenvalues --   -0.61006  -0.60425  -0.59563  -0.59197  -0.58417
 Alpha  occ. eigenvalues --   -0.57793  -0.57702  -0.57270  -0.57039  -0.56738
 Alpha  occ. eigenvalues --   -0.56182  -0.55791  -0.55770  -0.55368  -0.54633
 Alpha  occ. eigenvalues --   -0.54366  -0.54246  -0.54163  -0.53879  -0.53610
 Alpha  occ. eigenvalues --   -0.53189  -0.52945  -0.52554  -0.52176  -0.51868
 Alpha  occ. eigenvalues --   -0.51588  -0.51138  -0.50961  -0.50412  -0.50292
 Alpha  occ. eigenvalues --   -0.50175  -0.49775  -0.49277  -0.49059  -0.48787
 Alpha  occ. eigenvalues --   -0.48627  -0.48394  -0.48324  -0.47906  -0.47596
 Alpha  occ. eigenvalues --   -0.47417  -0.46964  -0.46804  -0.46518  -0.46402
 Alpha  occ. eigenvalues --   -0.46328  -0.46139  -0.45535  -0.45383  -0.45132
 Alpha  occ. eigenvalues --   -0.44748  -0.43993  -0.43742  -0.43515  -0.43427
 Alpha  occ. eigenvalues --   -0.42892  -0.42202  -0.41163  -0.40821  -0.40724
 Alpha  occ. eigenvalues --   -0.40304  -0.40178  -0.40086  -0.39949  -0.39572
 Alpha  occ. eigenvalues --   -0.39257  -0.39246  -0.37853  -0.37661  -0.37038
 Alpha  occ. eigenvalues --   -0.36712  -0.35820  -0.35151  -0.34656  -0.34483
 Alpha  occ. eigenvalues --   -0.34089  -0.33382  -0.33290  -0.30927  -0.30004
 Alpha virt. eigenvalues --   -0.16165  -0.12459  -0.10585  -0.09264  -0.08193
 Alpha virt. eigenvalues --   -0.07602  -0.07044  -0.06717  -0.04981  -0.04253
 Alpha virt. eigenvalues --   -0.03509  -0.01784  -0.01203  -0.00662  -0.00246

 Mulliken charges:
               1
     1  N   -0.752218
     2  H    0.313722
     3  H    0.347140
     4  C   -0.043842
     5  H    0.163042
     6  C    0.639066
     7  C   -0.406728
     8  H    0.186989
     9  H    0.150723
    10  O   -0.564931
    11  C    0.624433
    12  N   -0.747368
    13  H    0.359094
    14  H    0.343932
    15  O   -0.501528
    16  N   -0.614393
    17  H    0.346736
    18  C   -0.076465
    19  H    0.217368
    20  C    0.637341
    21  C   -0.089573
    22  H    0.135273
    23  O   -0.568512
    24  C   -0.266859
    25  H    0.124528
    26  H    0.160301
    27  C   -0.489190
    28  H    0.167395
    29  H    0.169971
    30  H    0.138347
    31  C   -0.452726
    32  H    0.157165
    33  H    0.144384
    34  H    0.158505
    35  N   -0.618270
    36  H    0.391111
    37  C   -0.035415
    38  H    0.176810
    39  C    0.630729
    40  C   -0.491055
    41  H    0.163992
    42  H    0.199444
    43  H    0.175093
    44  O   -0.564413
    45  N   -0.633097
    46  H    0.380652
    47  C   -0.086402
    48  H    0.201558
    49  C    0.612179
    50  C    0.128928
    51  H    0.160044
    52  O   -0.481464
    53  C   -0.477318
    54  H    0.193389
    55  H    0.182151
    56  H    0.146463
    57  O   -0.635316
    58  H    0.434030
    59  N   -0.643383
    60  H    0.355573
    61  C   -0.073330
    62  H    0.266383
    63  C    0.638482
    64  C   -0.055931
    65  H    0.168288
    66  H    0.202889
    67  O   -0.558774
    68  O   -0.640562
    69  H    0.445067
    70  N   -0.588317
    71  H    0.433599
    72  C   -0.273441
    73  H    0.240656
    74  H    0.216910
    75  C    0.604924
    76  O   -0.473848
    77  N   -0.636676
    78  H    0.390302
    79  C   -0.064003
    80  H    0.219347
    81  C    0.603600
    82  C   -0.282293
    83  H    0.162068
    84  H    0.137484
    85  O   -0.441070
    86  C   -0.273698
    87  H    0.166859
    88  H    0.156129
    89  C   -0.264196
    90  H    0.136128
    91  H    0.144488
    92  C   -0.142835
    93  H    0.148776
    94  H    0.129176
    95  N   -0.747724
    96  H    0.319899
    97  H    0.301780
    98  O   -0.593265
    99  H    0.418902
   100  H    0.480695
 Sum of Mulliken charges =   1.00000

 Dipole moment (field-independent basis, Debye):
    X=             -2.9997    Y=             12.0582    Z=            -11.1227  Tot=             16.6768
 Quadrupole moment (field-independent basis, Debye-Ang):
   XX=           -278.1093   YY=           -191.0077   ZZ=           -147.7309
   XY=             21.4605   XZ=             -6.4091   YZ=           -124.8592

 Normal termination of Gaussian 16 at Fri May 27 02:49:58 2022.
