 Gaussian 16, Revision C.01,
 Gaussian 16:  ES64L-G16RevC.01  3-Jul-2019

 -------------------------------------------------------------------
 # B3LYP/6-31G* guess=read geom=check nosymm integral(ultrafinegrid)
 -------------------------------------------------------------------

 -----------------------------------------------------
 Candidate Structure: Conf:34 Charge calc in gas phase
 -----------------------------------------------------
 Structure from the checkpoint file:  "conf-34.chk"
 Charge =  1 Multiplicity = 1

                          Input orientation:
 ---------------------------------------------------------------------
 Center     Atomic      Atomic             Coordinates (Angstroms)
 Number     Number       Type             X           Y           Z
 ---------------------------------------------------------------------
      1          7           0       -6.919089    0.150416    1.409546
      2          1           0       -7.020799    1.111361    1.742339
      3          1           0       -7.322035   -0.436344    2.139326
      4          6           0       -5.484184   -0.124200    1.291577
      5          1           0       -5.346480   -1.211302    1.243146
      6          6           0       -4.682961    0.460285    2.467694
      7          6           0       -4.910760    0.519325    0.003511
      8          1           0       -5.175230    1.585880    0.015000
      9          1           0       -3.818325    0.460312    0.000492
     10          8           0       -5.024523    1.507117    3.009317
     11          6           0       -5.366411   -0.079842   -1.334549
     12          7           0       -6.672954   -0.436726   -1.389438
     13          1           0       -7.037441   -0.809095   -2.255030
     14          1           0       -7.266152   -0.301586   -0.572183
     15          8           0       -4.581077   -0.185079   -2.270676
     16          7           0       -3.548711   -0.225492    2.814295
     17          1           0       -3.233194   -0.950290    2.179726
     18          6           0       -2.484486    0.432787    3.572785
     19          1           0       -2.977701    1.110909    4.274994
     20          6           0       -1.678227    1.225869    2.532338
     21          6           0       -1.596794   -0.569616    4.344490
     22          1           0       -1.133765   -1.227856    3.593427
     23          8           0       -1.196186    0.644987    1.546865
     24          6           0       -2.445972   -1.434182    5.298955
     25          1           0       -3.319083   -1.814845    4.756596
     26          1           0       -2.841551   -0.793298    6.100088
     27          6           0       -0.477763    0.180664    5.086202
     28          1           0       -0.897887    0.856571    5.843134
     29          1           0        0.179282   -0.521806    5.606692
     30          1           0        0.153436    0.777657    4.418996
     31          6           0       -1.689333   -2.617483    5.913816
     32          1           0       -2.360465   -3.219916    6.535025
     33          1           0       -1.279565   -3.273883    5.136113
     34          1           0       -0.858796   -2.294560    6.549944
     35          7           0       -1.580618    2.562110    2.705278
     36          1           0       -2.048497    2.978625    3.500365
     37          6           0       -1.124175    3.477557    1.649939
     38          1           0       -1.516053    3.082948    0.703301
     39          6           0        0.418513    3.484953    1.531026
     40          6           0       -1.665711    4.879884    1.905577
     41          1           0       -1.375241    5.552222    1.094945
     42          1           0       -2.758176    4.856427    1.964660
     43          1           0       -1.258333    5.294492    2.832567
     44          8           0        1.104044    4.459118    1.818787
     45          7           0        0.939227    2.327173    1.008973
     46          1           0        0.310127    1.515766    1.036790
     47          6           0        2.380374    2.125707    1.016348
     48          1           0        2.808722    3.128661    0.872387
     49          6           0        2.741232    1.277909   -0.203098
     50          6           0        2.932529    1.539691    2.345554
     51          1           0        2.639324    0.486469    2.410610
     52          8           0        3.341677    0.203134   -0.146961
     53          6           0        4.454773    1.652765    2.436440
     54          1           0        4.950130    1.090988    1.639694
     55          1           0        4.786404    1.249176    3.397021
     56          1           0        4.771835    2.702318    2.383277
     57          8           0        2.294032    2.165249    3.447103
     58          1           0        2.388050    3.129423    3.356956
     59          7           0        2.317775    1.782994   -1.409520
     60          1           0        1.760042    2.628370   -1.368320
     61          6           0        2.097547    0.910759   -2.559313
     62          1           0        1.766385   -0.077281   -2.211009
     63          6           0        3.394170    0.640747   -3.342746
     64          6           0        0.994287    1.533560   -3.431217
     65          1           0        1.242452    2.581379   -3.657239
     66          1           0        0.051252    1.505167   -2.875016
     67          8           0        3.460408    0.784670   -4.633970
     68          8           0        0.908372    0.756720   -4.627829
     69          1           0        0.190762    1.085353   -5.193708
     70          7           0        4.460043    0.274497   -2.687755
     71          1           0        4.305095    0.103483   -1.679852
     72          6           0        5.626022   -0.303666   -3.342905
     73          1           0        5.895054    0.297081   -4.215344
     74          1           0        6.460871   -0.279138   -2.639492
     75          6           0        5.264355   -1.751893   -3.780904
     76          8           0        4.093741   -2.100482   -3.846022
     77          7           0        6.330492   -2.520427   -4.084926
     78          1           0        7.270762   -2.156911   -3.995961
     79          6           0        6.196139   -3.909559   -4.539073
     80          1           0        5.231895   -4.275142   -4.181106
     81          6           0        7.278129   -4.769267   -3.896953
     82          6           0        6.243272   -4.018183   -6.083884
     83          1           0        5.507101   -3.300829   -6.467718
     84          1           0        7.229404   -3.681183   -6.432180
     85          8           0        7.152625   -5.927941   -3.590514
     86          6           0        5.926114   -5.419008   -6.621227
     87          1           0        6.637282   -6.149513   -6.215560
     88          1           0        4.933488   -5.734088   -6.279961
     89          6           0        5.959937   -5.480344   -8.153510
     90          1           0        6.973126   -5.260984   -8.518387
     91          1           0        5.307521   -4.697734   -8.570714
     92          6           0        5.518450   -6.841168   -8.707329
     93          1           0        5.726972   -6.870166   -9.791042
     94          1           0        6.129751   -7.629800   -8.250668
     95          7           0        4.116439   -7.112923   -8.365143
     96          1           0        3.888577   -8.082820   -8.574620
     97          1           0        3.504617   -6.547634   -8.952845
     98          8           0        8.445825   -4.083049   -3.758796
     99          1           0        9.095905   -4.704707   -3.378975
    100          1           0        2.539335    0.823693   -5.006906
 ---------------------------------------------------------------------

 SCF Done:  E(RB3LYP) =  -2418.41379235     A.U. after    2 cycles

 Alpha  occ. eigenvalues --  -19.35136 -19.32134 -19.28578 -19.26455 -19.22795
 Alpha  occ. eigenvalues --  -19.22522 -19.22468 -19.21522 -19.21431 -19.19313
 Alpha  occ. eigenvalues --  -19.15725 -14.53231 -14.50619 -14.47059 -14.46122
 Alpha  occ. eigenvalues --  -14.44900 -14.43814 -14.39578 -14.39518 -14.36347
 Alpha  occ. eigenvalues --  -10.47807 -10.42828 -10.40647 -10.40516 -10.40221
 Alpha  occ. eigenvalues --  -10.39880 -10.38189 -10.38093 -10.36821 -10.35935
 Alpha  occ. eigenvalues --  -10.33801 -10.33774 -10.32989 -10.32755 -10.32725
 Alpha  occ. eigenvalues --  -10.31109 -10.30238 -10.26830 -10.26642 -10.26623
 Alpha  occ. eigenvalues --  -10.25960 -10.25959 -10.25630 -10.24410 -10.24044
 Alpha  occ. eigenvalues --  -10.23989 -10.23919 -10.23246  -1.26103  -1.19174
 Alpha  occ. eigenvalues --   -1.18834  -1.18193  -1.15043  -1.13695  -1.12883
 Alpha  occ. eigenvalues --   -1.11036  -1.10728  -1.10255  -1.10073  -1.07466
 Alpha  occ. eigenvalues --   -1.07200  -1.03455  -1.02267  -1.01614  -1.00276
 Alpha  occ. eigenvalues --   -0.96881  -0.94249  -0.93068  -0.92943  -0.89421
 Alpha  occ. eigenvalues --   -0.88497  -0.87334  -0.86913  -0.85406  -0.82881
 Alpha  occ. eigenvalues --   -0.82653  -0.80961  -0.80358  -0.79689  -0.79189
 Alpha  occ. eigenvalues --   -0.77164  -0.76361  -0.74566  -0.73188  -0.71854
 Alpha  occ. eigenvalues --   -0.71217  -0.70840  -0.70267  -0.69887  -0.69195
 Alpha  occ. eigenvalues --   -0.68784  -0.67922  -0.67861  -0.67325  -0.66941
 Alpha  occ. eigenvalues --   -0.65881  -0.65034  -0.64721  -0.63764  -0.63440
 Alpha  occ. eigenvalues --   -0.63202  -0.62923  -0.62476  -0.61039  -0.60154
 Alpha  occ. eigenvalues --   -0.59621  -0.58560  -0.58505  -0.58424  -0.57795
 Alpha  occ. eigenvalues --   -0.57701  -0.57494  -0.56953  -0.56763  -0.56445
 Alpha  occ. eigenvalues --   -0.56275  -0.55802  -0.55377  -0.55049  -0.54587
 Alpha  occ. eigenvalues --   -0.54217  -0.53835  -0.53465  -0.53089  -0.52236
 Alpha  occ. eigenvalues --   -0.51905  -0.51757  -0.51645  -0.51420  -0.51292
 Alpha  occ. eigenvalues --   -0.51047  -0.50819  -0.50066  -0.50016  -0.49926
 Alpha  occ. eigenvalues --   -0.49429  -0.48863  -0.48531  -0.48363  -0.48306
 Alpha  occ. eigenvalues --   -0.47727  -0.47352  -0.46748  -0.46698  -0.46586
 Alpha  occ. eigenvalues --   -0.46468  -0.46459  -0.45728  -0.45436  -0.45339
 Alpha  occ. eigenvalues --   -0.44876  -0.44517  -0.44506  -0.44257  -0.44058
 Alpha  occ. eigenvalues --   -0.44051  -0.43337  -0.43306  -0.42324  -0.42307
 Alpha  occ. eigenvalues --   -0.41435  -0.41066  -0.40855  -0.40764  -0.40544
 Alpha  occ. eigenvalues --   -0.39857  -0.39730  -0.39128  -0.39091  -0.38894
 Alpha  occ. eigenvalues --   -0.38817  -0.37495  -0.37415  -0.36814  -0.36241
 Alpha  occ. eigenvalues --   -0.35729  -0.34649  -0.34479  -0.34458  -0.33629
 Alpha  occ. eigenvalues --   -0.32707  -0.31780  -0.31095  -0.29524  -0.28539
 Alpha virt. eigenvalues --   -0.16967  -0.12758  -0.08772  -0.08178  -0.08001
 Alpha virt. eigenvalues --   -0.07545  -0.07461  -0.05400  -0.04510  -0.03060
 Alpha virt. eigenvalues --   -0.01838  -0.01782  -0.01151  -0.00402  -0.00094

 Mulliken charges:
               1
     1  N   -0.724731
     2  H    0.329512
     3  H    0.320857
     4  C   -0.091956
     5  H    0.154779
     6  C    0.598814
     7  C   -0.362329
     8  H    0.174383
     9  H    0.168421
    10  O   -0.525380
    11  C    0.577356
    12  N   -0.748259
    13  H    0.336911
    14  H    0.379198
    15  O   -0.529222
    16  N   -0.591433
    17  H    0.341132
    18  C   -0.049549
    19  H    0.173437
    20  C    0.645634
    21  C   -0.092455
    22  H    0.135110
    23  O   -0.581402
    24  C   -0.254770
    25  H    0.146412
    26  H    0.139562
    27  C   -0.488250
    28  H    0.144446
    29  H    0.165822
    30  H    0.176555
    31  C   -0.451721
    32  H    0.157818
    33  H    0.143836
    34  H    0.153998
    35  N   -0.584528
    36  H    0.358082
    37  C   -0.057418
    38  H    0.173510
    39  C    0.620399
    40  C   -0.476478
    41  H    0.177402
    42  H    0.172522
    43  H    0.183142
    44  O   -0.519940
    45  N   -0.644759
    46  H    0.389838
    47  C   -0.109146
    48  H    0.192840
    49  C    0.634464
    50  C    0.163945
    51  H    0.160381
    52  O   -0.528299
    53  C   -0.472493
    54  H    0.153650
    55  H    0.182508
    56  H    0.146260
    57  O   -0.619647
    58  H    0.406887
    59  N   -0.602508
    60  H    0.363723
    61  C   -0.074359
    62  H    0.256160
    63  C    0.663751
    64  C   -0.102461
    65  H    0.175158
    66  H    0.214112
    67  O   -0.557524
    68  O   -0.634723
    69  H    0.450212
    70  N   -0.540991
    71  H    0.424192
    72  C   -0.280532
    73  H    0.232285
    74  H    0.208943
    75  C    0.636524
    76  O   -0.503390
    77  N   -0.613711
    78  H    0.356582
    79  C   -0.047687
    80  H    0.214531
    81  C    0.591028
    82  C   -0.270205
    83  H    0.155657
    84  H    0.144164
    85  O   -0.432990
    86  C   -0.264360
    87  H    0.152676
    88  H    0.176681
    89  C   -0.253849
    90  H    0.132554
    91  H    0.124001
    92  C   -0.144465
    93  H    0.124848
    94  H    0.145941
    95  N   -0.715465
    96  H    0.306204
    97  H    0.294294
    98  O   -0.588236
    99  H    0.427994
   100  H    0.479580
 Sum of Mulliken charges =   1.00000

 Dipole moment (field-independent basis, Debye):
    X=             11.5893    Y=              2.9854    Z=            -11.5688  Tot=             16.6452
 Quadrupole moment (field-independent basis, Debye-Ang):
   XX=           -144.6464   YY=           -257.4494   ZZ=           -177.2463
   XY=            -12.7750   XZ=            -78.6668   YZ=             10.8578

 Normal termination of Gaussian 16 at Fri May 27 02:50:11 2022.
