 Gaussian 16, Revision C.01,
 Gaussian 16:  ES64L-G16RevC.01  3-Jul-2019

 -------------------------------------------------------------------
 # B3LYP/6-31G* guess=read geom=check nosymm integral(ultrafinegrid)
 -------------------------------------------------------------------

 ------------------------------------------------------
 Candidate Structure: Conf:950 Charge calc in gas phase
 ------------------------------------------------------
 Structure from the checkpoint file:  "conf-950.chk"
 Charge =  1 Multiplicity = 1

                          Input orientation:
 ---------------------------------------------------------------------
 Center     Atomic      Atomic             Coordinates (Angstroms)
 Number     Number       Type             X           Y           Z
 ---------------------------------------------------------------------
      1          7           0       -5.171431   -0.746565    4.049798
      2          1           0       -5.557299   -1.665706    4.265408
      3          1           0       -4.609985   -0.478789    4.859574
      4          6           0       -6.310505    0.169668    3.922773
      5          1           0       -6.983126   -0.285951    3.183388
      6          6           0       -5.877709    1.512289    3.308078
      7          6           0       -7.126025    0.405664    5.203597
      8          1           0       -6.462317    0.746076    6.012129
      9          1           0       -7.841294    1.217944    5.033763
     10          8           0       -6.558106    2.533298    3.399375
     11          6           0       -7.841629   -0.863827    5.662885
     12          7           0       -8.785450   -0.676506    6.627798
     13          1           0       -9.314884   -1.478941    6.940251
     14          1           0       -9.093613    0.242060    6.909376
     15          8           0       -7.575645   -1.978390    5.221563
     16          7           0       -4.704268    1.458616    2.625290
     17          1           0       -4.247451    0.554845    2.539022
     18          6           0       -4.234069    2.586910    1.848380
     19          1           0       -5.120050    3.103370    1.461824
     20          6           0       -3.426923    2.026416    0.672443
     21          6           0       -3.450674    3.609958    2.738416
     22          1           0       -4.132490    3.771789    3.582606
     23          8           0       -2.951464    0.887422    0.678553
     24          6           0       -3.210777    4.985537    2.083051
     25          1           0       -2.501846    4.888393    1.247971
     26          1           0       -2.694868    5.606897    2.826555
     27          6           0       -2.141511    3.022035    3.278017
     28          1           0       -1.392803    2.909984    2.483554
     29          1           0       -1.712669    3.679611    4.042283
     30          1           0       -2.303311    2.039677    3.733290
     31          6           0       -4.473676    5.730185    1.627102
     32          1           0       -4.231333    6.754192    1.323379
     33          1           0       -4.973218    5.252212    0.773683
     34          1           0       -5.213054    5.782708    2.433777
     35          7           0       -3.266850    2.854451   -0.397564
     36          1           0       -3.700197    3.768143   -0.385625
     37          6           0       -2.689508    2.387434   -1.658886
     38          1           0       -3.029589    1.355388   -1.801906
     39          6           0       -1.145794    2.369719   -1.581322
     40          6           0       -3.169755    3.263541   -2.812764
     41          1           0       -2.801456    2.873774   -3.766253
     42          1           0       -4.263265    3.271461   -2.849447
     43          1           0       -2.799091    4.287084   -2.705532
     44          8           0       -0.460228    3.308776   -2.022045
     45          7           0       -0.615237    1.255428   -1.040316
     46          1           0       -1.251422    0.559847   -0.651621
     47          6           0        0.796750    1.076199   -0.698453
     48          1           0        1.171810    2.011230   -0.258959
     49          6           0        1.679232    0.802646   -1.941355
     50          6           0        0.925564   -0.058152    0.336944
     51          1           0        1.983651   -0.350433    0.358757
     52          8           0        2.426386   -0.174439   -2.034979
     53          6           0        0.474239    0.359709    1.736090
     54          1           0        1.073683    1.195671    2.114450
     55          1           0        0.607685   -0.476884    2.432485
     56          1           0       -0.582419    0.641973    1.744564
     57          8           0        0.131424   -1.123511   -0.179281
     58          1           0        0.062617   -1.813093    0.498862
     59          7           0        1.627223    1.780455   -2.888327
     60          1           0        0.980191    2.560814   -2.683694
     61          6           0        2.090113    1.612974   -4.258978
     62          1           0        1.796002    0.624152   -4.641462
     63          6           0        3.621020    1.639775   -4.410391
     64          6           0        1.397260    2.703918   -5.096270
     65          1           0        1.601332    3.693522   -4.665217
     66          1           0        0.317285    2.529136   -5.069935
     67          8           0        4.196077    2.308072   -5.368594
     68          8           0        1.901708    2.611427   -6.433594
     69          1           0        1.485984    3.287812   -6.992854
     70          7           0        4.361602    0.969265   -3.573820
     71          1           0        3.826217    0.384573   -2.902864
     72          6           0        5.763290    0.670236   -3.829380
     73          1           0        6.280679    1.576615   -4.154911
     74          1           0        6.214405    0.330363   -2.894277
     75          6           0        5.847520   -0.410868   -4.944557
     76          8           0        4.876221   -0.654094   -5.648059
     77          7           0        7.054303   -1.004516   -5.054861
     78          1           0        7.815030   -0.752471   -4.436787
     79          6           0        7.335792   -2.006151   -6.088928
     80          1           0        6.409488   -2.554510   -6.274809
     81          6           0        8.361629   -3.009697   -5.580900
     82          6           0        7.807224   -1.348327   -7.411205
     83          1           0        7.068217   -0.573826   -7.649191
     84          1           0        8.762247   -0.836271   -7.231879
     85          8           0        8.443222   -4.155410   -5.947053
     86          6           0        7.930212   -2.317335   -8.594273
     87          1           0        8.662855   -3.100983   -8.366614
     88          1           0        6.969428   -2.831688   -8.737166
     89          6           0        8.322124   -1.596890   -9.890633
     90          1           0        9.287476   -1.087213   -9.748442
     91          1           0        7.591509   -0.813364  -10.129190
     92          6           0        8.424826   -2.538406  -11.093662
     93          1           0        9.143871   -3.346225  -10.861973
     94          1           0        7.453531   -3.024346  -11.252387
     95          7           0        8.743818   -1.779646  -12.307371
     96          1           0        8.712287   -2.395523  -13.118100
     97          1           0        9.702857   -1.437248  -12.255472
     98          8           0        9.230218   -2.445105   -4.698680
     99          1           0        9.874141   -3.136920   -4.452993
    100          1           0        3.497855    2.607863   -6.023596
 ---------------------------------------------------------------------

 SCF Done:  E(RB3LYP) =  -2418.42270376     A.U. after    1 cycles

 Alpha  occ. eigenvalues --  -19.34339 -19.31798 -19.28746 -19.24994 -19.23559
 Alpha  occ. eigenvalues --  -19.22847 -19.22565 -19.22436 -19.20842 -19.16328
 Alpha  occ. eigenvalues --  -19.16118 -14.52223 -14.48268 -14.46745 -14.46302
 Alpha  occ. eigenvalues --  -14.45535 -14.40593 -14.40489 -14.36777 -14.35801
 Alpha  occ. eigenvalues --  -10.46937 -10.41509 -10.40809 -10.40134 -10.39306
 Alpha  occ. eigenvalues --  -10.39299 -10.39019 -10.37578 -10.36283 -10.34470
 Alpha  occ. eigenvalues --  -10.34023 -10.33595 -10.33282 -10.33172 -10.32840
 Alpha  occ. eigenvalues --  -10.29930 -10.27554 -10.27433 -10.26953 -10.26193
 Alpha  occ. eigenvalues --  -10.25936 -10.25626 -10.25065 -10.24785 -10.24381
 Alpha  occ. eigenvalues --  -10.24159 -10.23957 -10.23635  -1.25192  -1.19329
 Alpha  occ. eigenvalues --   -1.18391  -1.16783  -1.14617  -1.14264  -1.12527
 Alpha  occ. eigenvalues --   -1.11223  -1.10386  -1.09796  -1.08122  -1.07898
 Alpha  occ. eigenvalues --   -1.05519  -1.03171  -1.02730  -1.01594  -0.97756
 Alpha  occ. eigenvalues --   -0.95238  -0.93849  -0.92600  -0.92207  -0.89171
 Alpha  occ. eigenvalues --   -0.88303  -0.87261  -0.86681  -0.85641  -0.82724
 Alpha  occ. eigenvalues --   -0.81117  -0.80830  -0.80158  -0.78962  -0.78481
 Alpha  occ. eigenvalues --   -0.77743  -0.76274  -0.74887  -0.73233  -0.71459
 Alpha  occ. eigenvalues --   -0.71066  -0.69995  -0.69782  -0.69119  -0.68703
 Alpha  occ. eigenvalues --   -0.68114  -0.67911  -0.67536  -0.67407  -0.66374
 Alpha  occ. eigenvalues --   -0.65179  -0.64622  -0.64177  -0.63914  -0.63335
 Alpha  occ. eigenvalues --   -0.62378  -0.61937  -0.61382  -0.60684  -0.60555
 Alpha  occ. eigenvalues --   -0.59161  -0.58862  -0.58414  -0.57557  -0.57372
 Alpha  occ. eigenvalues --   -0.57244  -0.56862  -0.56357  -0.56300  -0.56005
 Alpha  occ. eigenvalues --   -0.55247  -0.54652  -0.54357  -0.54133  -0.54014
 Alpha  occ. eigenvalues --   -0.53840  -0.53717  -0.53422  -0.52823  -0.52558
 Alpha  occ. eigenvalues --   -0.51853  -0.51655  -0.50938  -0.50894  -0.50596
 Alpha  occ. eigenvalues --   -0.50429  -0.50207  -0.49876  -0.49495  -0.49414
 Alpha  occ. eigenvalues --   -0.49239  -0.48965  -0.48778  -0.48442  -0.48243
 Alpha  occ. eigenvalues --   -0.47980  -0.47247  -0.47027  -0.46888  -0.46426
 Alpha  occ. eigenvalues --   -0.46234  -0.45826  -0.45609  -0.45448  -0.45426
 Alpha  occ. eigenvalues --   -0.45253  -0.44860  -0.44143  -0.43715  -0.43619
 Alpha  occ. eigenvalues --   -0.43586  -0.43276  -0.42336  -0.42003  -0.41806
 Alpha  occ. eigenvalues --   -0.41739  -0.40819  -0.40521  -0.40356  -0.40003
 Alpha  occ. eigenvalues --   -0.39659  -0.39615  -0.38988  -0.38880  -0.38640
 Alpha  occ. eigenvalues --   -0.38570  -0.37736  -0.37148  -0.36430  -0.36034
 Alpha  occ. eigenvalues --   -0.35914  -0.34518  -0.34416  -0.33939  -0.31758
 Alpha  occ. eigenvalues --   -0.31414  -0.30290  -0.30040  -0.28598  -0.28064
 Alpha virt. eigenvalues --   -0.16031  -0.11289  -0.08967  -0.08517  -0.07536
 Alpha virt. eigenvalues --   -0.07471  -0.06677  -0.02766  -0.02619  -0.02166
 Alpha virt. eigenvalues --   -0.01747  -0.01383  -0.00925  -0.00751  -0.00232

 Mulliken charges:
               1
     1  N   -0.750170
     2  H    0.342822
     3  H    0.293990
     4  C   -0.068239
     5  H    0.185815
     6  C    0.608660
     7  C   -0.383846
     8  H    0.165115
     9  H    0.188909
    10  O   -0.548050
    11  C    0.608458
    12  N   -0.747879
    13  H    0.348610
    14  H    0.343134
    15  O   -0.516060
    16  N   -0.618614
    17  H    0.371541
    18  C   -0.054075
    19  H    0.180304
    20  C    0.624509
    21  C   -0.071443
    22  H    0.170430
    23  O   -0.544440
    24  C   -0.276109
    25  H    0.123112
    26  H    0.151562
    27  C   -0.466069
    28  H    0.134334
    29  H    0.154876
    30  H    0.157940
    31  C   -0.462892
    32  H    0.156519
    33  H    0.129285
    34  H    0.179427
    35  N   -0.610310
    36  H    0.354609
    37  C   -0.040186
    38  H    0.186632
    39  C    0.633865
    40  C   -0.478531
    41  H    0.159039
    42  H    0.174763
    43  H    0.181126
    44  O   -0.571529
    45  N   -0.603888
    46  H    0.398874
    47  C   -0.067993
    48  H    0.193912
    49  C    0.646112
    50  C    0.118991
    51  H    0.154750
    52  O   -0.528479
    53  C   -0.497901
    54  H    0.154138
    55  H    0.159864
    56  H    0.198243
    57  O   -0.627271
    58  H    0.413587
    59  N   -0.663423
    60  H    0.415820
    61  C   -0.060687
    62  H    0.249023
    63  C    0.654502
    64  C   -0.103859
    65  H    0.187891
    66  H    0.202483
    67  O   -0.560794
    68  O   -0.638959
    69  H    0.445879
    70  N   -0.546937
    71  H    0.428328
    72  C   -0.278296
    73  H    0.228919
    74  H    0.207193
    75  C    0.638821
    76  O   -0.506871
    77  N   -0.618347
    78  H    0.357893
    79  C   -0.041067
    80  H    0.210896
    81  C    0.589773
    82  C   -0.269959
    83  H    0.163177
    84  H    0.146523
    85  O   -0.434991
    86  C   -0.273210
    87  H    0.160162
    88  H    0.146263
    89  C   -0.249126
    90  H    0.126541
    91  H    0.147361
    92  C   -0.136765
    93  H    0.119175
    94  H    0.142302
    95  N   -0.717364
    96  H    0.303007
    97  H    0.294581
    98  O   -0.588243
    99  H    0.428834
   100  H    0.479669
 Sum of Mulliken charges =   1.00000

 Dipole moment (field-independent basis, Debye):
    X=             11.9378    Y=              9.8124    Z=            -12.4189  Tot=             19.8249
 Quadrupole moment (field-independent basis, Debye-Ang):
   XX=           -113.7054   YY=           -259.3810   ZZ=           -144.8956
   XY=            -16.1622   XZ=           -106.8111   YZ=            -27.8091

 Normal termination of Gaussian 16 at Fri May 27 02:49:53 2022.
