 Gaussian 16, Revision C.01,
 Gaussian 16:  ES64L-G16RevC.01  3-Jul-2019

 -------------------------------------------------------------------
 # B3LYP/6-31G* guess=read geom=check nosymm integral(ultrafinegrid)
 -------------------------------------------------------------------

 ------------------------------------------------------
 Candidate Structure: Conf:684 Charge calc in gas phase
 ------------------------------------------------------
 Structure from the checkpoint file:  "conf-684.chk"
 Charge =  1 Multiplicity = 1

                          Input orientation:
 ---------------------------------------------------------------------
 Center     Atomic      Atomic             Coordinates (Angstroms)
 Number     Number       Type             X           Y           Z
 ---------------------------------------------------------------------
      1          7           0       -7.555168    2.262459    5.065143
      2          1           0       -7.861546    3.172099    4.714901
      3          1           0       -7.050446    2.461235    5.928139
      4          6           0       -6.637927    1.692645    4.075704
      5          1           0       -6.061454    0.895931    4.563003
      6          6           0       -5.667365    2.753334    3.523226
      7          6           0       -7.426329    1.079979    2.891432
      8          1           0       -8.118265    1.841667    2.506656
      9          1           0       -6.749534    0.814139    2.075273
     10          8           0       -5.940908    3.949540    3.532163
     11          6           0       -8.214635   -0.200866    3.209828
     12          7           0       -8.941315   -0.156182    4.355321
     13          1           0       -9.469625   -0.975391    4.621146
     14          1           0       -8.859069    0.648594    4.972848
     15          8           0       -8.185346   -1.159048    2.448649
     16          7           0       -4.499467    2.277100    2.993871
     17          1           0       -4.338958    1.280810    2.908647
     18          6           0       -3.599456    3.153430    2.262448
     19          1           0       -4.210423    3.970113    1.865294
     20          6           0       -3.014647    2.339120    1.110794
     21          6           0       -2.510772    3.784284    3.194271
     22          1           0       -3.105520    4.214426    4.010214
     23          8           0       -2.902329    1.108006    1.168037
     24          6           0       -1.718493    4.938351    2.546662
     25          1           0       -1.091907    4.552005    1.728987
     26          1           0       -1.012047    5.304346    3.302180
     27          6           0       -1.569663    2.728377    3.787381
     28          1           0       -0.910032    2.296204    3.023838
     29          1           0       -0.931749    3.177787    4.555576
     30          1           0       -2.126593    1.910294    4.254647
     31          6           0       -2.557958    6.126329    2.056384
     32          1           0       -1.912235    6.954429    1.746365
     33          1           0       -3.198952    5.881400    1.198284
     34          1           0       -3.220451    6.495124    2.846968
     35          7           0       -2.605789    3.025490    0.006440
     36          1           0       -2.751436    4.026558   -0.035893
     37          6           0       -2.262539    2.334165   -1.238237
     38          1           0       -2.904490    1.447336   -1.301284
     39          6           0       -0.819136    1.801288   -1.176271
     40          6           0       -2.514079    3.237645   -2.443279
     41          1           0       -2.283568    2.712862   -3.373405
     42          1           0       -3.570804    3.518172   -2.463779
     43          1           0       -1.902890    4.144101   -2.403975
     44          8           0        0.025413    2.409537   -1.948900
     45          7           0       -0.587291    0.807957   -0.360564
     46          1           0       -1.430134    0.496458    0.148650
     47          6           0        0.652489    0.069677   -0.061753
     48          1           0        1.252751    0.654189    0.644827
     49          6           0        1.422974   -0.210950   -1.356508
     50          6           0        0.245013   -1.301631    0.575222
     51          1           0        1.156954   -1.919567    0.565233
     52          8           0        0.854408   -0.750840   -2.309274
     53          6           0       -0.248745   -1.177336    2.012201
     54          1           0        0.533946   -0.767683    2.659310
     55          1           0       -0.515955   -2.172384    2.377936
     56          1           0       -1.140828   -0.546955    2.086640
     57          8           0       -0.783681   -1.883966   -0.193949
     58          1           0       -0.467164   -1.952169   -1.115222
     59          7           0        2.713091    0.162452   -1.339839
     60          1           0        3.130048    0.667223   -0.555211
     61          6           0        3.578424    0.178803   -2.505769
     62          1           0        3.770506   -0.839995   -2.864645
     63          6           0        4.901063    0.818220   -2.004850
     64          6           0        2.929998    0.973082   -3.653168
     65          1           0        2.141733    0.376753   -4.120107
     66          1           0        3.685470    1.234482   -4.400715
     67          8           0        4.962873    1.308932   -0.877205
     68          8           0        2.371056    2.173617   -3.079999
     69          1           0        2.198304    2.807799   -3.794277
     70          7           0        5.920506    0.791717   -2.875267
     71          1           0        5.885984    0.303844   -3.770004
     72          6           0        7.240466    1.304235   -2.566308
     73          1           0        7.216134    2.391634   -2.423403
     74          1           0        7.619957    0.863820   -1.636122
     75          6           0        8.142130    0.935368   -3.757027
     76          8           0        7.674562    0.337034   -4.727895
     77          7           0        9.428878    1.309927   -3.644662
     78          1           0        9.777268    1.764852   -2.806685
     79          6           0       10.439439    1.004668   -4.655149
     80          1           0       10.249298    0.002106   -5.050546
     81          6           0       11.774344    1.015632   -3.920094
     82          6           0       10.402557    2.024382   -5.823999
     83          1           0        9.358224    2.056566   -6.157044
     84          1           0       10.642023    3.018730   -5.423485
     85          8           0       11.957684    1.595230   -2.868724
     86          6           0       11.312845    1.689444   -7.011350
     87          1           0       12.365087    1.693749   -6.714380
     88          1           0       11.093801    0.670224   -7.361243
     89          6           0       11.131316    2.670817   -8.176702
     90          1           0       11.254003    3.702722   -7.812657
     91          1           0       10.107465    2.605676   -8.570795
     92          6           0       12.119885    2.430723   -9.324780
     93          1           0       12.036014    1.389003   -9.660281
     94          1           0       11.829043    3.061334  -10.183443
     95          7           0       13.502491    2.641375   -8.876289
     96          1           0       13.672281    3.638998   -8.751102
     97          1           0       14.152256    2.335582   -9.598303
     98          8           0       12.725918    0.330518   -4.570679
     99          1           0       13.554415    0.430416   -4.062381
    100          1           0        0.964404    2.083722   -2.129744
 ---------------------------------------------------------------------

 SCF Done:  E(RB3LYP) =  -2418.42098546     A.U. after    1 cycles

 Alpha  occ. eigenvalues --  -19.35170 -19.30472 -19.27495 -19.25392 -19.24546
 Alpha  occ. eigenvalues --  -19.24545 -19.22631 -19.21988 -19.20851 -19.19613
 Alpha  occ. eigenvalues --  -19.14777 -14.53467 -14.49927 -14.48534 -14.46343
 Alpha  occ. eigenvalues --  -14.44658 -14.44464 -14.39359 -14.38644 -14.35911
 Alpha  occ. eigenvalues --  -10.47621 -10.41865 -10.41796 -10.39980 -10.39798
 Alpha  occ. eigenvalues --  -10.38486 -10.38156 -10.37282 -10.36560 -10.36333
 Alpha  occ. eigenvalues --  -10.35899 -10.35771 -10.33362 -10.32851 -10.32567
 Alpha  occ. eigenvalues --  -10.31578 -10.31070 -10.30208 -10.28808 -10.27630
 Alpha  occ. eigenvalues --  -10.27575 -10.26526 -10.26428 -10.25602 -10.25503
 Alpha  occ. eigenvalues --  -10.25477 -10.23311 -10.23257  -1.25095  -1.18573
 Alpha  occ. eigenvalues --   -1.17244  -1.17214  -1.16356  -1.14578  -1.12798
 Alpha  occ. eigenvalues --   -1.12680  -1.11531  -1.10196  -1.09630  -1.06600
 Alpha  occ. eigenvalues --   -1.06080  -1.05117  -1.02794  -1.01261  -1.01112
 Alpha  occ. eigenvalues --   -0.96671  -0.93482  -0.93426  -0.92603  -0.90897
 Alpha  occ. eigenvalues --   -0.89653  -0.88487  -0.87092  -0.83908  -0.83784
 Alpha  occ. eigenvalues --   -0.83150  -0.81818  -0.81476  -0.80783  -0.80440
 Alpha  occ. eigenvalues --   -0.77578  -0.76802  -0.75396  -0.73601  -0.73350
 Alpha  occ. eigenvalues --   -0.72598  -0.71246  -0.71059  -0.70777  -0.70173
 Alpha  occ. eigenvalues --   -0.69109  -0.68295  -0.68120  -0.67458  -0.66141
 Alpha  occ. eigenvalues --   -0.65640  -0.65286  -0.64955  -0.63905  -0.63047
 Alpha  occ. eigenvalues --   -0.62892  -0.62594  -0.62041  -0.61186  -0.59972
 Alpha  occ. eigenvalues --   -0.59240  -0.58606  -0.58421  -0.57929  -0.57625
 Alpha  occ. eigenvalues --   -0.57422  -0.57283  -0.57000  -0.56694  -0.56548
 Alpha  occ. eigenvalues --   -0.56338  -0.55985  -0.55494  -0.54860  -0.54672
 Alpha  occ. eigenvalues --   -0.54147  -0.53719  -0.53561  -0.53213  -0.53044
 Alpha  occ. eigenvalues --   -0.52720  -0.52450  -0.52057  -0.51729  -0.51597
 Alpha  occ. eigenvalues --   -0.51260  -0.50992  -0.50844  -0.50687  -0.50595
 Alpha  occ. eigenvalues --   -0.50118  -0.49824  -0.49629  -0.49419  -0.49116
 Alpha  occ. eigenvalues --   -0.48735  -0.48502  -0.48477  -0.48326  -0.47881
 Alpha  occ. eigenvalues --   -0.47496  -0.47100  -0.46986  -0.46762  -0.45807
 Alpha  occ. eigenvalues --   -0.45742  -0.45013  -0.44889  -0.44596  -0.44412
 Alpha  occ. eigenvalues --   -0.43668  -0.43647  -0.43492  -0.42742  -0.42706
 Alpha  occ. eigenvalues --   -0.42694  -0.42017  -0.41525  -0.41169  -0.40439
 Alpha  occ. eigenvalues --   -0.40419  -0.39612  -0.39156  -0.38954  -0.38719
 Alpha  occ. eigenvalues --   -0.38250  -0.38052  -0.38016  -0.37505  -0.37021
 Alpha  occ. eigenvalues --   -0.36123  -0.35806  -0.34814  -0.34240  -0.33795
 Alpha  occ. eigenvalues --   -0.33679  -0.32007  -0.30150  -0.28582  -0.28090
 Alpha virt. eigenvalues --   -0.16464  -0.11570  -0.11140  -0.08422  -0.07155
 Alpha virt. eigenvalues --   -0.06824  -0.05868  -0.05526  -0.04453  -0.03245
 Alpha virt. eigenvalues --   -0.02148  -0.01281  -0.01110  -0.00271   0.00281

 Mulliken charges:
               1
     1  N   -0.718413
     2  H    0.329673
     3  H    0.317506
     4  C   -0.094657
     5  H    0.156296
     6  C    0.599129
     7  C   -0.350800
     8  H    0.177030
     9  H    0.160926
    10  O   -0.522108
    11  C    0.573189
    12  N   -0.747967
    13  H    0.338216
    14  H    0.375506
    15  O   -0.509258
    16  N   -0.616137
    17  H    0.355056
    18  C   -0.057718
    19  H    0.190550
    20  C    0.636744
    21  C   -0.074775
    22  H    0.174768
    23  O   -0.548713
    24  C   -0.273192
    25  H    0.113630
    26  H    0.161939
    27  C   -0.462208
    28  H    0.125752
    29  H    0.166744
    30  H    0.162505
    31  C   -0.463534
    32  H    0.164565
    33  H    0.125433
    34  H    0.183288
    35  N   -0.608885
    36  H    0.364827
    37  C   -0.073171
    38  H    0.227589
    39  C    0.662236
    40  C   -0.478447
    41  H    0.192595
    42  H    0.193974
    43  H    0.181345
    44  O   -0.591906
    45  N   -0.572974
    46  H    0.434187
    47  C   -0.058536
    48  H    0.187824
    49  C    0.575741
    50  C    0.092795
    51  H    0.161644
    52  O   -0.536082
    53  C   -0.477143
    54  H    0.156930
    55  H    0.198461
    56  H    0.180525
    57  O   -0.614559
    58  H    0.422813
    59  N   -0.617434
    60  H    0.375678
    61  C   -0.045643
    62  H    0.205538
    63  C    0.630319
    64  C   -0.074283
    65  H    0.201699
    66  H    0.178741
    67  O   -0.528893
    68  O   -0.645713
    69  H    0.434710
    70  N   -0.631096
    71  H    0.364821
    72  C   -0.199447
    73  H    0.199256
    74  H    0.204075
    75  C    0.613918
    76  O   -0.534691
    77  N   -0.623486
    78  H    0.358813
    79  C   -0.029891
    80  H    0.197954
    81  C    0.584047
    82  C   -0.270379
    83  H    0.164189
    84  H    0.145288
    85  O   -0.469207
    86  C   -0.259729
    87  H    0.180150
    88  H    0.135356
    89  C   -0.255279
    90  H    0.126664
    91  H    0.130659
    92  C   -0.142279
    93  H    0.142390
    94  H    0.122304
    95  N   -0.715783
    96  H    0.295486
    97  H    0.304604
    98  O   -0.546871
    99  H    0.426448
   100  H    0.496247
 Sum of Mulliken charges =   1.00000

 Dipole moment (field-independent basis, Debye):
    X=             12.1803    Y=             12.8832    Z=             -7.6551  Tot=             19.3115
 Quadrupole moment (field-independent basis, Debye-Ang):
   XX=           -132.0254   YY=           -249.8692   ZZ=           -183.7715
   XY=             -4.0313   XZ=           -105.5724   YZ=            -27.3698

 Normal termination of Gaussian 16 at Fri May 27 02:49:53 2022.
