 Gaussian 16, Revision C.01,
 Gaussian 16:  ES64L-G16RevC.01  3-Jul-2019

 -------------------------------------------------------------------
 # B3LYP/6-31G* guess=read geom=check nosymm integral(ultrafinegrid)
 -------------------------------------------------------------------

 -----------------------------------------------------
 Candidate Structure: Conf:84 Charge calc in gas phase
 -----------------------------------------------------
 Structure from the checkpoint file:  "conf-84.chk"
 Charge =  1 Multiplicity = 1

                          Input orientation:
 ---------------------------------------------------------------------
 Center     Atomic      Atomic             Coordinates (Angstroms)
 Number     Number       Type             X           Y           Z
 ---------------------------------------------------------------------
      1          7           0       -7.388849   -0.105427    2.217311
      2          1           0       -8.271562   -0.122267    1.711046
      3          1           0       -7.554184   -0.564596    3.112392
      4          6           0       -6.939579    1.275781    2.415029
      5          1           0       -6.990887    1.776607    1.439576
      6          6           0       -5.451335    1.292817    2.787078
      7          6           0       -7.742445    2.156585    3.383537
      8          1           0       -8.812101    2.009133    3.184639
      9          1           0       -7.558136    1.873099    4.425981
     10          8           0       -4.966833    2.166678    3.517178
     11          6           0       -7.434877    3.639357    3.144661
     12          7           0       -7.593213    4.453336    4.224018
     13          1           0       -7.339327    5.426254    4.115308
     14          1           0       -7.636662    4.083175    5.161866
     15          8           0       -7.144082    4.065605    2.032004
     16          7           0       -4.709086    0.326667    2.198168
     17          1           0       -5.218233   -0.353623    1.643142
     18          6           0       -3.251984    0.262071    2.325117
     19          1           0       -3.012362    0.603076    3.338680
     20          6           0       -2.658375    1.289723    1.330740
     21          6           0       -2.711963   -1.164832    2.111417
     22          1           0       -2.880592   -1.416916    1.055647
     23          8           0       -2.135289    0.965004    0.255303
     24          6           0       -3.457686   -2.215507    2.968446
     25          1           0       -3.035127   -3.197087    2.717281
     26          1           0       -4.510579   -2.260263    2.663050
     27          6           0       -1.193120   -1.205727    2.354244
     28          1           0       -0.933389   -0.872166    3.365881
     29          1           0       -0.821051   -2.229808    2.239335
     30          1           0       -0.662866   -0.574509    1.636484
     31          6           0       -3.391732   -2.013759    4.487950
     32          1           0       -3.922749   -2.822961    5.000692
     33          1           0       -2.361192   -2.015418    4.859029
     34          1           0       -3.858072   -1.071106    4.797293
     35          7           0       -2.799690    2.581907    1.717251
     36          1           0       -3.368440    2.743108    2.551952
     37          6           0       -2.675432    3.702534    0.772888
     38          1           0       -3.018572    3.344527   -0.207100
     39          6           0       -1.194694    4.112795    0.607368
     40          6           0       -3.531631    4.877648    1.237169
     41          1           0       -3.472067    5.695050    0.514490
     42          1           0       -4.577221    4.571232    1.339588
     43          1           0       -3.174326    5.261361    2.197388
     44          8           0       -0.777439    5.230000    0.917374
     45          7           0       -0.402670    3.145685    0.065400
     46          1           0       -0.827094    2.218388   -0.074773
     47          6           0        1.000480    3.368820   -0.227882
     48          1           0        1.121465    4.264669   -0.851836
     49          6           0        1.497029    2.167723   -0.971106
     50          6           0        1.888224    3.683019    1.089520
     51          1           0        1.360544    3.133472    1.884560
     52          8           0        1.154780    1.027790   -0.881119
     53          6           0        3.341637    3.223762    1.036588
     54          1           0        3.450296    2.145144    0.878978
     55          1           0        3.809050    3.468947    1.993867
     56          1           0        3.903196    3.777744    0.273232
     57          8           0        1.908271    5.058506    1.299994
     58          1           0        0.973650    5.367930    1.317932
     59          7           0        2.639240    2.479185   -1.967199
     60          1           0        3.534660    2.555727   -1.424346
     61          6           0        2.916994    1.401533   -2.969938
     62          1           0        1.996505    0.831608   -3.112454
     63          6           0        4.043412    0.558946   -2.338984
     64          6           0        3.370786    2.113646   -4.276681
     65          1           0        3.314599    1.411631   -5.114846
     66          1           0        4.409218    2.444373   -4.190057
     67          8           0        4.726358    1.081181   -1.457563
     68          8           0        2.575644    3.273272   -4.484413
     69          1           0        1.814039    3.061625   -5.047147
     70          7           0        4.250379   -0.673727   -2.836540
     71          1           0        3.583559   -1.061201   -3.491719
     72          6           0        5.325648   -1.534010   -2.328722
     73          1           0        5.375217   -1.443905   -1.241647
     74          1           0        5.075794   -2.569413   -2.572393
     75          6           0        6.741509   -1.228747   -2.860162
     76          8           0        7.706239   -1.732074   -2.307902
     77          7           0        6.803724   -0.422864   -3.948466
     78          1           0        5.968362    0.024332   -4.298389
     79          6           0        8.054306    0.108507   -4.471716
     80          1           0        8.780241    0.152228   -3.652884
     81          6           0        7.742109    1.525234   -4.938006
     82          6           0        8.630919   -0.789441   -5.599012
     83          1           0        8.640037   -1.802963   -5.180168
     84          1           0        7.920542   -0.800014   -6.437342
     85          8           0        6.612802    1.940280   -5.144551
     86          6           0       10.035646   -0.419517   -6.088735
     87          1           0       10.040253    0.562064   -6.570416
     88          1           0       10.713064   -0.346425   -5.225816
     89          6           0       10.593973   -1.449920   -7.079235
     90          1           0        9.870121   -1.610740   -7.893319
     91          1           0       10.717922   -2.422525   -6.583621
     92          6           0       11.936965   -1.027796   -7.688195
     93          1           0       12.646192   -0.809602   -6.879602
     94          1           0       12.356488   -1.878677   -8.252485
     95          7           0       11.786217    0.195780   -8.488352
     96          1           0       11.314873   -0.027913   -9.364575
     97          1           0       12.703528    0.552803   -8.749734
     98          8           0        8.838130    2.269304   -5.112729
     99          1           0        8.556681    3.139958   -5.455121
    100          1           0        2.450053    3.350975   -2.491281
 ---------------------------------------------------------------------

 SCF Done:  E(RB3LYP) =  -2418.39838206     A.U. after    2 cycles

 Alpha  occ. eigenvalues --  -19.32364 -19.30607 -19.29324 -19.26968 -19.24143
 Alpha  occ. eigenvalues --  -19.22537 -19.21988 -19.20802 -19.19827 -19.19492
 Alpha  occ. eigenvalues --  -19.17081 -14.58593 -14.51123 -14.45809 -14.44819
 Alpha  occ. eigenvalues --  -14.43820 -14.43593 -14.41453 -14.40225 -14.36307
 Alpha  occ. eigenvalues --  -10.47644 -10.44051 -10.41952 -10.40094 -10.38926
 Alpha  occ. eigenvalues --  -10.38532 -10.37863 -10.37148 -10.36886 -10.36103
 Alpha  occ. eigenvalues --  -10.35505 -10.35055 -10.34042 -10.32427 -10.31792
 Alpha  occ. eigenvalues --  -10.30942 -10.29738 -10.28317 -10.26523 -10.26316
 Alpha  occ. eigenvalues --  -10.26212 -10.25787 -10.24906 -10.24607 -10.24236
 Alpha  occ. eigenvalues --  -10.23763 -10.23666 -10.23627  -1.24055  -1.20521
 Alpha  occ. eigenvalues --   -1.19355  -1.17783  -1.13945  -1.12436  -1.12261
 Alpha  occ. eigenvalues --   -1.12132  -1.11349  -1.11028  -1.10923  -1.08829
 Alpha  occ. eigenvalues --   -1.06855  -1.03050  -1.01473  -1.00785  -1.00027
 Alpha  occ. eigenvalues --   -0.96648  -0.96137  -0.92960  -0.92867  -0.89023
 Alpha  occ. eigenvalues --   -0.88001  -0.87702  -0.85150  -0.84665  -0.83419
 Alpha  occ. eigenvalues --   -0.82903  -0.81905  -0.80449  -0.79598  -0.77641
 Alpha  occ. eigenvalues --   -0.76129  -0.75977  -0.74182  -0.73511  -0.73102
 Alpha  occ. eigenvalues --   -0.72491  -0.71591  -0.71343  -0.70542  -0.68634
 Alpha  occ. eigenvalues --   -0.68084  -0.67534  -0.67126  -0.66462  -0.65882
 Alpha  occ. eigenvalues --   -0.65240  -0.64411  -0.64225  -0.63523  -0.63210
 Alpha  occ. eigenvalues --   -0.62963  -0.62467  -0.61827  -0.61134  -0.60382
 Alpha  occ. eigenvalues --   -0.59791  -0.59428  -0.59190  -0.59006  -0.58467
 Alpha  occ. eigenvalues --   -0.57916  -0.57512  -0.57038  -0.56920  -0.56486
 Alpha  occ. eigenvalues --   -0.56135  -0.56048  -0.55290  -0.55164  -0.54236
 Alpha  occ. eigenvalues --   -0.53963  -0.53888  -0.53571  -0.53225  -0.53082
 Alpha  occ. eigenvalues --   -0.52359  -0.51769  -0.51536  -0.51449  -0.51182
 Alpha  occ. eigenvalues --   -0.50560  -0.50298  -0.50201  -0.49632  -0.49220
 Alpha  occ. eigenvalues --   -0.49060  -0.48942  -0.48833  -0.48542  -0.48247
 Alpha  occ. eigenvalues --   -0.48233  -0.48034  -0.47433  -0.46693  -0.46364
 Alpha  occ. eigenvalues --   -0.46144  -0.45945  -0.45923  -0.45829  -0.45134
 Alpha  occ. eigenvalues --   -0.44972  -0.44628  -0.44477  -0.44310  -0.43786
 Alpha  occ. eigenvalues --   -0.43250  -0.43239  -0.43194  -0.43112  -0.42268
 Alpha  occ. eigenvalues --   -0.42078  -0.41880  -0.41651  -0.41183  -0.40872
 Alpha  occ. eigenvalues --   -0.39827  -0.39543  -0.39139  -0.39031  -0.38706
 Alpha  occ. eigenvalues --   -0.38590  -0.37691  -0.36968  -0.36603  -0.35851
 Alpha  occ. eigenvalues --   -0.34858  -0.34420  -0.34029  -0.33582  -0.33253
 Alpha  occ. eigenvalues --   -0.32693  -0.32458  -0.31863  -0.30698  -0.28515
 Alpha virt. eigenvalues --   -0.18271  -0.12886  -0.08963  -0.08472  -0.08177
 Alpha virt. eigenvalues --   -0.07214  -0.07039  -0.05726  -0.05148  -0.04879
 Alpha virt. eigenvalues --   -0.03755  -0.03090  -0.01503  -0.01212  -0.00556

 Mulliken charges:
               1
     1  N   -0.745282
     2  H    0.322744
     3  H    0.314051
     4  C   -0.082051
     5  H    0.206336
     6  C    0.634160
     7  C   -0.369592
     8  H    0.175458
     9  H    0.151976
    10  O   -0.560609
    11  C    0.633107
    12  N   -0.744057
    13  H    0.346801
    14  H    0.342068
    15  O   -0.522318
    16  N   -0.608959
    17  H    0.365627
    18  C   -0.041199
    19  H    0.179859
    20  C    0.627152
    21  C   -0.096992
    22  H    0.146496
    23  O   -0.562491
    24  C   -0.262054
    25  H    0.144419
    26  H    0.134871
    27  C   -0.471160
    28  H    0.147983
    29  H    0.152252
    30  H    0.159105
    31  C   -0.459399
    32  H    0.156803
    33  H    0.153594
    34  H    0.151357
    35  N   -0.616389
    36  H    0.392875
    37  C   -0.064225
    38  H    0.180220
    39  C    0.642129
    40  C   -0.485821
    41  H    0.172482
    42  H    0.203213
    43  H    0.172106
    44  O   -0.538328
    45  N   -0.666934
    46  H    0.409660
    47  C   -0.040600
    48  H    0.188508
    49  C    0.545613
    50  C    0.163963
    51  H    0.161069
    52  O   -0.364773
    53  C   -0.505821
    54  H    0.164147
    55  H    0.211919
    56  H    0.155950
    57  O   -0.624692
    58  H    0.444416
    59  N   -0.723022
    60  H    0.435611
    61  C   -0.114518
    62  H    0.214506
    63  C    0.647144
    64  C   -0.084285
    65  H    0.184909
    66  H    0.235060
    67  O   -0.506301
    68  O   -0.607954
    69  H    0.428081
    70  N   -0.614815
    71  H    0.356907
    72  C   -0.240097
    73  H    0.229646
    74  H    0.206212
    75  C    0.617095
    76  O   -0.492876
    77  N   -0.609916
    78  H    0.333258
    79  C   -0.042142
    80  H    0.208824
    81  C    0.593652
    82  C   -0.265298
    83  H    0.172540
    84  H    0.136192
    85  O   -0.500935
    86  C   -0.260958
    87  H    0.176529
    88  H    0.139110
    89  C   -0.255272
    90  H    0.124770
    91  H    0.137811
    92  C   -0.144626
    93  H    0.144425
    94  H    0.126135
    95  N   -0.717999
    96  H    0.294776
    97  H    0.305127
    98  O   -0.534036
    99  H    0.425850
   100  H    0.420135
 Sum of Mulliken charges =   1.00000

 Dipole moment (field-independent basis, Debye):
    X=              4.4286    Y=              4.1862    Z=            -10.7696  Tot=             12.3742
 Quadrupole moment (field-independent basis, Debye-Ang):
   XX=           -130.5629   YY=           -269.3408   ZZ=           -162.1534
   XY=             10.2209   XZ=           -133.0477   YZ=             -5.0083

 Normal termination of Gaussian 16 at Fri May 27 02:50:11 2022.
