 Gaussian 16, Revision C.01,
 Gaussian 16:  ES64L-G16RevC.01  3-Jul-2019

 -------------------------------------------------------------------
 # B3LYP/6-31G* guess=read geom=check nosymm integral(ultrafinegrid)
 -------------------------------------------------------------------

 ------------------------------------------------------
 Candidate Structure: Conf:883 Charge calc in gas phase
 ------------------------------------------------------
 Structure from the checkpoint file:  "conf-883.chk"
 Charge =  1 Multiplicity = 1

                          Input orientation:
 ---------------------------------------------------------------------
 Center     Atomic      Atomic             Coordinates (Angstroms)
 Number     Number       Type             X           Y           Z
 ---------------------------------------------------------------------
      1          7           0       -7.694389    2.869827    1.479072
      2          1           0       -8.651017    2.671434    1.200085
      3          1           0       -7.143833    3.104041    0.656755
      4          6           0       -7.095586    1.745394    2.176948
      5          1           0       -7.456436    1.741036    3.212054
      6          6           0       -5.573399    1.994722    2.204709
      7          6           0       -7.419181    0.344635    1.571953
      8          1           0       -8.436477    0.377602    1.161234
      9          1           0       -6.757103    0.125619    0.722646
     10          8           0       -5.034218    2.730155    1.364885
     11          6           0       -7.334064   -0.803757    2.579089
     12          7           0       -7.992975   -1.937295    2.228917
     13          1           0       -7.990468   -2.713342    2.877565
     14          1           0       -8.587170   -1.993174    1.415440
     15          8           0       -6.709215   -0.727252    3.638127
     16          7           0       -4.889363    1.364570    3.184743
     17          1           0       -5.386436    0.631637    3.696212
     18          6           0       -3.463306    1.598267    3.416907
     19          1           0       -3.286354    2.656232    3.194024
     20          6           0       -2.658799    0.768523    2.389820
     21          6           0       -3.043963    1.304482    4.872108
     22          1           0       -3.045045    0.213299    4.993157
     23          8           0       -2.160322   -0.340163    2.650505
     24          6           0       -4.030551    1.886055    5.912501
     25          1           0       -3.653840    1.601556    6.903536
     26          1           0       -5.003162    1.389167    5.813924
     27          6           0       -1.608959    1.805936    5.113303
     28          1           0       -1.537872    2.892577    4.987728
     29          1           0       -1.295689    1.570844    6.136077
     30          1           0       -0.883194    1.343348    4.438383
     31          6           0       -4.240476    3.405246    5.871119
     32          1           0       -4.937516    3.710911    6.658636
     33          1           0       -3.307272    3.955494    6.032495
     34          1           0       -4.666048    3.735208    4.916432
     35          7           0       -2.579649    1.345341    1.165686
     36          1           0       -3.210884    2.139981    1.023150
     37          6           0       -2.107883    0.642712   -0.034707
     38          1           0       -2.470639   -0.393160    0.012475
     39          6           0       -0.560725    0.584182   -0.033027
     40          6           0       -2.648080    1.333811   -1.282829
     41          1           0       -2.367885    0.778977   -2.182826
     42          1           0       -3.739489    1.388048   -1.235299
     43          1           0       -2.247374    2.347363   -1.370569
     44          8           0        0.135345    1.274627   -0.807856
     45          7           0       -0.056442   -0.270751    0.870177
     46          1           0       -0.757571   -0.650253    1.515761
     47          6           0        1.351806   -0.376338    1.278798
     48          1           0        1.748489    0.634694    1.436080
     49          6           0        2.133957   -1.066218    0.142258
     50          6           0        1.433226   -1.148646    2.620134
     51          1           0        1.060179   -2.167452    2.445329
     52          8           0        2.354458   -2.262885    0.082146
     53          6           0        2.863675   -1.214985    3.142456
     54          1           0        3.517428   -1.750732    2.449217
     55          1           0        2.867978   -1.739468    4.101334
     56          1           0        3.256782   -0.205762    3.309829
     57          8           0        0.657904   -0.480571    3.605104
     58          1           0       -0.285276   -0.705614    3.519607
     59          7           0        2.533913   -0.172907   -0.841717
     60          1           0        2.005569    0.701102   -0.819597
     61          6           0        2.829665   -0.687547   -2.171927
     62          1           0        3.163648   -1.722608   -2.049390
     63          6           0        3.948269    0.161771   -2.753541
     64          6           0        1.589778   -0.633698   -3.093343
     65          1           0        0.789390   -1.231865   -2.648058
     66          1           0        1.818279   -1.042038   -4.082618
     67          8           0        3.660999    1.277154   -3.361308
     68          8           0        1.171699    0.724611   -3.291729
     69          1           0        0.636412    1.016379   -2.512068
     70          7           0        5.197835   -0.179356   -2.633216
     71          1           0        5.487682   -1.041151   -2.149553
     72          6           0        6.349945    0.592682   -3.086021
     73          1           0        6.317186    0.724412   -4.172712
     74          1           0        6.349027    1.585013   -2.622191
     75          6           0        7.580974   -0.234897   -2.653454
     76          8           0        7.406198   -1.302422   -2.063196
     77          7           0        8.771635    0.289339   -2.968477
     78          1           0        8.853180    1.216938   -3.376637
     79          6           0       10.041081   -0.316475   -2.563916
     80          1           0        9.947794   -0.660075   -1.527483
     81          6           0       11.071162    0.806506   -2.612394
     82          6           0       10.458031   -1.521522   -3.440273
     83          1           0       11.361513   -1.950961   -2.992579
     84          1           0        9.668496   -2.275663   -3.346116
     85          8           0       10.849743    1.909416   -3.069440
     86          6           0       10.713290   -1.189384   -4.915422
     87          1           0        9.813019   -0.735526   -5.355765
     88          1           0       11.516036   -0.443721   -4.991048
     89          6           0       11.114927   -2.428213   -5.726425
     90          1           0       10.323342   -3.187673   -5.652926
     91          1           0       12.023675   -2.863199   -5.291742
     92          6           0       11.383622   -2.135352   -7.207697
     93          1           0       11.667429   -3.073759   -7.697035
     94          1           0       10.445613   -1.802874   -7.690311
     95          7           0       12.497648   -1.192439   -7.371840
     96          1           0       12.169357   -0.234278   -7.269364
     97          1           0       12.871246   -1.256914   -8.316274
     98          8           0       12.250294    0.420498   -2.109434
     99          1           0       12.869463    1.170938   -2.197334
    100          1           0        2.644170    1.354912   -3.421131
 ---------------------------------------------------------------------

 SCF Done:  E(RB3LYP) =  -2418.44279523     A.U. after    1 cycles

 Alpha  occ. eigenvalues --  -19.34489 -19.29248 -19.29174 -19.24085 -19.24078
 Alpha  occ. eigenvalues --  -19.23874 -19.23264 -19.21883 -19.21748 -19.20009
 Alpha  occ. eigenvalues --  -19.19682 -14.53680 -14.47472 -14.47306 -14.46497
 Alpha  occ. eigenvalues --  -14.44902 -14.43876 -14.42939 -14.37382 -14.36761
 Alpha  occ. eigenvalues --  -10.47281 -10.41841 -10.41422 -10.40211 -10.39980
 Alpha  occ. eigenvalues --  -10.38020 -10.37841 -10.37583 -10.37298 -10.37146
 Alpha  occ. eigenvalues --  -10.36205 -10.33652 -10.33546 -10.33203 -10.32489
 Alpha  occ. eigenvalues --  -10.30701 -10.29736 -10.27948 -10.27355 -10.27090
 Alpha  occ. eigenvalues --  -10.26506 -10.25695 -10.25610 -10.24770 -10.24160
 Alpha  occ. eigenvalues --  -10.23824 -10.23174 -10.22542  -1.25293  -1.20358
 Alpha  occ. eigenvalues --   -1.16386  -1.16146  -1.15162  -1.14615  -1.13010
 Alpha  occ. eigenvalues --   -1.11669  -1.11551  -1.10986  -1.10473  -1.09505
 Alpha  occ. eigenvalues --   -1.04584  -1.04117  -1.03124  -1.01546  -0.99709
 Alpha  occ. eigenvalues --   -0.98553  -0.95201  -0.93514  -0.91998  -0.89551
 Alpha  occ. eigenvalues --   -0.88180  -0.87299  -0.86550  -0.85439  -0.83384
 Alpha  occ. eigenvalues --   -0.83303  -0.80268  -0.80049  -0.79030  -0.78342
 Alpha  occ. eigenvalues --   -0.77033  -0.76789  -0.74327  -0.73044  -0.72482
 Alpha  occ. eigenvalues --   -0.71362  -0.71074  -0.70085  -0.69880  -0.68894
 Alpha  occ. eigenvalues --   -0.68044  -0.67488  -0.67109  -0.66987  -0.66446
 Alpha  occ. eigenvalues --   -0.64885  -0.64327  -0.64171  -0.63873  -0.62997
 Alpha  occ. eigenvalues --   -0.62446  -0.62030  -0.61505  -0.61350  -0.60669
 Alpha  occ. eigenvalues --   -0.60504  -0.59353  -0.59224  -0.59089  -0.58724
 Alpha  occ. eigenvalues --   -0.58102  -0.57443  -0.57261  -0.56978  -0.56555
 Alpha  occ. eigenvalues --   -0.56421  -0.55656  -0.55531  -0.55192  -0.54893
 Alpha  occ. eigenvalues --   -0.54153  -0.53841  -0.53685  -0.53113  -0.52518
 Alpha  occ. eigenvalues --   -0.52338  -0.51909  -0.51866  -0.51402  -0.51202
 Alpha  occ. eigenvalues --   -0.50919  -0.50810  -0.50631  -0.49834  -0.49694
 Alpha  occ. eigenvalues --   -0.49331  -0.48742  -0.48739  -0.48588  -0.48402
 Alpha  occ. eigenvalues --   -0.48040  -0.47738  -0.47633  -0.47032  -0.46763
 Alpha  occ. eigenvalues --   -0.46324  -0.46230  -0.45832  -0.45774  -0.45415
 Alpha  occ. eigenvalues --   -0.45239  -0.44701  -0.44422  -0.44129  -0.43995
 Alpha  occ. eigenvalues --   -0.43878  -0.43824  -0.43519  -0.43174  -0.42732
 Alpha  occ. eigenvalues --   -0.41927  -0.41386  -0.40389  -0.40320  -0.40209
 Alpha  occ. eigenvalues --   -0.39447  -0.39224  -0.38856  -0.38614  -0.38539
 Alpha  occ. eigenvalues --   -0.38115  -0.38056  -0.37407  -0.37321  -0.36741
 Alpha  occ. eigenvalues --   -0.36560  -0.35522  -0.35128  -0.34909  -0.34298
 Alpha  occ. eigenvalues --   -0.34060  -0.33284  -0.32320  -0.29371  -0.29028
 Alpha virt. eigenvalues --   -0.16333  -0.10346  -0.09549  -0.09265  -0.08325
 Alpha virt. eigenvalues --   -0.07814  -0.05954  -0.05045  -0.04372  -0.02356
 Alpha virt. eigenvalues --   -0.01474  -0.00960  -0.00457   0.00015   0.00367

 Mulliken charges:
               1
     1  N   -0.715405
     2  H    0.300136
     3  H    0.320240
     4  C   -0.046109
     5  H    0.178388
     6  C    0.610750
     7  C   -0.396905
     8  H    0.161144
     9  H    0.178500
    10  O   -0.559222
    11  C    0.618161
    12  N   -0.738853
    13  H    0.358564
    14  H    0.349500
    15  O   -0.522765
    16  N   -0.629010
    17  H    0.400068
    18  C   -0.043071
    19  H    0.179285
    20  C    0.635392
    21  C   -0.106117
    22  H    0.153096
    23  O   -0.573581
    24  C   -0.263647
    25  H    0.146373
    26  H    0.142702
    27  C   -0.481470
    28  H    0.148661
    29  H    0.160865
    30  H    0.164288
    31  C   -0.459735
    32  H    0.158189
    33  H    0.151599
    34  H    0.153366
    35  N   -0.611608
    36  H    0.394582
    37  C   -0.055226
    38  H    0.180666
    39  C    0.637518
    40  C   -0.478961
    41  H    0.160522
    42  H    0.178149
    43  H    0.186398
    44  O   -0.592937
    45  N   -0.619416
    46  H    0.386739
    47  C   -0.047907
    48  H    0.181497
    49  C    0.619006
    50  C    0.100151
    51  H    0.156273
    52  O   -0.490802
    53  C   -0.465006
    54  H    0.164907
    55  H    0.181444
    56  H    0.156566
    57  O   -0.639606
    58  H    0.430235
    59  N   -0.612051
    60  H    0.362472
    61  C   -0.110124
    62  H    0.224986
    63  C    0.668901
    64  C   -0.080800
    65  H    0.196445
    66  H    0.192543
    67  O   -0.564982
    68  O   -0.667456
    69  H    0.465488
    70  N   -0.576783
    71  H    0.408119
    72  C   -0.225967
    73  H    0.226292
    74  H    0.227012
    75  C    0.624850
    76  O   -0.521881
    77  N   -0.616823
    78  H    0.365442
    79  C   -0.044384
    80  H    0.206896
    81  C    0.594115
    82  C   -0.274138
    83  H    0.177166
    84  H    0.172652
    85  O   -0.470234
    86  C   -0.280467
    87  H    0.121007
    88  H    0.154793
    89  C   -0.234461
    90  H    0.127490
    91  H    0.153434
    92  C   -0.149542
    93  H    0.150421
    94  H    0.112569
    95  N   -0.716081
    96  H    0.295935
    97  H    0.307931
    98  O   -0.552226
    99  H    0.432733
   100  H    0.482147
 Sum of Mulliken charges =   1.00000

 Dipole moment (field-independent basis, Debye):
    X=              8.9271    Y=             -1.0596    Z=            -10.4558  Tot=             13.7891
 Quadrupole moment (field-independent basis, Debye-Ang):
   XX=            -27.1814   YY=           -288.9129   ZZ=           -225.0022
   XY=             33.2316   XZ=            -82.4533   YZ=              2.4488

 Normal termination of Gaussian 16 at Fri May 27 02:49:53 2022.
