 Gaussian 16, Revision C.01,
 Gaussian 16:  ES64L-G16RevC.01  3-Jul-2019

 -------------------------------------------------------------------
 # B3LYP/6-31G* guess=read geom=check nosymm integral(ultrafinegrid)
 -------------------------------------------------------------------

 ------------------------------------------------------
 Candidate Structure: Conf:669 Charge calc in gas phase
 ------------------------------------------------------
 Structure from the checkpoint file:  "conf-669.chk"
 Charge =  1 Multiplicity = 1

                          Input orientation:
 ---------------------------------------------------------------------
 Center     Atomic      Atomic             Coordinates (Angstroms)
 Number     Number       Type             X           Y           Z
 ---------------------------------------------------------------------
      1          7           0       -1.983971    1.704294   -3.314228
      2          1           0       -1.409457    0.864815   -3.234732
      3          1           0       -1.343895    2.495008   -3.347746
      4          6           0       -2.878722    1.839338   -2.173439
      5          1           0       -3.457944    2.759023   -2.319251
      6          6           0       -2.144878    1.991493   -0.812516
      7          6           0       -3.871838    0.647354   -2.179983
      8          1           0       -3.929412    0.289094   -3.212933
      9          1           0       -3.490872   -0.184128   -1.571062
     10          8           0       -0.894063    1.933786   -0.741913
     11          6           0       -5.267508    0.999577   -1.669901
     12          7           0       -6.284146    0.280482   -2.198564
     13          1           0       -7.225491    0.473105   -1.882163
     14          1           0       -6.154702   -0.375149   -2.954241
     15          8           0       -5.464295    1.866920   -0.815518
     16          7           0       -2.905189    2.198389    0.264055
     17          1           0       -3.920040    2.213749    0.109970
     18          6           0       -2.375713    2.418769    1.620806
     19          1           0       -1.396323    2.888570    1.479463
     20          6           0       -2.106274    1.062265    2.334394
     21          6           0       -3.286122    3.400114    2.397529
     22          1           0       -3.367564    4.277495    1.737529
     23          8           0       -2.585530    0.746859    3.417246
     24          6           0       -2.643469    3.884805    3.716645
     25          1           0       -2.544740    3.036783    4.401593
     26          1           0       -3.357076    4.576840    4.181813
     27          6           0       -4.708163    2.865544    2.648658
     28          1           0       -4.687007    2.006543    3.322881
     29          1           0       -5.315852    3.651232    3.110844
     30          1           0       -5.221733    2.569706    1.726799
     31          6           0       -1.296280    4.602556    3.566960
     32          1           0       -0.976838    5.021271    4.527345
     33          1           0       -0.496511    3.930646    3.231915
     34          1           0       -1.358948    5.431709    2.850557
     35          7           0       -1.263577    0.246245    1.636442
     36          1           0       -0.746309    0.643071    0.857802
     37          6           0       -0.811440   -1.033625    2.161920
     38          1           0       -0.430862   -0.883979    3.184559
     39          6           0        0.380664   -1.466439    1.294575
     40          6           0       -1.949003   -2.066685    2.221503
     41          1           0       -1.646110   -2.966558    2.769605
     42          1           0       -2.787033   -1.626947    2.764520
     43          1           0       -2.277856   -2.350399    1.216245
     44          8           0        1.088817   -0.631886    0.712581
     45          7           0        0.642315   -2.789880    1.216842
     46          1           0       -0.069486   -3.456709    1.490470
     47          6           0        1.596139   -3.287302    0.247912
     48          1           0        2.520890   -2.709240    0.339262
     49          6           0        1.039985   -3.088419   -1.182332
     50          6           0        1.909152   -4.770475    0.543041
     51          1           0        2.501171   -5.157681   -0.301078
     52          8           0       -0.169569   -2.970297   -1.403077
     53          6           0        2.699849   -4.958205    1.837450
     54          1           0        3.681013   -4.475149    1.774040
     55          1           0        2.871458   -6.025185    2.022671
     56          1           0        2.159813   -4.542018    2.693013
     57          8           0        0.638180   -5.414840    0.589788
     58          1           0        0.764665   -6.330592    0.883523
     59          7           0        1.979818   -3.022561   -2.150430
     60          1           0        2.971739   -3.105429   -1.931965
     61          6           0        1.714503   -3.118187   -3.579560
     62          1           0        1.103674   -4.008914   -3.772377
     63          6           0        3.106486   -3.257751   -4.228997
     64          6           0        0.993544   -1.863784   -4.201654
     65          1           0        0.304330   -2.220951   -4.979732
     66          1           0        1.715918   -1.200009   -4.684416
     67          8           0        4.123141   -3.183216   -3.540959
     68          8           0        0.296204   -1.076808   -3.247173
     69          1           0        1.327829    0.202799   -2.373851
     70          7           0        3.155390   -3.367928   -5.582973
     71          1           0        2.297058   -3.222460   -6.099781
     72          6           0        4.378555   -2.908555   -6.244150
     73          1           0        5.226173   -3.483061   -5.866729
     74          1           0        4.278289   -3.090254   -7.316976
     75          6           0        4.522120   -1.394398   -5.992602
     76          8           0        3.561274   -0.647066   -6.178622
     77          7           0        5.713359   -0.977102   -5.513787
     78          1           0        6.488924   -1.621542   -5.408911
     79          6           0        6.010297    0.420084   -5.241609
     80          1           0        5.451980    1.036564   -5.953732
     81          6           0        7.505992    0.608011   -5.485262
     82          6           0        5.659468    0.875534   -3.798957
     83          1           0        6.192427    0.229549   -3.088904
     84          1           0        6.064033    1.887559   -3.675992
     85          8           0        8.298576   -0.302933   -5.583212
     86          6           0        4.155705    0.894961   -3.472755
     87          1           0        3.625386    1.439731   -4.264060
     88          1           0        3.765596   -0.128723   -3.484051
     89          6           0        3.881175    1.563238   -2.112606
     90          1           0        4.480416    2.480353   -2.040167
     91          1           0        4.217920    0.922044   -1.286161
     92          6           0        2.435067    2.003058   -1.873695
     93          1           0        2.373212    2.658678   -1.001225
     94          1           0        2.051125    2.558105   -2.734881
     95          7           0        1.460091    0.893989   -1.610028
     96          1           0        0.507136    1.298399   -1.433919
     97          1           0        1.669515    0.352923   -0.754212
     98          8           0        7.841981    1.908312   -5.543640
     99          1           0        8.809252    1.952096   -5.673600
    100          1           0       -0.172530   -1.699469   -2.639127
 ---------------------------------------------------------------------

 SCF Done:  E(RB3LYP) =  -2418.48695719     A.U. after    1 cycles

 Alpha  occ. eigenvalues --  -19.29010 -19.26298 -19.25103 -19.23794 -19.23515
 Alpha  occ. eigenvalues --  -19.23359 -19.23119 -19.22340 -19.21120 -19.20883
 Alpha  occ. eigenvalues --  -19.18819 -14.51598 -14.47360 -14.47252 -14.46407
 Alpha  occ. eigenvalues --  -14.45696 -14.45020 -14.44352 -14.42746 -14.40453
 Alpha  occ. eigenvalues --  -10.41527 -10.40530 -10.40223 -10.39735 -10.38755
 Alpha  occ. eigenvalues --  -10.38402 -10.38104 -10.35888 -10.35187 -10.35098
 Alpha  occ. eigenvalues --  -10.34833 -10.34698 -10.34249 -10.33472 -10.33065
 Alpha  occ. eigenvalues --  -10.32338 -10.31999 -10.30574 -10.29993 -10.29286
 Alpha  occ. eigenvalues --  -10.28906 -10.28641 -10.27520 -10.26123 -10.25619
 Alpha  occ. eigenvalues --  -10.23293 -10.23097 -10.22283  -1.20045  -1.16261
 Alpha  occ. eigenvalues --   -1.15454  -1.14483  -1.13330  -1.12886  -1.12852
 Alpha  occ. eigenvalues --   -1.12699  -1.12479  -1.11164  -1.10577  -1.07367
 Alpha  occ. eigenvalues --   -1.03797  -1.03359  -1.03094  -1.02149  -1.01205
 Alpha  occ. eigenvalues --   -0.99769  -0.99522  -0.97818  -0.90996  -0.89610
 Alpha  occ. eigenvalues --   -0.87865  -0.87453  -0.86846  -0.85032  -0.84858
 Alpha  occ. eigenvalues --   -0.82637  -0.81122  -0.80500  -0.79874  -0.77327
 Alpha  occ. eigenvalues --   -0.76477  -0.74902  -0.74561  -0.73607  -0.72282
 Alpha  occ. eigenvalues --   -0.71000  -0.70146  -0.69894  -0.69444  -0.69158
 Alpha  occ. eigenvalues --   -0.68608  -0.67957  -0.67862  -0.66835  -0.66305
 Alpha  occ. eigenvalues --   -0.65726  -0.65046  -0.64762  -0.63458  -0.63315
 Alpha  occ. eigenvalues --   -0.62790  -0.62187  -0.61739  -0.61300  -0.60444
 Alpha  occ. eigenvalues --   -0.60191  -0.60092  -0.59424  -0.58846  -0.58687
 Alpha  occ. eigenvalues --   -0.57539  -0.57390  -0.56849  -0.56716  -0.56354
 Alpha  occ. eigenvalues --   -0.56058  -0.55941  -0.55695  -0.55374  -0.55020
 Alpha  occ. eigenvalues --   -0.54576  -0.54227  -0.54116  -0.53603  -0.53219
 Alpha  occ. eigenvalues --   -0.52722  -0.52016  -0.51782  -0.51573  -0.51391
 Alpha  occ. eigenvalues --   -0.51024  -0.50600  -0.50387  -0.50219  -0.50130
 Alpha  occ. eigenvalues --   -0.50017  -0.49793  -0.49346  -0.49080  -0.48675
 Alpha  occ. eigenvalues --   -0.48403  -0.48327  -0.47751  -0.47712  -0.47425
 Alpha  occ. eigenvalues --   -0.47272  -0.47220  -0.46852  -0.46758  -0.46254
 Alpha  occ. eigenvalues --   -0.46081  -0.45996  -0.45516  -0.45413  -0.45255
 Alpha  occ. eigenvalues --   -0.44279  -0.44182  -0.43982  -0.43646  -0.43343
 Alpha  occ. eigenvalues --   -0.43108  -0.42014  -0.41047  -0.40800  -0.39627
 Alpha  occ. eigenvalues --   -0.39000  -0.38635  -0.38587  -0.38218  -0.38131
 Alpha  occ. eigenvalues --   -0.37674  -0.37242  -0.37174  -0.36952  -0.36620
 Alpha  occ. eigenvalues --   -0.36482  -0.36103  -0.36037  -0.35619  -0.35058
 Alpha  occ. eigenvalues --   -0.35027  -0.34299  -0.32985  -0.32763  -0.31164
 Alpha virt. eigenvalues --   -0.10248  -0.09452  -0.08749  -0.08528  -0.07830
 Alpha virt. eigenvalues --   -0.07309  -0.06846  -0.05021  -0.04920  -0.02862
 Alpha virt. eigenvalues --   -0.02654  -0.01823  -0.01105  -0.00923  -0.00767

 Mulliken charges:
               1
     1  N   -0.714726
     2  H    0.307113
     3  H    0.306164
     4  C   -0.066160
     5  H    0.193575
     6  C    0.582716
     7  C   -0.392111
     8  H    0.185938
     9  H    0.189382
    10  O   -0.603214
    11  C    0.627682
    12  N   -0.737290
    13  H    0.363855
    14  H    0.353990
    15  O   -0.521793
    16  N   -0.611342
    17  H    0.414081
    18  C   -0.077932
    19  H    0.179415
    20  C    0.629711
    21  C   -0.084573
    22  H    0.130881
    23  O   -0.514918
    24  C   -0.266511
    25  H    0.172986
    26  H    0.142725
    27  C   -0.492188
    28  H    0.185500
    29  H    0.152513
    30  H    0.158649
    31  C   -0.457196
    32  H    0.158356
    33  H    0.133751
    34  H    0.143053
    35  N   -0.644565
    36  H    0.367380
    37  C   -0.004922
    38  H    0.197880
    39  C    0.624069
    40  C   -0.488189
    41  H    0.150533
    42  H    0.212453
    43  H    0.164632
    44  O   -0.583799
    45  N   -0.597935
    46  H    0.374843
    47  C   -0.069733
    48  H    0.178987
    49  C    0.647620
    50  C    0.124184
    51  H    0.142114
    52  O   -0.556160
    53  C   -0.469934
    54  H    0.162759
    55  H    0.163634
    56  H    0.175475
    57  O   -0.629200
    58  H    0.413432
    59  N   -0.631067
    60  H    0.368081
    61  C   -0.072800
    62  H    0.200870
    63  C    0.601778
    64  C   -0.067398
    65  H    0.154103
    66  H    0.204474
    67  O   -0.524248
    68  O   -0.664382
    69  H    0.422189
    70  N   -0.567870
    71  H    0.350773
    72  C   -0.242852
    73  H    0.198323
    74  H    0.201849
    75  C    0.618383
    76  O   -0.536705
    77  N   -0.588569
    78  H    0.360469
    79  C   -0.042125
    80  H    0.203840
    81  C    0.584756
    82  C   -0.270663
    83  H    0.158144
    84  H    0.170939
    85  O   -0.455864
    86  C   -0.274785
    87  H    0.162170
    88  H    0.150763
    89  C   -0.281641
    90  H    0.172739
    91  H    0.159032
    92  C   -0.180031
    93  H    0.200881
    94  H    0.188958
    95  N   -0.824660
    96  H    0.431110
    97  H    0.422961
    98  O   -0.558959
    99  H    0.429817
   100  H    0.439578
 Sum of Mulliken charges =   1.00000

 Dipole moment (field-independent basis, Debye):
    X=              7.2340    Y=             -5.9842    Z=            -11.8737  Tot=             15.1369
 Quadrupole moment (field-independent basis, Debye-Ang):
   XX=           -188.0436   YY=           -219.3921   ZZ=           -225.5020
   XY=              1.4221   XZ=            -22.0204   YZ=              5.6753

 Normal termination of Gaussian 16 at Fri May 27 02:50:01 2022.
