 Gaussian 16, Revision C.01,
 Gaussian 16:  ES64L-G16RevC.01  3-Jul-2019

 -------------------------------------------------------------------
 # B3LYP/6-31G* guess=read geom=check nosymm integral(ultrafinegrid)
 -------------------------------------------------------------------

 ------------------------------------------------------
 Candidate Structure: Conf:879 Charge calc in gas phase
 ------------------------------------------------------
 Structure from the checkpoint file:  "conf-879.chk"
 Charge =  1 Multiplicity = 1

                          Input orientation:
 ---------------------------------------------------------------------
 Center     Atomic      Atomic             Coordinates (Angstroms)
 Number     Number       Type             X           Y           Z
 ---------------------------------------------------------------------
      1          7           0       -8.196075    2.669452    0.524955
      2          1           0       -9.054051    2.582707   -0.018440
      3          1           0       -8.464192    2.564942    1.504300
      4          6           0       -7.674454    4.020208    0.296779
      5          1           0       -7.604371    4.137245   -0.792949
      6          6           0       -6.232810    4.163353    0.820717
      7          6           0       -8.543518    5.170846    0.827761
      8          1           0       -8.743176    5.025128    1.899718
      9          1           0       -7.985527    6.110550    0.747264
     10          8           0       -5.714794    5.263798    1.016018
     11          6           0       -9.877483    5.269592    0.091679
     12          7           0      -10.611704    6.383662    0.379180
     13          1           0      -11.479200    6.523812   -0.120157
     14          1           0      -10.231431    7.154810    0.907169
     15          8           0      -10.284455    4.408328   -0.682413
     16          7           0       -5.586604    2.987168    1.005275
     17          1           0       -6.078014    2.127065    0.777271
     18          6           0       -4.186673    2.928835    1.382448
     19          1           0       -3.692930    3.792807    0.925792
     20          6           0       -3.620078    1.628714    0.801652
     21          6           0       -4.002141    3.036676    2.932284
     22          1           0       -4.567725    3.939918    3.196771
     23          8           0       -4.308908    0.618168    0.670728
     24          6           0       -2.541388    3.266033    3.371586
     25          1           0       -1.924376    2.401608    3.088428
     26          1           0       -2.532707    3.287376    4.469540
     27          6           0       -4.620918    1.844288    3.674589
     28          1           0       -4.070141    0.915850    3.484139
     29          1           0       -4.611942    2.024683    4.755597
     30          1           0       -5.658848    1.679480    3.369293
     31          6           0       -1.894930    4.559527    2.857405
     32          1           0       -0.911914    4.710614    3.317137
     33          1           0       -1.743036    4.557539    1.771218
     34          1           0       -2.515916    5.431394    3.092915
     35          7           0       -2.305112    1.655370    0.451632
     36          1           0       -1.732685    2.482341    0.573980
     37          6           0       -1.625122    0.472434   -0.038678
     38          1           0       -1.965055   -0.387996    0.550166
     39          6           0       -0.123630    0.685142    0.174323
     40          6           0       -1.937314    0.197830   -1.525350
     41          1           0       -1.440910   -0.713039   -1.879966
     42          1           0       -3.016421    0.069472   -1.635673
     43          1           0       -1.612488    1.039383   -2.146108
     44          8           0        0.359979    1.795791    0.369517
     45          7           0        0.639130   -0.452041    0.120404
     46          1           0        0.230463   -1.292449   -0.277057
     47          6           0        2.083238   -0.371548   -0.015145
     48          1           0        2.339055    0.647769   -0.331365
     49          6           0        2.492163   -1.384538   -1.091372
     50          6           0        2.831902   -0.678951    1.315530
     51          1           0        3.905649   -0.548714    1.128584
     52          8           0        1.707995   -2.201702   -1.563279
     53          6           0        2.414998    0.241465    2.458394
     54          1           0        2.554973    1.294717    2.198244
     55          1           0        3.008398    0.007801    3.347307
     56          1           0        1.356049    0.101537    2.701807
     57          8           0        2.692048   -2.054742    1.650192
     58          1           0        1.783967   -2.183489    1.971245
     59          7           0        3.796457   -1.338847   -1.500668
     60          1           0        4.461601   -0.683296   -1.108295
     61          6           0        4.323656   -2.375220   -2.355816
     62          1           0        3.836862   -3.324577   -2.108659
     63          6           0        5.834313   -2.456161   -2.184249
     64          6           0        4.032946   -2.046653   -3.840108
     65          1           0        4.366240   -1.026366   -4.059564
     66          1           0        2.956886   -2.132673   -4.006628
     67          8           0        6.528236   -1.481138   -1.928178
     68          8           0        4.743299   -2.995062   -4.678375
     69          1           0        4.322233   -3.020632   -5.553134
     70          7           0        6.390654   -3.673509   -2.485371
     71          1           0        5.796044   -4.448588   -2.746222
     72          6           0        7.806633   -3.752391   -2.724163
     73          1           0        8.367916   -3.370453   -1.865851
     74          1           0        8.089837   -4.798722   -2.880118
     75          6           0        8.213400   -2.952671   -3.961673
     76          8           0        7.369510   -2.644514   -4.896233
     77          7           0        9.460071   -2.608044   -4.118174
     78          1           0       10.154498   -2.860755   -3.410748
     79          6           0       10.040874   -1.879708   -5.263900
     80          1           0        9.598133   -2.262665   -6.187529
     81          6           0       11.527662   -2.241017   -5.207485
     82          6           0        9.782252   -0.354571   -5.137656
     83          1           0        8.713901   -0.235887   -4.929066
     84          1           0       10.320628    0.019558   -4.257722
     85          8           0       12.050643   -2.684677   -4.205926
     86          6           0       10.166252    0.456869   -6.385585
     87          1           0       11.231472    0.322606   -6.597513
     88          1           0        9.626601    0.060516   -7.257712
     89          6           0        9.874782    1.959356   -6.231964
     90          1           0       10.355040    2.484609   -7.068454
     91          1           0       10.342856    2.347765   -5.318792
     92          6           0        8.387807    2.332073   -6.215126
     93          1           0        7.911212    1.939732   -7.134934
     94          1           0        7.885193    1.841576   -5.370585
     95          7           0        8.241827    3.774297   -6.022566
     96          1           0        7.257740    4.026571   -5.956061
     97          1           0        8.609001    4.273369   -6.831817
     98          8           0       12.155156   -1.999399   -6.357545
     99          1           0       13.101802   -2.217180   -6.240270
    100          1           0        6.393363   -2.864523   -4.714712
 ---------------------------------------------------------------------

 SCF Done:  E(RB3LYP) =  -2418.41100550     A.U. after    2 cycles

 Alpha  occ. eigenvalues --  -19.37096 -19.33699 -19.32777 -19.28399 -19.26936
 Alpha  occ. eigenvalues --  -19.22467 -19.22353 -19.19595 -19.15861 -19.14626
 Alpha  occ. eigenvalues --  -19.13372 -14.55915 -14.51990 -14.47473 -14.43720
 Alpha  occ. eigenvalues --  -14.40761 -14.38942 -14.38709 -14.37685 -14.34514
 Alpha  occ. eigenvalues --  -10.50036 -10.46567 -10.43725 -10.40850 -10.39485
 Alpha  occ. eigenvalues --  -10.39477 -10.38026 -10.36937 -10.36347 -10.33010
 Alpha  occ. eigenvalues --  -10.32427 -10.32272 -10.31997 -10.31904 -10.30518
 Alpha  occ. eigenvalues --  -10.29689 -10.29168 -10.29054 -10.27011 -10.26379
 Alpha  occ. eigenvalues --  -10.25137 -10.24597 -10.24160 -10.22642 -10.22374
 Alpha  occ. eigenvalues --  -10.21882 -10.21137 -10.20381  -1.27570  -1.24944
 Alpha  occ. eigenvalues --   -1.19390  -1.18464  -1.16404  -1.14664  -1.12861
 Alpha  occ. eigenvalues --   -1.11476  -1.09899  -1.08469  -1.07914  -1.06332
 Alpha  occ. eigenvalues --   -1.05159  -1.04189  -1.00272  -0.97329  -0.95908
 Alpha  occ. eigenvalues --   -0.95309  -0.94841  -0.93553  -0.91637  -0.91497
 Alpha  occ. eigenvalues --   -0.89126  -0.86876  -0.85635  -0.84214  -0.82651
 Alpha  occ. eigenvalues --   -0.82244  -0.80108  -0.79936  -0.78681  -0.78512
 Alpha  occ. eigenvalues --   -0.77054  -0.76419  -0.74475  -0.74437  -0.73151
 Alpha  occ. eigenvalues --   -0.71861  -0.71650  -0.70528  -0.70369  -0.69406
 Alpha  occ. eigenvalues --   -0.68357  -0.67720  -0.67392  -0.66644  -0.66361
 Alpha  occ. eigenvalues --   -0.66057  -0.64514  -0.63553  -0.63319  -0.63028
 Alpha  occ. eigenvalues --   -0.62666  -0.62259  -0.61837  -0.61036  -0.60766
 Alpha  occ. eigenvalues --   -0.59814  -0.59256  -0.59214  -0.58262  -0.58027
 Alpha  occ. eigenvalues --   -0.57249  -0.57084  -0.56987  -0.56723  -0.56193
 Alpha  occ. eigenvalues --   -0.55769  -0.55659  -0.55423  -0.54361  -0.54076
 Alpha  occ. eigenvalues --   -0.53855  -0.53781  -0.53472  -0.52398  -0.52313
 Alpha  occ. eigenvalues --   -0.51975  -0.51484  -0.51317  -0.50668  -0.50605
 Alpha  occ. eigenvalues --   -0.50503  -0.50448  -0.50291  -0.49430  -0.49173
 Alpha  occ. eigenvalues --   -0.48876  -0.47813  -0.47672  -0.47496  -0.47001
 Alpha  occ. eigenvalues --   -0.46533  -0.46507  -0.46304  -0.46176  -0.45700
 Alpha  occ. eigenvalues --   -0.45553  -0.45110  -0.44906  -0.44338  -0.44310
 Alpha  occ. eigenvalues --   -0.43772  -0.43588  -0.43557  -0.43323  -0.43163
 Alpha  occ. eigenvalues --   -0.43049  -0.42624  -0.42269  -0.42096  -0.41830
 Alpha  occ. eigenvalues --   -0.41496  -0.41156  -0.40875  -0.40701  -0.40501
 Alpha  occ. eigenvalues --   -0.39940  -0.39458  -0.38780  -0.38027  -0.36990
 Alpha  occ. eigenvalues --   -0.36662  -0.36563  -0.35779  -0.35676  -0.35605
 Alpha  occ. eigenvalues --   -0.33393  -0.33056  -0.30954  -0.30260  -0.30110
 Alpha  occ. eigenvalues --   -0.29841  -0.29126  -0.27898  -0.27250  -0.26188
 Alpha virt. eigenvalues --   -0.18400  -0.13406  -0.13065  -0.08654  -0.08014
 Alpha virt. eigenvalues --   -0.05748  -0.05541  -0.05457  -0.04705  -0.02772
 Alpha virt. eigenvalues --   -0.02194  -0.01438  -0.01165  -0.00701  -0.00281

 Mulliken charges:
               1
     1  N   -0.746841
     2  H    0.338321
     3  H    0.295097
     4  C   -0.064039
     5  H    0.180913
     6  C    0.608967
     7  C   -0.384443
     8  H    0.162809
     9  H    0.188247
    10  O   -0.556131
    11  C    0.605137
    12  N   -0.748674
    13  H    0.344459
    14  H    0.340338
    15  O   -0.515974
    16  N   -0.619845
    17  H    0.373282
    18  C   -0.039181
    19  H    0.167633
    20  C    0.624963
    21  C   -0.074776
    22  H    0.157073
    23  O   -0.542790
    24  C   -0.265765
    25  H    0.124315
    26  H    0.139640
    27  C   -0.456048
    28  H    0.146498
    29  H    0.142223
    30  H    0.153512
    31  C   -0.452979
    32  H    0.145013
    33  H    0.137565
    34  H    0.164222
    35  N   -0.629336
    36  H    0.360308
    37  C   -0.032363
    38  H    0.180265
    39  C    0.604626
    40  C   -0.455772
    41  H    0.142382
    42  H    0.204083
    43  H    0.158023
    44  O   -0.522928
    45  N   -0.625377
    46  H    0.358494
    47  C   -0.084348
    48  H    0.187446
    49  C    0.644440
    50  C    0.136006
    51  H    0.130216
    52  O   -0.528516
    53  C   -0.464913
    54  H    0.173800
    55  H    0.169999
    56  H    0.159853
    57  O   -0.623075
    58  H    0.400875
    59  N   -0.630677
    60  H    0.361078
    61  C   -0.029919
    62  H    0.204465
    63  C    0.579932
    64  C   -0.061561
    65  H    0.179217
    66  H    0.214942
    67  O   -0.504686
    68  O   -0.666784
    69  H    0.443781
    70  N   -0.594467
    71  H    0.367611
    72  C   -0.233259
    73  H    0.243156
    74  H    0.237101
    75  C    0.648086
    76  O   -0.580814
    77  N   -0.563192
    78  H    0.399349
    79  C   -0.064192
    80  H    0.216885
    81  C    0.604619
    82  C   -0.276578
    83  H    0.176125
    84  H    0.174219
    85  O   -0.454019
    86  C   -0.278733
    87  H    0.166604
    88  H    0.143895
    89  C   -0.259350
    90  H    0.149945
    91  H    0.161236
    92  C   -0.132849
    93  H    0.113925
    94  H    0.129314
    95  N   -0.712695
    96  H    0.304805
    97  H    0.303941
    98  O   -0.538989
    99  H    0.444582
   100  H    0.497024
 Sum of Mulliken charges =   1.00000

 Dipole moment (field-independent basis, Debye):
    X=             36.7943    Y=            -10.9062    Z=            -20.8792  Tot=             43.6888
 Quadrupole moment (field-independent basis, Debye-Ang):
   XX=             60.1468   YY=           -218.6914   ZZ=           -150.0521
   XY=           -127.1070   XZ=           -206.4035   YZ=             53.9683

 Normal termination of Gaussian 16 at Fri May 27 02:50:07 2022.
