 Gaussian 16, Revision C.01,
 Gaussian 16:  ES64L-G16RevC.01  3-Jul-2019

 -------------------------------------------------------------------
 # B3LYP/6-31G* guess=read geom=check nosymm integral(ultrafinegrid)
 -------------------------------------------------------------------

 ------------------------------------------------------
 Candidate Structure: Conf:497 Charge calc in gas phase
 ------------------------------------------------------
 Structure from the checkpoint file:  "conf-497.chk"
 Charge =  1 Multiplicity = 1

                          Input orientation:
 ---------------------------------------------------------------------
 Center     Atomic      Atomic             Coordinates (Angstroms)
 Number     Number       Type             X           Y           Z
 ---------------------------------------------------------------------
      1          7           0       -5.746430   -2.320777    4.166116
      2          1           0       -6.001701   -1.680931    3.411830
      3          1           0       -5.968778   -1.808542    5.018892
      4          6           0       -4.302143   -2.526520    4.102460
      5          1           0       -3.959384   -2.868344    5.084285
      6          6           0       -3.550939   -1.217266    3.750184
      7          6           0       -3.998683   -3.650860    3.081550
      8          1           0       -4.873465   -4.310394    3.071295
      9          1           0       -3.903772   -3.243425    2.065195
     10          8           0       -4.163582   -0.264569    3.247886
     11          6           0       -2.745485   -4.458673    3.396134
     12          7           0       -2.677863   -5.679492    2.804145
     13          1           0       -1.898919   -6.281011    3.036174
     14          1           0       -3.474063   -6.091574    2.340370
     15          8           0       -1.837306   -4.041061    4.118093
     16          7           0       -2.229829   -1.177164    4.033493
     17          1           0       -1.766051   -2.048617    4.290827
     18          6           0       -1.438190    0.041600    3.839954
     19          1           0       -2.113502    0.878090    4.046838
     20          6           0       -1.041653    0.127022    2.349226
     21          6           0       -0.231525    0.104887    4.796191
     22          1           0        0.445037   -0.714615    4.526155
     23          8           0        0.036240   -0.297081    1.912114
     24          6           0       -0.641603   -0.129029    6.269199
     25          1           0        0.279238   -0.097916    6.866437
     26          1           0       -1.028521   -1.149098    6.377367
     27          6           0        0.517070    1.436618    4.621656
     28          1           0       -0.130140    2.301548    4.809920
     29          1           0        1.355401    1.492087    5.325111
     30          1           0        0.925454    1.536854    3.612345
     31          6           0       -1.656429    0.858404    6.860120
     32          1           0       -1.847845    0.623046    7.912986
     33          1           0       -1.297551    1.892727    6.818712
     34          1           0       -2.620449    0.818809    6.339209
     35          7           0       -1.991686    0.679844    1.560796
     36          1           0       -2.911190    0.799460    1.985444
     37          6           0       -1.891838    0.733692    0.106571
     38          1           0       -1.857845   -0.290098   -0.294456
     39          6           0       -0.602741    1.477569   -0.304376
     40          6           0       -3.111430    1.468104   -0.457836
     41          1           0       -3.085725    1.465579   -1.551729
     42          1           0       -4.037229    0.979639   -0.135739
     43          1           0       -3.112472    2.505387   -0.111577
     44          8           0       -0.377028    2.631419    0.025956
     45          7           0        0.230026    0.749796   -1.118397
     46          1           0        0.092548   -0.251589   -1.159027
     47          6           0        1.588627    1.167921   -1.365289
     48          1           0        1.612181    2.260315   -1.311574
     49          6           0        2.018401    0.688795   -2.739500
     50          6           0        2.583754    0.555247   -0.276953
     51          1           0        3.557694    0.378150   -0.746879
     52          8           0        1.484543   -0.250227   -3.335715
     53          6           0        2.765334    1.503478    0.908062
     54          1           0        3.236993    2.441231    0.590524
     55          1           0        3.409742    1.029422    1.654727
     56          1           0        1.807991    1.750643    1.372178
     57          8           0        2.119457   -0.722561    0.099367
     58          1           0        1.396515   -0.605497    0.754847
     59          7           0        3.119735    1.318553   -3.268208
     60          1           0        3.644958    1.948702   -2.674155
     61          6           0        3.701846    0.950200   -4.549991
     62          1           0        2.884441    0.777943   -5.259404
     63          6           0        4.488448   -0.375392   -4.456209
     64          6           0        4.564827    2.130587   -5.029806
     65          1           0        5.211415    2.481857   -4.212321
     66          1           0        3.904135    2.949832   -5.329611
     67          8           0        5.752649   -0.457596   -4.762614
     68          8           0        5.355421    1.668085   -6.128767
     69          1           0        5.864203    2.404095   -6.506714
     70          7           0        3.851715   -1.443887   -4.067076
     71          1           0        2.862622   -1.284417   -3.809192
     72          6           0        4.501927   -2.672874   -3.630502
     73          1           0        3.826965   -3.507363   -3.834101
     74          1           0        5.424876   -2.815280   -4.197404
     75          6           0        4.831104   -2.514763   -2.118971
     76          8           0        5.098189   -1.404749   -1.673592
     77          7           0        4.803424   -3.662984   -1.416160
     78          1           0        4.539894   -4.528689   -1.869319
     79          6           0        4.998409   -3.719793    0.037860
     80          1           0        5.582766   -2.843901    0.324229
     81          6           0        5.808417   -4.953266    0.410943
     82          6           0        3.631437   -3.699207    0.767827
     83          1           0        3.119062   -2.789744    0.435423
     84          1           0        3.040337   -4.557870    0.419440
     85          8           0        6.576707   -5.021810    1.337368
     86          6           0        3.711218   -3.708023    2.300511
     87          1           0        4.142054   -4.653308    2.655411
     88          1           0        4.396420   -2.917550    2.636213
     89          6           0        2.330687   -3.488427    2.937029
     90          1           0        1.614500   -4.213058    2.518864
     91          1           0        1.949145   -2.493477    2.676905
     92          6           0        2.343221   -3.628512    4.461257
     93          1           0        2.668471   -4.653066    4.723156
     94          1           0        3.097021   -2.949247    4.880839
     95          7           0        1.041902   -3.257656    5.026845
     96          1           0        1.060013   -3.370767    6.038950
     97          1           0        0.305952   -3.873577    4.681876
     98          8           0        5.511773   -6.009822   -0.394025
     99          1           0        6.034644   -6.767848   -0.069199
    100          1           0        5.998453    0.337599   -5.315949
 ---------------------------------------------------------------------

 SCF Done:  E(RB3LYP) =  -2418.42597895     A.U. after    3 cycles

 Alpha  occ. eigenvalues --  -19.35492 -19.32741 -19.28600 -19.25523 -19.22948
 Alpha  occ. eigenvalues --  -19.22482 -19.21614 -19.20131 -19.19496 -19.19028
 Alpha  occ. eigenvalues --  -19.18251 -14.53573 -14.50721 -14.47334 -14.43907
 Alpha  occ. eigenvalues --  -14.43902 -14.42648 -14.41768 -14.37063 -14.35791
 Alpha  occ. eigenvalues --  -10.48030 -10.42120 -10.40702 -10.40645 -10.40591
 Alpha  occ. eigenvalues --  -10.40279 -10.37485 -10.36906 -10.36305 -10.35758
 Alpha  occ. eigenvalues --  -10.34645 -10.32803 -10.32765 -10.32627 -10.31044
 Alpha  occ. eigenvalues --  -10.28960 -10.28815 -10.26987 -10.26252 -10.25695
 Alpha  occ. eigenvalues --  -10.25361 -10.24833 -10.24740 -10.23669 -10.23535
 Alpha  occ. eigenvalues --  -10.22622 -10.22094 -10.21812  -1.26253  -1.19382
 Alpha  occ. eigenvalues --   -1.19186  -1.17552  -1.15079  -1.11643  -1.11586
 Alpha  occ. eigenvalues --   -1.10923  -1.10492  -1.10268  -1.09582  -1.09366
 Alpha  occ. eigenvalues --   -1.07039  -1.03663  -1.00551  -0.99495  -0.98688
 Alpha  occ. eigenvalues --   -0.98111  -0.94695  -0.93224  -0.92542  -0.89578
 Alpha  occ. eigenvalues --   -0.87128  -0.86589  -0.85738  -0.83783  -0.82924
 Alpha  occ. eigenvalues --   -0.82808  -0.80666  -0.79760  -0.78987  -0.78616
 Alpha  occ. eigenvalues --   -0.76041  -0.75788  -0.74108  -0.72252  -0.71485
 Alpha  occ. eigenvalues --   -0.71260  -0.70695  -0.70054  -0.69617  -0.69008
 Alpha  occ. eigenvalues --   -0.68432  -0.67753  -0.66848  -0.66761  -0.66394
 Alpha  occ. eigenvalues --   -0.65512  -0.64749  -0.64358  -0.63887  -0.63204
 Alpha  occ. eigenvalues --   -0.63131  -0.61982  -0.60834  -0.60512  -0.60272
 Alpha  occ. eigenvalues --   -0.59373  -0.58887  -0.58240  -0.57744  -0.57399
 Alpha  occ. eigenvalues --   -0.57295  -0.56839  -0.56660  -0.56262  -0.56212
 Alpha  occ. eigenvalues --   -0.55802  -0.55469  -0.54784  -0.54561  -0.54033
 Alpha  occ. eigenvalues --   -0.53878  -0.53388  -0.53022  -0.52997  -0.52761
 Alpha  occ. eigenvalues --   -0.52035  -0.51741  -0.51024  -0.50761  -0.50566
 Alpha  occ. eigenvalues --   -0.50412  -0.50225  -0.49930  -0.49669  -0.49369
 Alpha  occ. eigenvalues --   -0.49074  -0.48487  -0.48166  -0.48032  -0.47859
 Alpha  occ. eigenvalues --   -0.47203  -0.46921  -0.46612  -0.46448  -0.45864
 Alpha  occ. eigenvalues --   -0.45287  -0.45228  -0.45022  -0.44869  -0.44655
 Alpha  occ. eigenvalues --   -0.44528  -0.44307  -0.43688  -0.43404  -0.43297
 Alpha  occ. eigenvalues --   -0.42986  -0.42851  -0.42189  -0.41854  -0.41308
 Alpha  occ. eigenvalues --   -0.40890  -0.40880  -0.40612  -0.40189  -0.39825
 Alpha  occ. eigenvalues --   -0.39362  -0.38788  -0.38447  -0.37438  -0.37401
 Alpha  occ. eigenvalues --   -0.36929  -0.36882  -0.36689  -0.35405  -0.35295
 Alpha  occ. eigenvalues --   -0.34700  -0.34467  -0.34043  -0.33900  -0.33228
 Alpha  occ. eigenvalues --   -0.32519  -0.31567  -0.30671  -0.29892  -0.28112
 Alpha virt. eigenvalues --   -0.17436  -0.11535  -0.09116  -0.08585  -0.07545
 Alpha virt. eigenvalues --   -0.05971  -0.05654  -0.05300  -0.05190  -0.03918
 Alpha virt. eigenvalues --   -0.03440  -0.02134  -0.00816  -0.00535  -0.00046

 Mulliken charges:
               1
     1  N   -0.701095
     2  H    0.314938
     3  H    0.311881
     4  C   -0.076177
     5  H    0.171855
     6  C    0.574879
     7  C   -0.374906
     8  H    0.190278
     9  H    0.180475
    10  O   -0.553473
    11  C    0.612047
    12  N   -0.737614
    13  H    0.350033
    14  H    0.351839
    15  O   -0.522311
    16  N   -0.623021
    17  H    0.393656
    18  C   -0.052057
    19  H    0.173622
    20  C    0.639380
    21  C   -0.112070
    22  H    0.186713
    23  O   -0.577073
    24  C   -0.255061
    25  H    0.136783
    26  H    0.133949
    27  C   -0.478271
    28  H    0.147608
    29  H    0.149361
    30  H    0.160837
    31  C   -0.458787
    32  H    0.150182
    33  H    0.151041
    34  H    0.146825
    35  N   -0.599694
    36  H    0.380169
    37  C   -0.019184
    38  H    0.140591
    39  C    0.630456
    40  C   -0.485705
    41  H    0.165270
    42  H    0.170849
    43  H    0.194148
    44  O   -0.517516
    45  N   -0.591529
    46  H    0.341234
    47  C   -0.081229
    48  H    0.197078
    49  C    0.638623
    50  C    0.109736
    51  H    0.156490
    52  O   -0.540686
    53  C   -0.485929
    54  H    0.135441
    55  H    0.171800
    56  H    0.205592
    57  O   -0.666461
    58  H    0.462876
    59  N   -0.605901
    60  H    0.358879
    61  C   -0.069280
    62  H    0.242812
    63  C    0.648653
    64  C   -0.092065
    65  H    0.175870
    66  H    0.211430
    67  O   -0.554741
    68  O   -0.640688
    69  H    0.448739
    70  N   -0.537935
    71  H    0.428329
    72  C   -0.280408
    73  H    0.202303
    74  H    0.237591
    75  C    0.645840
    76  O   -0.509772
    77  N   -0.603556
    78  H    0.354927
    79  C   -0.057212
    80  H    0.210698
    81  C    0.597489
    82  C   -0.297526
    83  H    0.210428
    84  H    0.132008
    85  O   -0.438493
    86  C   -0.268962
    87  H    0.147440
    88  H    0.147438
    89  C   -0.266724
    90  H    0.117996
    91  H    0.168582
    92  C   -0.129351
    93  H    0.113168
    94  H    0.139845
    95  N   -0.745737
    96  H    0.299460
    97  H    0.324004
    98  O   -0.588873
    99  H    0.426788
   100  H    0.477818
 Sum of Mulliken charges =   1.00000

 Dipole moment (field-independent basis, Debye):
    X=             14.0924    Y=             -7.4558    Z=            -14.7181  Tot=             21.6981
 Quadrupole moment (field-independent basis, Debye-Ang):
   XX=           -190.9798   YY=           -194.9618   ZZ=           -177.9741
   XY=             19.6316   XZ=            -97.6124   YZ=            -28.1024

 Normal termination of Gaussian 16 at Fri May 27 02:50:45 2022.
