 Gaussian 16, Revision C.01,
 Gaussian 16:  ES64L-G16RevC.01  3-Jul-2019

 ----------------------------------------------------------------------
 # B3LYP/6-31G* empiricaldispersion=gd3bj guess=read geom=check nosymm
 integral(ultrafinegrid)
 ----------------------------------------------------------------------

 ------------------------------------------------------
 Candidate Structure: Conf:121 Charge calc in gas phase
 ------------------------------------------------------
 Structure from the checkpoint file:  "conf-121.chk"
 Charge =  1 Multiplicity = 1

                          Input orientation:
 ---------------------------------------------------------------------
 Center     Atomic      Atomic             Coordinates (Angstroms)
 Number     Number       Type             X           Y           Z
 ---------------------------------------------------------------------
      1          7           0       -4.145832   -2.976147   -5.011616
      2          1           0       -4.139002   -3.865454   -4.512953
      3          1           0       -4.922923   -3.003285   -5.669894
      4          6           0       -4.374592   -1.914318   -4.038898
      5          1           0       -4.244148   -0.951159   -4.549112
      6          6           0       -3.316483   -2.074646   -2.954521
      7          6           0       -5.776031   -1.912039   -3.356951
      8          1           0       -5.872352   -2.844862   -2.790146
      9          1           0       -5.818481   -1.085042   -2.636242
     10          8           0       -3.121538   -3.150013   -2.390979
     11          6           0       -6.884399   -1.780427   -4.369520
     12          6           0       -7.277891   -0.519218   -4.835732
     13          1           0       -6.815598    0.372477   -4.417786
     14          6           0       -7.495505   -2.916417   -4.915962
     15          1           0       -7.209911   -3.901236   -4.554229
     16          6           0       -8.257554   -0.394588   -5.819239
     17          1           0       -8.555292    0.591678   -6.163649
     18          6           0       -8.475868   -2.796184   -5.902389
     19          1           0       -8.943655   -3.687772   -6.310062
     20          6           0       -8.858592   -1.534496   -6.357184
     21          1           0       -9.623953   -1.438543   -7.121601
     22          7           0       -2.624386   -0.951088   -2.612888
     23          1           0       -2.714415   -0.083975   -3.128661
     24          6           0       -1.608083   -0.989715   -1.590050
     25          1           0       -1.983208   -1.551125   -0.727486
     26          6           0       -1.239478    0.442177   -1.217056
     27          6           0       -0.352307   -1.712479   -2.135636
     28          1           0       -0.003072   -1.182979   -3.029402
     29          1           0       -0.646887   -2.727524   -2.402343
     30          8           0       -1.312839    1.360433   -2.021230
     31          8           0        0.712476   -1.814296   -1.175559
     32          1           0        1.098976   -0.913586   -1.001778
     33          7           0       -0.757684    0.589064    0.054919
     34          1           0       -0.604363   -0.261289    0.581585
     35          6           0        0.051338    1.728212    0.424494
     36          1           0       -0.373682    2.620421   -0.041294
     37          6           0        1.491125    1.539369   -0.054976
     38          6           0        0.013876    1.883026    1.976089
     39          1           0        0.234894    0.903545    2.426049
     40          1           0       -1.007177    2.159400    2.251411
     41          8           0        1.922412    0.457121   -0.485194
     42          8           0        0.892099    2.870009    2.464858
     43          1           0        1.747530    2.424597    2.646974
     44          7           0        2.313370    2.601126    0.111185
     45          1           0        1.941262    3.330174    0.717280
     46          6           0        3.737380    2.319493    0.214597
     47          1           0        4.067551    1.870302   -0.722802
     48          6           0        3.946175    1.305499    1.360724
     49          6           0        4.539345    3.604362    0.480639
     50          1           0        4.427136    4.277265   -0.376752
     51          1           0        4.177479    4.114162    1.377051
     52          8           0        3.236562    1.305526    2.372755
     53          6           0        6.012514    3.304881    0.698195
     54          8           0        6.668294    3.673629    1.638850
     55          8           0        6.510454    2.521341   -0.298035
     56          7           0        4.948671    0.431299    1.162864
     57          1           0        5.577204    0.582552    0.380067
     58          6           0        5.402615   -0.504760    2.172691
     59          1           0        5.154478   -0.101153    3.160385
     60          6           0        6.920749   -0.584661    2.052052
     61          6           0        4.744051   -1.894307    2.010531
     62          1           0        5.260256   -2.604936    2.665894
     63          1           0        4.905201   -2.224039    0.976833
     64          8           0        7.564564   -0.047332    1.175433
     65          6           0        3.247622   -1.873097    2.346430
     66          1           0        2.741817   -1.083386    1.783241
     67          1           0        3.118987   -1.627336    3.406870
     68          6           0        2.532409   -3.202528    2.068479
     69          1           0        3.113924   -4.052605    2.438295
     70          1           0        1.575297   -3.235868    2.595583
     71          7           0        2.223699   -3.389606    0.645666
     72          1           0        1.463693   -2.824734    0.255249
     73          7           0        3.968233   -4.833835    0.064816
     74          1           0        4.544746   -5.254932   -0.648723
     75          1           0        3.972569   -5.274398    0.972128
     76          7           0        2.767960   -3.686679   -1.564402
     77          1           0        2.061691   -2.967840   -1.764084
     78          1           0        3.077048   -4.303997   -2.301028
     79          6           0        2.981844   -3.981110   -0.277138
     80          8           0        7.455146   -1.337501    3.023981
     81          1           0        8.424173   -1.335875    2.899613
     82          1           0        7.428998    2.295962   -0.050324
 ---------------------------------------------------------------------

 SCF Done:  E(RB3LYP) =  -2166.48724479     A.U. after    3 cycles

 Alpha  occ. eigenvalues --  -19.31337 -19.29156 -19.27438 -19.26003 -19.25016
 Alpha  occ. eigenvalues --  -19.24040 -19.23891 -19.23432 -19.22145 -19.18773
 Alpha  occ. eigenvalues --  -14.52408 -14.51159 -14.50664 -14.47740 -14.47248
 Alpha  occ. eigenvalues --  -14.46862 -14.44111 -14.36814 -10.48051 -10.44017
 Alpha  occ. eigenvalues --  -10.41795 -10.40731 -10.40677 -10.39066 -10.36511
 Alpha  occ. eigenvalues --  -10.35754 -10.35719 -10.35167 -10.34054 -10.33989
 Alpha  occ. eigenvalues --  -10.33932 -10.32900 -10.31414 -10.31085 -10.30915
 Alpha  occ. eigenvalues --  -10.28507 -10.24705 -10.24653 -10.23842 -10.23841
 Alpha  occ. eigenvalues --  -10.23787 -10.23780 -10.23602  -1.22480  -1.19895
 Alpha  occ. eigenvalues --   -1.16970  -1.16648  -1.15459  -1.14281  -1.13590
 Alpha  occ. eigenvalues --   -1.13473  -1.11635  -1.11095  -1.10853  -1.05950
 Alpha  occ. eigenvalues --   -1.04842  -1.04572  -1.04400  -1.03537  -1.00642
 Alpha  occ. eigenvalues --   -0.94753  -0.92902  -0.90708  -0.90263  -0.88037
 Alpha  occ. eigenvalues --   -0.87391  -0.84503  -0.82726  -0.82202  -0.79533
 Alpha  occ. eigenvalues --   -0.79249  -0.78329  -0.77522  -0.75975  -0.74987
 Alpha  occ. eigenvalues --   -0.74051  -0.73423  -0.72946  -0.70923  -0.70789
 Alpha  occ. eigenvalues --   -0.70380  -0.69884  -0.69103  -0.68618  -0.66769
 Alpha  occ. eigenvalues --   -0.65581  -0.65376  -0.65220  -0.64903  -0.63582
 Alpha  occ. eigenvalues --   -0.63297  -0.62822  -0.62436  -0.61580  -0.61247
 Alpha  occ. eigenvalues --   -0.60390  -0.60134  -0.59937  -0.59292  -0.58407
 Alpha  occ. eigenvalues --   -0.57987  -0.57418  -0.57190  -0.57076  -0.56780
 Alpha  occ. eigenvalues --   -0.56609  -0.55835  -0.55579  -0.55128  -0.54696
 Alpha  occ. eigenvalues --   -0.54359  -0.53577  -0.53492  -0.53459  -0.53220
 Alpha  occ. eigenvalues --   -0.52692  -0.51462  -0.51403  -0.51115  -0.50742
 Alpha  occ. eigenvalues --   -0.50575  -0.50472  -0.49735  -0.49334  -0.49261
 Alpha  occ. eigenvalues --   -0.48890  -0.48589  -0.48213  -0.47646  -0.47512
 Alpha  occ. eigenvalues --   -0.46886  -0.46871  -0.46723  -0.46467  -0.46191
 Alpha  occ. eigenvalues --   -0.45264  -0.44364  -0.44252  -0.43493  -0.43133
 Alpha  occ. eigenvalues --   -0.43048  -0.41812  -0.41631  -0.40740  -0.40566
 Alpha  occ. eigenvalues --   -0.40297  -0.39708  -0.39235  -0.39025  -0.38862
 Alpha  occ. eigenvalues --   -0.38758  -0.37974  -0.37550  -0.37294  -0.36734
 Alpha  occ. eigenvalues --   -0.36255  -0.35221  -0.33312  -0.32720  -0.30261
 Alpha  occ. eigenvalues --   -0.29729  -0.28499
 Alpha virt. eigenvalues --   -0.12165  -0.11254  -0.10882  -0.09172  -0.08802
 Alpha virt. eigenvalues --   -0.08624  -0.08268  -0.05814  -0.05036  -0.04987
 Alpha virt. eigenvalues --   -0.04813  -0.03965  -0.03033  -0.01994  -0.01702

 Mulliken charges:
               1
     1  N   -0.720102
     2  H    0.310992
     3  H    0.314958
     4  C   -0.062371
     5  H    0.139539
     6  C    0.645799
     7  C   -0.364036
     8  H    0.162650
     9  H    0.144140
    10  O   -0.547703
    11  C    0.168854
    12  C   -0.178185
    13  H    0.122271
    14  C   -0.197443
    15  H    0.127618
    16  C   -0.126766
    17  H    0.139001
    18  C   -0.126853
    19  H    0.139589
    20  C   -0.128970
    21  H    0.140821
    22  N   -0.624755
    23  H    0.357495
    24  C   -0.042355
    25  H    0.177373
    26  C    0.589516
    27  C   -0.060759
    28  H    0.167569
    29  H    0.201319
    30  O   -0.506572
    31  O   -0.717195
    32  H    0.467211
    33  N   -0.591773
    34  H    0.325227
    35  C   -0.106498
    36  H    0.221205
    37  C    0.648526
    38  C   -0.040639
    39  H    0.130387
    40  H    0.189709
    41  O   -0.582805
    42  O   -0.640084
    43  H    0.439635
    44  N   -0.584701
    45  H    0.365178
    46  C   -0.055897
    47  H    0.204324
    48  C    0.636041
    49  C   -0.368553
    50  H    0.215882
    51  H    0.202283
    52  O   -0.570774
    53  C    0.566148
    54  O   -0.424058
    55  O   -0.576927
    56  N   -0.593696
    57  H    0.375425
    58  C   -0.053878
    59  H    0.217659
    60  C    0.594952
    61  C   -0.274698
    62  H    0.171898
    63  H    0.149039
    64  O   -0.470202
    65  C   -0.270225
    66  H    0.177485
    67  H    0.176330
    68  C   -0.178607
    69  H    0.160009
    70  H    0.196104
    71  N   -0.608149
    72  H    0.396228
    73  N   -0.753260
    74  H    0.378121
    75  H    0.381243
    76  N   -0.778990
    77  H    0.419174
    78  H    0.367362
    79  C    0.790159
    80  O   -0.554183
    81  H    0.434743
    82  H    0.435472
 Sum of Mulliken charges =   1.00000

 Dipole moment (field-independent basis, Debye):
    X=             14.9789    Y=            -12.7000    Z=              0.3380  Tot=             19.6411
 Quadrupole moment (field-independent basis, Debye-Ang):
   XX=           -135.4616   YY=           -180.1713   ZZ=           -229.2877
   XY=            -54.2363   XZ=             25.2155   YZ=             -7.3195

 Normal termination of Gaussian 16 at Wed Jun 29 02:14:26 2022.
