 Gaussian 16, Revision C.01,
 Gaussian 16:  ES64L-G16RevC.01  3-Jul-2019

 ----------------------------------------------------------------------
 # B3LYP/6-31G* empiricaldispersion=gd3bj guess=read geom=check nosymm
 integral(ultrafinegrid)
 ----------------------------------------------------------------------

 ------------------------------------------------------
 Candidate Structure: Conf:474 Charge calc in gas phase
 ------------------------------------------------------
 Structure from the checkpoint file:  "conf-474.chk"
 Charge =  1 Multiplicity = 1

                          Input orientation:
 ---------------------------------------------------------------------
 Center     Atomic      Atomic             Coordinates (Angstroms)
 Number     Number       Type             X           Y           Z
 ---------------------------------------------------------------------
      1          7           0       -5.189507   -2.633598   -2.136114
      2          1           0       -5.063615   -3.614347   -2.380614
      3          1           0       -4.713613   -2.526966   -1.240925
      4          6           0       -4.501010   -1.806201   -3.115161
      5          1           0       -4.772437   -2.168149   -4.114494
      6          6           0       -2.970623   -1.885560   -2.969946
      7          6           0       -4.975429   -0.329275   -3.019078
      8          1           0       -4.663226    0.217202   -3.917139
      9          1           0       -6.068812   -0.362452   -3.032179
     10          8           0       -2.446349   -2.520539   -2.047587
     11          6           0       -4.481745    0.402323   -1.791905
     12          6           0       -5.024559    0.131629   -0.526893
     13          1           0       -5.827034   -0.594968   -0.440228
     14          6           0       -3.470798    1.366283   -1.892362
     15          1           0       -3.041001    1.598414   -2.863232
     16          6           0       -4.557979    0.798509    0.606346
     17          1           0       -4.989869    0.576318    1.577910
     18          6           0       -3.020666    2.052957   -0.763392
     19          1           0       -2.260000    2.821619   -0.871524
     20          6           0       -3.555258    1.764101    0.492929
     21          1           0       -3.193699    2.282793    1.374829
     22          7           0       -2.232475   -1.201075   -3.881107
     23          1           0       -2.705888   -0.626512   -4.565358
     24          6           0       -0.772386   -1.148806   -3.835657
     25          1           0       -0.407426   -2.156328   -3.615816
     26          6           0       -0.325516   -0.202538   -2.706540
     27          6           0       -0.191343   -0.704605   -5.182167
     28          1           0       -0.479544    0.340255   -5.372907
     29          1           0       -0.622751   -1.331801   -5.968537
     30          8           0        0.077306    0.946541   -2.932806
     31          8           0        1.201087   -0.894421   -5.226655
     32          1           0        1.634697   -0.271016   -4.617059
     33          7           0       -0.414844   -0.732664   -1.465642
     34          1           0       -0.943500   -1.608432   -1.408569
     35          6           0       -0.298703    0.080846   -0.260492
     36          1           0       -0.760343    1.056382   -0.442585
     37          6           0        1.179537    0.323200    0.081761
     38          6           0       -1.045679   -0.596831    0.890045
     39          1           0       -0.645065   -1.614529    1.034547
     40          1           0       -2.099174   -0.684485    0.617996
     41          8           0        1.714652   -0.135736    1.121751
     42          8           0       -0.985293    0.167996    2.078374
     43          1           0       -0.043023    0.332632    2.242114
     44          7           0        1.843007    1.059549   -0.802050
     45          1           0        1.327222    1.304227   -1.655863
     46          6           0        3.274448    1.290071   -0.723676
     47          1           0        3.792263    0.325528   -0.785489
     48          6           0        3.621919    2.005585    0.593229
     49          6           0        3.715527    2.186428   -1.885105
     50          1           0        3.188341    3.146018   -1.838335
     51          1           0        4.783085    2.417673   -1.796093
     52          8           0        2.960689    2.952365    0.999513
     53          6           0        3.473892    1.548807   -3.237665
     54          8           0        3.026501    0.430401   -3.400730
     55          8           0        3.813466    2.371436   -4.237862
     56          7           0        4.730090    1.527583    1.217314
     57          1           0        5.244511    0.771099    0.787915
     58          6           0        5.361575    2.205984    2.342241
     59          1           0        5.089741    3.266508    2.270438
     60          6           0        6.885185    2.145018    2.251941
     61          6           0        4.887516    1.659128    3.704083
     62          1           0        5.624857    1.933602    4.462687
     63          1           0        4.887399    0.563650    3.636503
     64          8           0        7.618636    2.490845    3.145151
     65          6           0        3.491816    2.181201    4.103325
     66          1           0        2.939826    2.527122    3.223189
     67          1           0        3.596330    3.053659    4.755995
     68          6           0        2.648248    1.139956    4.834953
     69          1           0        3.231262    0.673120    5.639843
     70          1           0        1.761957    1.611681    5.277705
     71          7           0        2.227831    0.102682    3.884631
     72          1           0        2.332727    0.287106    2.885146
     73          7           0        1.340187   -1.320758    5.490853
     74          1           0        0.987956   -2.227772    5.757821
     75          1           0        1.552395   -0.668784    6.229934
     76          7           0        1.333339   -1.929591    3.246000
     77          1           0        1.403363   -1.593824    2.281679
     78          1           0        0.641846   -2.642480    3.431535
     79          6           0        1.625208   -1.038686    4.209206
     80          8           0        7.326110    1.666575    1.064481
     81          1           0        8.302104    1.676684    1.105538
     82          1           0        3.639858    1.906138   -5.079266
 ---------------------------------------------------------------------

 SCF Done:  E(RB3LYP) =  -2166.48735041     A.U. after    3 cycles

 Alpha  occ. eigenvalues --  -19.30178 -19.29829 -19.25192 -19.24756 -19.24067
 Alpha  occ. eigenvalues --  -19.23931 -19.22385 -19.22202 -19.21322 -19.20656
 Alpha  occ. eigenvalues --  -14.51873 -14.50624 -14.49879 -14.47194 -14.47060
 Alpha  occ. eigenvalues --  -14.45850 -14.45533 -14.38521 -10.47317 -10.42989
 Alpha  occ. eigenvalues --  -10.42365 -10.40830 -10.39648 -10.38621 -10.37608
 Alpha  occ. eigenvalues --  -10.35617 -10.35057 -10.34689 -10.33242 -10.33115
 Alpha  occ. eigenvalues --  -10.31946 -10.31500 -10.31069 -10.30505 -10.29783
 Alpha  occ. eigenvalues --  -10.29605 -10.26928 -10.26820 -10.26214 -10.26154
 Alpha  occ. eigenvalues --  -10.26044 -10.25968 -10.25817  -1.21110  -1.20890
 Alpha  occ. eigenvalues --   -1.16514  -1.15857  -1.14303  -1.14012  -1.12779
 Alpha  occ. eigenvalues --   -1.12218  -1.11867  -1.11578  -1.08464  -1.05355
 Alpha  occ. eigenvalues --   -1.04535  -1.04009  -1.03776  -1.02548  -1.01727
 Alpha  occ. eigenvalues --   -0.96512  -0.92584  -0.91959  -0.90612  -0.87130
 Alpha  occ. eigenvalues --   -0.86851  -0.85399  -0.83469  -0.81533  -0.81242
 Alpha  occ. eigenvalues --   -0.79888  -0.78841  -0.78038  -0.75239  -0.73961
 Alpha  occ. eigenvalues --   -0.73545  -0.72549  -0.72441  -0.71736  -0.70357
 Alpha  occ. eigenvalues --   -0.69584  -0.69322  -0.68585  -0.67704  -0.67663
 Alpha  occ. eigenvalues --   -0.67213  -0.65041  -0.64754  -0.64380  -0.63606
 Alpha  occ. eigenvalues --   -0.63400  -0.62824  -0.61860  -0.60931  -0.60767
 Alpha  occ. eigenvalues --   -0.60024  -0.59821  -0.59478  -0.58782  -0.58595
 Alpha  occ. eigenvalues --   -0.58495  -0.58190  -0.57389  -0.57281  -0.56789
 Alpha  occ. eigenvalues --   -0.56431  -0.56094  -0.55610  -0.55146  -0.54453
 Alpha  occ. eigenvalues --   -0.54073  -0.53592  -0.53383  -0.52856  -0.52724
 Alpha  occ. eigenvalues --   -0.52200  -0.51693  -0.51494  -0.51045  -0.50741
 Alpha  occ. eigenvalues --   -0.50355  -0.49923  -0.49551  -0.49286  -0.49011
 Alpha  occ. eigenvalues --   -0.48789  -0.48747  -0.48556  -0.47876  -0.47464
 Alpha  occ. eigenvalues --   -0.47215  -0.46577  -0.46343  -0.46277  -0.45705
 Alpha  occ. eigenvalues --   -0.45256  -0.44969  -0.44559  -0.43768  -0.42477
 Alpha  occ. eigenvalues --   -0.42429  -0.42270  -0.41839  -0.41010  -0.40488
 Alpha  occ. eigenvalues --   -0.40219  -0.39923  -0.39572  -0.38856  -0.38554
 Alpha  occ. eigenvalues --   -0.37922  -0.37664  -0.37066  -0.36094  -0.35641
 Alpha  occ. eigenvalues --   -0.35504  -0.34895  -0.34648  -0.33276  -0.32198
 Alpha  occ. eigenvalues --   -0.32120  -0.30999
 Alpha virt. eigenvalues --   -0.11297  -0.10753  -0.09734  -0.09326  -0.08581
 Alpha virt. eigenvalues --   -0.08514  -0.07722  -0.07423  -0.07189  -0.06701
 Alpha virt. eigenvalues --   -0.03864  -0.03149  -0.01998  -0.01796  -0.01515

 Mulliken charges:
               1
     1  N   -0.689266
     2  H    0.313935
     3  H    0.311469
     4  C   -0.094337
     5  H    0.167492
     6  C    0.616682
     7  C   -0.348388
     8  H    0.136015
     9  H    0.191092
    10  O   -0.553870
    11  C    0.154760
    12  C   -0.191835
    13  H    0.161265
    14  C   -0.186942
    15  H    0.128147
    16  C   -0.137472
    17  H    0.143449
    18  C   -0.153676
    19  H    0.143439
    20  C   -0.119521
    21  H    0.145219
    22  N   -0.601413
    23  H    0.344381
    24  C   -0.072500
    25  H    0.196632
    26  C    0.644430
    27  C   -0.046176
    28  H    0.140164
    29  H    0.158768
    30  O   -0.568740
    31  O   -0.644444
    32  H    0.430419
    33  N   -0.627966
    34  H    0.395592
    35  C   -0.090349
    36  H    0.207385
    37  C    0.658500
    38  C   -0.061609
    39  H    0.109621
    40  H    0.195951
    41  O   -0.624752
    42  O   -0.631788
    43  H    0.395633
    44  N   -0.598609
    45  H    0.411736
    46  C   -0.027222
    47  H    0.176926
    48  C    0.630432
    49  C   -0.402828
    50  H    0.228754
    51  H    0.212467
    52  O   -0.520921
    53  C    0.596828
    54  O   -0.464034
    55  O   -0.543078
    56  N   -0.611844
    57  H    0.350777
    58  C   -0.062691
    59  H    0.222709
    60  C    0.586972
    61  C   -0.276792
    62  H    0.198736
    63  H    0.147459
    64  O   -0.436012
    65  C   -0.339612
    66  H    0.212796
    67  H    0.181558
    68  C   -0.159405
    69  H    0.172483
    70  H    0.186553
    71  N   -0.634946
    72  H    0.415910
    73  N   -0.765868
    74  H    0.381144
    75  H    0.388440
    76  N   -0.775951
    77  H    0.413038
    78  H    0.366199
    79  C    0.807468
    80  O   -0.578878
    81  H    0.431974
    82  H    0.431933
 Sum of Mulliken charges =   1.00000

 Dipole moment (field-independent basis, Debye):
    X=              8.2914    Y=             -2.0170    Z=              8.3876  Tot=             11.9653
 Quadrupole moment (field-independent basis, Debye-Ang):
   XX=           -186.2177   YY=           -238.4634   ZZ=           -143.1070
   XY=             14.2655   XZ=             27.6064   YZ=            -22.5628

 Normal termination of Gaussian 16 at Wed Jun 29 02:14:40 2022.
