 Gaussian 16, Revision C.01,
 Gaussian 16:  ES64L-G16RevC.01  3-Jul-2019

 ----------------------------------------------------------------------
 # B3LYP/6-31G* empiricaldispersion=gd3bj guess=read geom=check nosymm
 integral(ultrafinegrid)
 ----------------------------------------------------------------------

 -----------------------------------------------------
 Candidate Structure: Conf:90 Charge calc in gas phase
 -----------------------------------------------------
 Structure from the checkpoint file:  "conf-90.chk"
 Charge =  1 Multiplicity = 1

                          Input orientation:
 ---------------------------------------------------------------------
 Center     Atomic      Atomic             Coordinates (Angstroms)
 Number     Number       Type             X           Y           Z
 ---------------------------------------------------------------------
      1          7           0       -2.171809   -2.914924   -0.759744
      2          1           0       -3.067264   -3.257367   -0.412814
      3          1           0       -1.759308   -3.675111   -1.301016
      4          6           0       -2.423788   -1.764979   -1.645270
      5          1           0       -3.103430   -2.035959   -2.465423
      6          6           0       -1.097286   -1.312100   -2.277269
      7          6           0       -3.091522   -0.622435   -0.839026
      8          1           0       -3.949683   -1.057477   -0.309118
      9          1           0       -2.387398   -0.267023   -0.079071
     10          8           0        0.002664   -1.646092   -1.823805
     11          6           0       -3.542938    0.515705   -1.724894
     12          6           0       -2.863118    1.737423   -1.719255
     13          1           0       -2.033222    1.910389   -1.042029
     14          6           0       -4.590497    0.324968   -2.639253
     15          1           0       -5.139138   -0.614920   -2.645823
     16          6           0       -3.211761    2.746601   -2.617687
     17          1           0       -2.666035    3.683443   -2.597130
     18          6           0       -4.938530    1.332319   -3.539519
     19          1           0       -5.752110    1.172496   -4.240937
     20          6           0       -4.245088    2.545467   -3.532697
     21          1           0       -4.513273    3.328688   -4.235119
     22          7           0       -1.235137   -0.546759   -3.385956
     23          1           0       -2.143023   -0.119368   -3.545345
     24          6           0       -0.090841    0.055101   -4.075650
     25          1           0        0.713159   -0.684267   -4.047188
     26          6           0        0.361109    1.343248   -3.372172
     27          6           0       -0.472166    0.322153   -5.534484
     28          1           0        0.356873    0.824999   -6.035979
     29          1           0       -1.333968    1.004758   -5.568389
     30          8           0        0.036960    2.457000   -3.797154
     31          8           0       -0.703976   -0.883186   -6.237284
     32          1           0       -1.466296   -1.322086   -5.829064
     33          7           0        1.127537    1.159023   -2.277423
     34          1           0        1.379758    0.221825   -1.975322
     35          6           0        1.802969    2.257059   -1.610944
     36          1           0        2.161630    2.954832   -2.379528
     37          6           0        2.986088    1.665888   -0.842691
     38          6           0        0.887789    3.038559   -0.641103
     39          1           0        1.462267    3.883569   -0.233602
     40          1           0        0.623395    2.388173    0.202666
     41          8           0        3.124657    0.448634   -0.707591
     42          8           0       -0.298945    3.488926   -1.253683
     43          1           0       -0.181719    3.458441   -2.225151
     44          7           0        3.806229    2.577941   -0.281531
     45          1           0        3.751309    3.560697   -0.533903
     46          6           0        4.864478    2.209616    0.635222
     47          1           0        5.697675    1.743683    0.090814
     48          6           0        4.317803    1.233211    1.695093
     49          6           0        5.366137    3.454388    1.397509
     50          1           0        4.545602    3.812857    2.030863
     51          1           0        6.197911    3.175602    2.047158
     52          8           0        3.214020    1.386721    2.197869
     53          6           0        5.769649    4.598269    0.491360
     54          8           0        5.079635    5.036312   -0.411207
     55          8           0        6.970278    5.104436    0.806601
     56          7           0        5.188155    0.256346    2.071235
     57          1           0        6.082031    0.172807    1.608032
     58          6           0        4.815979   -0.722553    3.071313
     59          1           0        3.925034   -0.304437    3.553898
     60          6           0        5.862093   -0.906771    4.162590
     61          6           0        4.442265   -2.090029    2.463738
     62          1           0        4.010784   -2.692413    3.270937
     63          1           0        5.351710   -2.614142    2.139964
     64          8           0        5.820585   -1.806364    4.969866
     65          6           0        3.484746   -1.942647    1.279345
     66          1           0        3.994687   -1.461252    0.442360
     67          1           0        2.661637   -1.266340    1.536732
     68          6           0        2.922636   -3.280579    0.799146
     69          1           0        2.473696   -3.189182   -0.194157
     70          1           0        3.709937   -4.036100    0.717596
     71          7           0        1.900027   -3.832733    1.700571
     72          1           0        2.221373   -4.331713    2.519041
     73          7           0        0.134947   -2.576893    0.817802
     74          1           0       -0.830960   -2.658394    0.421273
     75          1           0        0.752849   -2.089385    0.180480
     76          7           0       -0.271796   -4.138981    2.457667
     77          1           0        0.030346   -4.883782    3.067530
     78          1           0       -1.162526   -3.709293    2.659177
     79          6           0        0.603722   -3.495447    1.651384
     80          8           0        6.831861    0.031734    4.135174
     81          1           0        7.432460   -0.170928    4.878617
     82          1           0        7.135367    5.857247    0.205213
 ---------------------------------------------------------------------

 SCF Done:  E(RB3LYP) =  -2166.48038027     A.U. after    3 cycles

 Alpha  occ. eigenvalues --  -19.29120 -19.28880 -19.23680 -19.23048 -19.22810
 Alpha  occ. eigenvalues --  -19.21929 -19.21453 -19.20774 -19.20678 -19.20340
 Alpha  occ. eigenvalues --  -14.50871 -14.50581 -14.47483 -14.46524 -14.45959
 Alpha  occ. eigenvalues --  -14.45600 -14.45047 -14.44392 -10.46228 -10.42003
 Alpha  occ. eigenvalues --  -10.41156 -10.39762 -10.38286 -10.38277 -10.37584
 Alpha  occ. eigenvalues --  -10.34572 -10.34113 -10.34003 -10.33367 -10.32028
 Alpha  occ. eigenvalues --  -10.31927 -10.30998 -10.30941 -10.30343 -10.29411
 Alpha  occ. eigenvalues --  -10.29158 -10.28420 -10.27834 -10.26983 -10.26666
 Alpha  occ. eigenvalues --  -10.26227 -10.25981 -10.25883  -1.20212  -1.19686
 Alpha  occ. eigenvalues --   -1.14945  -1.14605  -1.13922  -1.12775  -1.12220
 Alpha  occ. eigenvalues --   -1.11167  -1.10637  -1.09541  -1.08036  -1.04666
 Alpha  occ. eigenvalues --   -1.02894  -1.02611  -1.02430  -1.02266  -1.01509
 Alpha  occ. eigenvalues --   -1.00865  -0.93550  -0.90796  -0.89370  -0.87983
 Alpha  occ. eigenvalues --   -0.85894  -0.85663  -0.83475  -0.81913  -0.80499
 Alpha  occ. eigenvalues --   -0.80294  -0.78206  -0.76534  -0.75085  -0.73833
 Alpha  occ. eigenvalues --   -0.72619  -0.71798  -0.71671  -0.70692  -0.69499
 Alpha  occ. eigenvalues --   -0.69360  -0.68762  -0.68583  -0.68071  -0.67416
 Alpha  occ. eigenvalues --   -0.66854  -0.66403  -0.63875  -0.63269  -0.62885
 Alpha  occ. eigenvalues --   -0.62099  -0.61246  -0.60834  -0.60247  -0.59958
 Alpha  occ. eigenvalues --   -0.59575  -0.59096  -0.58333  -0.58257  -0.57863
 Alpha  occ. eigenvalues --   -0.57569  -0.57435  -0.56890  -0.56664  -0.56556
 Alpha  occ. eigenvalues --   -0.56150  -0.55353  -0.55107  -0.54663  -0.54203
 Alpha  occ. eigenvalues --   -0.54065  -0.52906  -0.52700  -0.52562  -0.52428
 Alpha  occ. eigenvalues --   -0.51676  -0.51218  -0.51034  -0.50918  -0.50118
 Alpha  occ. eigenvalues --   -0.49984  -0.49533  -0.49189  -0.49075  -0.48698
 Alpha  occ. eigenvalues --   -0.48443  -0.48192  -0.48038  -0.47741  -0.47233
 Alpha  occ. eigenvalues --   -0.47113  -0.46993  -0.46741  -0.46387  -0.45681
 Alpha  occ. eigenvalues --   -0.44829  -0.44421  -0.44026  -0.43140  -0.41770
 Alpha  occ. eigenvalues --   -0.41584  -0.41362  -0.41192  -0.40875  -0.40748
 Alpha  occ. eigenvalues --   -0.40669  -0.39721  -0.38358  -0.37978  -0.37613
 Alpha  occ. eigenvalues --   -0.37567  -0.36417  -0.35916  -0.35630  -0.35136
 Alpha  occ. eigenvalues --   -0.34607  -0.34239  -0.33843  -0.33084  -0.32923
 Alpha  occ. eigenvalues --   -0.32433  -0.32156
 Alpha virt. eigenvalues --   -0.10791  -0.09704  -0.09243  -0.08164  -0.08146
 Alpha virt. eigenvalues --   -0.07846  -0.07448  -0.06940  -0.06901  -0.06280
 Alpha virt. eigenvalues --   -0.04130  -0.03095  -0.02008  -0.01634  -0.00429

 Mulliken charges:
               1
     1  N   -0.767576
     2  H    0.329322
     3  H    0.335788
     4  C   -0.070763
     5  H    0.163221
     6  C    0.627584
     7  C   -0.345687
     8  H    0.160597
     9  H    0.168169
    10  O   -0.564099
    11  C    0.122626
    12  C   -0.194944
    13  H    0.169117
    14  C   -0.200745
    15  H    0.127787
    16  C   -0.128670
    17  H    0.163578
    18  C   -0.131553
    19  H    0.150071
    20  C   -0.132695
    21  H    0.153506
    22  N   -0.610524
    23  H    0.363983
    24  C   -0.087465
    25  H    0.190881
    26  C    0.648119
    27  C   -0.049238
    28  H    0.180729
    29  H    0.156082
    30  O   -0.552613
    31  O   -0.603531
    32  H    0.391584
    33  N   -0.610453
    34  H    0.369743
    35  C   -0.133401
    36  H    0.191393
    37  C    0.648581
    38  C    0.029331
    39  H    0.135279
    40  H    0.146441
    41  O   -0.553108
    42  O   -0.650649
    43  H    0.435399
    44  N   -0.633875
    45  H    0.382488
    46  C   -0.023572
    47  H    0.162802
    48  C    0.651001
    49  C   -0.395474
    50  H    0.223108
    51  H    0.199677
    52  O   -0.528017
    53  C    0.600120
    54  O   -0.466400
    55  O   -0.543866
    56  N   -0.606392
    57  H    0.339089
    58  C   -0.066131
    59  H    0.223903
    60  C    0.594553
    61  C   -0.274618
    62  H    0.153544
    63  H    0.151328
    64  O   -0.453977
    65  C   -0.276352
    66  H    0.196247
    67  H    0.174015
    68  C   -0.199012
    69  H    0.195082
    70  H    0.183895
    71  N   -0.585497
    72  H    0.355457
    73  N   -0.782638
    74  H    0.419962
    75  H    0.398263
    76  N   -0.764445
    77  H    0.370477
    78  H    0.378209
    79  C    0.788204
    80  O   -0.566784
    81  H    0.426180
    82  H    0.428252
 Sum of Mulliken charges =   1.00000

 Dipole moment (field-independent basis, Debye):
    X=              6.7409    Y=             -9.7983    Z=              4.0865  Tot=             12.5756
 Quadrupole moment (field-independent basis, Debye-Ang):
   XX=           -137.7852   YY=           -178.2216   ZZ=           -232.2076
   XY=             35.9373   XZ=             31.4666   YZ=            -19.6473

 Normal termination of Gaussian 16 at Wed Jun 29 02:14:37 2022.
