 Gaussian 16, Revision C.01,
 Gaussian 16:  ES64L-G16RevC.01  3-Jul-2019

 ----------------------------------------------------------------------
 # B3LYP/6-31G* empiricaldispersion=gd3bj guess=read geom=check nosymm
 integral(ultrafinegrid)
 ----------------------------------------------------------------------

 ------------------------------------------------------
 Candidate Structure: Conf:304 Charge calc in gas phase
 ------------------------------------------------------
 Structure from the checkpoint file:  "conf-304.chk"
 Charge =  1 Multiplicity = 1

                          Input orientation:
 ---------------------------------------------------------------------
 Center     Atomic      Atomic             Coordinates (Angstroms)
 Number     Number       Type             X           Y           Z
 ---------------------------------------------------------------------
      1          7           0       -2.754263    0.774718   -5.013680
      2          1           0       -2.899366    0.274458   -5.891294
      3          1           0       -2.914141    1.757499   -5.226289
      4          6           0       -3.746444    0.328024   -4.028403
      5          1           0       -3.712653    1.050249   -3.201627
      6          6           0       -3.327920   -1.004849   -3.399397
      7          6           0       -5.204089    0.254337   -4.535511
      8          1           0       -5.246519   -0.452351   -5.374689
      9          1           0       -5.819162   -0.165442   -3.734551
     10          8           0       -4.079569   -1.674319   -2.702034
     11          6           0       -5.709694    1.610119   -4.960905
     12          6           0       -6.218617    2.505218   -4.010469
     13          1           0       -6.299193    2.189994   -2.972479
     14          6           0       -5.622024    2.030634   -6.293701
     15          1           0       -5.243872    1.342718   -7.046633
     16          6           0       -6.630541    3.784258   -4.381327
     17          1           0       -7.031198    4.461329   -3.632108
     18          6           0       -6.033122    3.310397   -6.670188
     19          1           0       -5.965633    3.615270   -7.710718
     20          6           0       -6.537357    4.191601   -5.713783
     21          1           0       -6.862816    5.185999   -6.004940
     22          7           0       -2.039338   -1.378329   -3.674531
     23          1           0       -1.463212   -0.641506   -4.070832
     24          6           0       -1.442447   -2.434038   -2.906365
     25          1           0       -2.213365   -3.202716   -2.769023
     26          6           0       -1.061235   -1.927543   -1.499625
     27          6           0       -0.265242   -3.068502   -3.662362
     28          1           0       -0.626021   -3.367300   -4.649347
     29          1           0        0.083099   -3.966834   -3.139379
     30          8           0       -1.161023   -0.736851   -1.196676
     31          8           0        0.829825   -2.176738   -3.872998
     32          1           0        1.435344   -2.221264   -3.103574
     33          7           0       -0.584937   -2.870352   -0.640221
     34          1           0       -0.812934   -3.838136   -0.846419
     35          6           0       -0.459503   -2.616654    0.800323
     36          1           0       -1.342958   -2.058091    1.136363
     37          6           0        0.799585   -1.782543    1.108256
     38          6           0       -0.390231   -3.961885    1.522262
     39          1           0       -0.469595   -3.789208    2.603620
     40          1           0        0.582368   -4.429503    1.324119
     41          8           0        1.786884   -2.290667    1.676561
     42          8           0       -1.465431   -4.741911    1.021287
     43          1           0       -1.419933   -5.624597    1.418220
     44          7           0        0.721240   -0.498172    0.738581
     45          1           0       -0.124759   -0.267802    0.203738
     46          6           0        1.878639    0.351628    0.534267
     47          1           0        2.763329   -0.291207    0.513420
     48          6           0        2.043502    1.389984    1.654650
     49          6           0        1.741400    1.032413   -0.841264
     50          1           0        0.821848    1.623152   -0.895631
     51          1           0        2.569532    1.725394   -1.028687
     52          8           0        1.182851    1.610067    2.496996
     53          6           0        1.714796   -0.023849   -1.931022
     54          8           0        2.185486   -1.143310   -1.764625
     55          8           0        1.124907    0.390231   -3.041550
     56          7           0        3.255534    2.025583    1.641025
     57          1           0        3.860009    1.852988    0.848322
     58          6           0        3.462435    3.300588    2.324321
     59          1           0        2.470066    3.657312    2.625259
     60          6           0        4.034080    4.358276    1.380590
     61          6           0        4.339126    3.194077    3.586688
     62          1           0        4.550936    4.212166    3.920481
     63          1           0        5.305010    2.756890    3.301660
     64          8           0        4.424769    5.437817    1.747417
     65          6           0        3.665607    2.378083    4.712554
     66          1           0        2.651765    2.104977    4.402501
     67          1           0        3.541326    3.001305    5.604751
     68          6           0        4.446342    1.132779    5.157039
     69          1           0        5.395101    1.423108    5.615002
     70          1           0        3.885501    0.572695    5.912199
     71          7           0        4.792918    0.205763    4.070704
     72          1           0        5.694882    0.317756    3.630495
     73          7           0        2.654565   -0.698488    3.849655
     74          1           0        2.074738   -1.340396    3.306579
     75          1           0        2.189485    0.133796    4.186928
     76          7           0        4.364270   -1.456198    2.503594
     77          1           0        5.337692   -1.711816    2.424600
     78          1           0        3.658560   -2.005310    2.009479
     79          6           0        3.938482   -0.634603    3.476523
     80          8           0        4.057105    3.955129    0.084650
     81          1           0        4.423608    4.698706   -0.432555
     82          1           0        0.998543   -0.396353   -3.638279
 ---------------------------------------------------------------------

 SCF Done:  E(RB3LYP) =  -2166.48287477     A.U. after    3 cycles

 Alpha  occ. eigenvalues --  -19.31314 -19.28426 -19.25075 -19.24966 -19.24871
 Alpha  occ. eigenvalues --  -19.24503 -19.24498 -19.23993 -19.22557 -19.17337
 Alpha  occ. eigenvalues --  -14.51861 -14.50436 -14.49831 -14.48381 -14.47111
 Alpha  occ. eigenvalues --  -14.46389 -14.41724 -14.38737 -10.47236 -10.43352
 Alpha  occ. eigenvalues --  -10.42737 -10.41277 -10.41037 -10.38858 -10.35969
 Alpha  occ. eigenvalues --  -10.35707 -10.35701 -10.34295 -10.34233 -10.33871
 Alpha  occ. eigenvalues --  -10.32979 -10.31784 -10.31577 -10.30799 -10.30719
 Alpha  occ. eigenvalues --  -10.28339 -10.24433 -10.23975 -10.23719 -10.23672
 Alpha  occ. eigenvalues --  -10.23663 -10.23554 -10.23481  -1.21892  -1.20449
 Alpha  occ. eigenvalues --   -1.16629  -1.15831  -1.15692  -1.14241  -1.12919
 Alpha  occ. eigenvalues --   -1.12473  -1.11515  -1.11423  -1.09345  -1.05780
 Alpha  occ. eigenvalues --   -1.05008  -1.04715  -1.03449  -1.02707  -0.99246
 Alpha  occ. eigenvalues --   -0.95579  -0.92627  -0.90890  -0.90146  -0.87638
 Alpha  occ. eigenvalues --   -0.87108  -0.83739  -0.82712  -0.81911  -0.80502
 Alpha  occ. eigenvalues --   -0.79083  -0.77851  -0.77193  -0.75100  -0.74366
 Alpha  occ. eigenvalues --   -0.74142  -0.73278  -0.71726  -0.71277  -0.70826
 Alpha  occ. eigenvalues --   -0.69746  -0.68942  -0.68613  -0.68251  -0.65512
 Alpha  occ. eigenvalues --   -0.65275  -0.64952  -0.64477  -0.64344  -0.63115
 Alpha  occ. eigenvalues --   -0.62781  -0.62616  -0.61781  -0.61118  -0.60762
 Alpha  occ. eigenvalues --   -0.60133  -0.59628  -0.59445  -0.59178  -0.58839
 Alpha  occ. eigenvalues --   -0.58377  -0.58188  -0.57704  -0.57027  -0.56624
 Alpha  occ. eigenvalues --   -0.56316  -0.55622  -0.54773  -0.54636  -0.54127
 Alpha  occ. eigenvalues --   -0.53784  -0.53544  -0.53488  -0.53059  -0.52703
 Alpha  occ. eigenvalues --   -0.52121  -0.51762  -0.51602  -0.50803  -0.50622
 Alpha  occ. eigenvalues --   -0.50391  -0.50063  -0.49561  -0.49234  -0.48824
 Alpha  occ. eigenvalues --   -0.48331  -0.48211  -0.47911  -0.47437  -0.47038
 Alpha  occ. eigenvalues --   -0.46902  -0.46673  -0.46629  -0.46190  -0.46003
 Alpha  occ. eigenvalues --   -0.44317  -0.44020  -0.43443  -0.43009  -0.42980
 Alpha  occ. eigenvalues --   -0.42186  -0.41639  -0.40889  -0.40584  -0.40148
 Alpha  occ. eigenvalues --   -0.40053  -0.39455  -0.38922  -0.38813  -0.38590
 Alpha  occ. eigenvalues --   -0.38403  -0.37552  -0.37333  -0.37218  -0.36977
 Alpha  occ. eigenvalues --   -0.36011  -0.35495  -0.32883  -0.32070  -0.30599
 Alpha  occ. eigenvalues --   -0.29685  -0.28637
 Alpha virt. eigenvalues --   -0.12264  -0.11282  -0.10640  -0.10295  -0.09206
 Alpha virt. eigenvalues --   -0.08060  -0.07308  -0.05162  -0.04823  -0.04303
 Alpha virt. eigenvalues --   -0.03659  -0.03618  -0.02470  -0.02338  -0.01038

 Mulliken charges:
               1
     1  N   -0.749353
     2  H    0.307421
     3  H    0.325804
     4  C   -0.080132
     5  H    0.179342
     6  C    0.627212
     7  C   -0.364323
     8  H    0.143780
     9  H    0.183743
    10  O   -0.531187
    11  C    0.168614
    12  C   -0.183574
    13  H    0.130272
    14  C   -0.196078
    15  H    0.119936
    16  C   -0.127861
    17  H    0.136546
    18  C   -0.128026
    19  H    0.137330
    20  C   -0.130645
    21  H    0.138156
    22  N   -0.601415
    23  H    0.361032
    24  C   -0.083667
    25  H    0.201472
    26  C    0.646841
    27  C   -0.056042
    28  H    0.187397
    29  H    0.144648
    30  O   -0.549688
    31  O   -0.661897
    32  H    0.438564
    33  N   -0.610216
    34  H    0.365094
    35  C   -0.075872
    36  H    0.205376
    37  C    0.646468
    38  C   -0.058741
    39  H    0.153781
    40  H    0.161912
    41  O   -0.595250
    42  O   -0.622619
    43  H    0.418789
    44  N   -0.571627
    45  H    0.401344
    46  C   -0.085134
    47  H    0.188796
    48  C    0.610970
    49  C   -0.405037
    50  H    0.220212
    51  H    0.201956
    52  O   -0.515918
    53  C    0.635679
    54  O   -0.512870
    55  O   -0.574138
    56  N   -0.600995
    57  H    0.347251
    58  C   -0.079354
    59  H    0.228287
    60  C    0.594289
    61  C   -0.262957
    62  H    0.206671
    63  H    0.127622
    64  O   -0.429161
    65  C   -0.306228
    66  H    0.181018
    67  H    0.186157
    68  C   -0.182665
    69  H    0.193144
    70  H    0.197363
    71  N   -0.586584
    72  H    0.356237
    73  N   -0.762337
    74  H    0.404752
    75  H    0.387253
    76  N   -0.791445
    77  H    0.366772
    78  H    0.422538
    79  C    0.782151
    80  O   -0.586297
    81  H    0.434716
    82  H    0.454631
 Sum of Mulliken charges =   1.00000

 Dipole moment (field-independent basis, Debye):
    X=             15.7658    Y=             -1.7531    Z=              7.1859  Tot=             17.4147
 Quadrupole moment (field-independent basis, Debye-Ang):
   XX=           -171.3315   YY=           -202.0390   ZZ=           -171.6670
   XY=              0.1439   XZ=             56.5517   YZ=            -10.6403

 Normal termination of Gaussian 16 at Wed Jun 29 02:14:35 2022.
