 Gaussian 16, Revision C.01,
 Gaussian 16:  ES64L-G16RevC.01  3-Jul-2019

 ----------------------------------------------------------------------
 # B3LYP/6-31G* empiricaldispersion=gd3bj guess=read geom=check nosymm
 integral(ultrafinegrid)
 ----------------------------------------------------------------------

 ------------------------------------------------------
 Candidate Structure: Conf:399 Charge calc in gas phase
 ------------------------------------------------------
 Structure from the checkpoint file:  "conf-399.chk"
 Charge =  1 Multiplicity = 1

                          Input orientation:
 ---------------------------------------------------------------------
 Center     Atomic      Atomic             Coordinates (Angstroms)
 Number     Number       Type             X           Y           Z
 ---------------------------------------------------------------------
      1          7           0       -0.721399   -5.262691   -2.465348
      2          1           0       -0.893525   -6.266090   -2.426128
      3          1           0       -0.139166   -5.092540   -3.284001
      4          6           0       -1.995706   -4.552340   -2.622763
      5          1           0       -2.520643   -4.847093   -3.547357
      6          6           0       -1.676476   -3.061144   -2.793709
      7          6           0       -2.947626   -4.887638   -1.447862
      8          1           0       -3.895714   -4.355260   -1.588642
      9          1           0       -3.202497   -5.949744   -1.540116
     10          8           0       -0.527141   -2.665383   -3.016537
     11          6           0       -2.395529   -4.626984   -0.063572
     12          6           0       -1.880744   -5.689152    0.690530
     13          1           0       -1.894749   -6.694931    0.278325
     14          6           0       -2.392024   -3.342698    0.498446
     15          1           0       -2.807924   -2.502315   -0.049306
     16          6           0       -1.363019   -5.477146    1.970059
     17          1           0       -0.983181   -6.317090    2.544524
     18          6           0       -1.878046   -3.122647    1.777312
     19          1           0       -1.890158   -2.118232    2.190694
     20          6           0       -1.357513   -4.189934    2.514626
     21          1           0       -0.977434   -4.023950    3.518660
     22          7           0       -2.721834   -2.206488   -2.769786
     23          1           0       -3.639084   -2.544574   -2.512964
     24          6           0       -2.551145   -0.763997   -2.921034
     25          1           0       -1.838306   -0.585980   -3.729171
     26          6           0       -2.017879   -0.168731   -1.607998
     27          6           0       -3.904638   -0.115875   -3.258461
     28          1           0       -4.668588   -0.500082   -2.566130
     29          1           0       -4.190348   -0.394680   -4.276496
     30          8           0       -2.809021    0.121669   -0.696092
     31          8           0       -3.815946    1.287936   -3.210685
     32          1           0       -3.847709    1.536836   -2.272093
     33          7           0       -0.688640   -0.003940   -1.527549
     34          1           0       -0.089465   -0.394890   -2.249000
     35          6           0       -0.012858    0.584940   -0.381772
     36          1           0       -0.420365    1.585259   -0.191351
     37          6           0        1.468640    0.685980   -0.736415
     38          6           0       -0.190002   -0.237951    0.930361
     39          1           0        0.655391   -0.051439    1.602050
     40          1           0       -0.167103   -1.302755    0.655454
     41          8           0        1.970045    0.000967   -1.632420
     42          8           0       -1.350482    0.115309    1.636958
     43          1           0       -2.080597    0.147968    0.981301
     44          7           0        2.187700    1.545096    0.021454
     45          1           0        1.743990    1.955092    0.835850
     46          6           0        3.646436    1.477129    0.056702
     47          1           0        3.973144    1.112793   -0.917511
     48          6           0        4.027335    0.501724    1.183031
     49          6           0        4.228054    2.863355    0.340101
     50          1           0        3.900376    3.582743   -0.415937
     51          1           0        3.871579    3.224830    1.312954
     52          8           0        3.666848    0.735738    2.329069
     53          6           0        5.738865    2.815490    0.391703
     54          8           0        6.391000    1.791510    0.435615
     55          8           0        6.276136    4.044003    0.399667
     56          7           0        4.680016   -0.647458    0.807448
     57          1           0        5.193362   -0.584654   -0.072095
     58          6           0        5.463688   -1.366947    1.822341
     59          1           0        5.574409   -0.715106    2.694090
     60          6           0        6.834732   -1.624989    1.210646
     61          6           0        4.825158   -2.697246    2.274725
     62          1           0        5.479059   -3.126563    3.038370
     63          1           0        4.833843   -3.397223    1.429343
     64          8           0        7.086879   -1.487624    0.033434
     65          6           0        3.388285   -2.530031    2.823350
     66          1           0        3.152091   -1.469223    2.952723
     67          1           0        3.313411   -2.983024    3.816641
     68          6           0        2.322767   -3.194483    1.952169
     69          1           0        2.499487   -4.277466    1.907066
     70          1           0        1.329935   -3.035959    2.390320
     71          7           0        2.347677   -2.657005    0.589371
     72          1           0        3.046348   -1.942569    0.387242
     73          7           0        0.874356   -4.250854   -0.237910
     74          1           0        0.310212   -4.629162   -1.021470
     75          1           0        0.537376   -4.454675    0.693556
     76          7           0        1.970751   -2.833354   -1.701282
     77          1           0        2.363275   -1.900302   -1.796896
     78          1           0        1.212066   -2.997918   -2.363566
     79          6           0        1.715792   -3.238429   -0.441276
     80          8           0        7.710888   -2.061747    2.127183
     81          1           0        8.556459   -2.228246    1.667444
     82          1           0        7.245545    3.938620    0.456567
 ---------------------------------------------------------------------

 SCF Done:  E(RB3LYP) =  -2166.52109959     A.U. after    2 cycles

 Alpha  occ. eigenvalues --  -19.29505 -19.29040 -19.24869 -19.24794 -19.24052
 Alpha  occ. eigenvalues --  -19.23794 -19.23649 -19.23318 -19.23299 -19.22691
 Alpha  occ. eigenvalues --  -14.48813 -14.48637 -14.48080 -14.47525 -14.46783
 Alpha  occ. eigenvalues --  -14.46309 -14.45702 -14.45233 -10.43433 -10.42119
 Alpha  occ. eigenvalues --  -10.42012 -10.41732 -10.41478 -10.40331 -10.40031
 Alpha  occ. eigenvalues --  -10.35221 -10.35038 -10.34864 -10.34143 -10.33899
 Alpha  occ. eigenvalues --  -10.33658 -10.33603 -10.33302 -10.31149 -10.30876
 Alpha  occ. eigenvalues --  -10.30185 -10.29432 -10.29128 -10.29072 -10.29067
 Alpha  occ. eigenvalues --  -10.28902 -10.28815 -10.28414  -1.20617  -1.20236
 Alpha  occ. eigenvalues --   -1.16977  -1.16622  -1.15317  -1.15099  -1.12424
 Alpha  occ. eigenvalues --   -1.11794  -1.11293  -1.11063  -1.10494  -1.05239
 Alpha  occ. eigenvalues --   -1.05049  -1.03989  -1.03476  -1.02241  -1.01851
 Alpha  occ. eigenvalues --   -0.99800  -0.95694  -0.91424  -0.90211  -0.89511
 Alpha  occ. eigenvalues --   -0.87801  -0.85765  -0.85734  -0.84391  -0.82500
 Alpha  occ. eigenvalues --   -0.80206  -0.78481  -0.76872  -0.76732  -0.74666
 Alpha  occ. eigenvalues --   -0.74000  -0.72561  -0.71395  -0.70988  -0.70719
 Alpha  occ. eigenvalues --   -0.70459  -0.69615  -0.69322  -0.69171  -0.68529
 Alpha  occ. eigenvalues --   -0.68176  -0.66273  -0.65378  -0.64455  -0.63078
 Alpha  occ. eigenvalues --   -0.62324  -0.61574  -0.61290  -0.61113  -0.60604
 Alpha  occ. eigenvalues --   -0.60325  -0.59862  -0.59549  -0.59320  -0.59058
 Alpha  occ. eigenvalues --   -0.58825  -0.58750  -0.58496  -0.57703  -0.57195
 Alpha  occ. eigenvalues --   -0.56700  -0.56611  -0.56269  -0.55948  -0.55558
 Alpha  occ. eigenvalues --   -0.55174  -0.55106  -0.54617  -0.53952  -0.53718
 Alpha  occ. eigenvalues --   -0.53265  -0.52845  -0.52151  -0.51923  -0.51766
 Alpha  occ. eigenvalues --   -0.51564  -0.51269  -0.51014  -0.50621  -0.50456
 Alpha  occ. eigenvalues --   -0.50295  -0.49757  -0.49484  -0.49243  -0.48629
 Alpha  occ. eigenvalues --   -0.48431  -0.48382  -0.47614  -0.47508  -0.47039
 Alpha  occ. eigenvalues --   -0.45757  -0.45622  -0.45030  -0.44525  -0.44406
 Alpha  occ. eigenvalues --   -0.44024  -0.43542  -0.42427  -0.41551  -0.41351
 Alpha  occ. eigenvalues --   -0.40098  -0.39908  -0.39201  -0.39018  -0.38443
 Alpha  occ. eigenvalues --   -0.38158  -0.37877  -0.37773  -0.37371  -0.37041
 Alpha  occ. eigenvalues --   -0.36785  -0.36604  -0.36067  -0.35804  -0.35358
 Alpha  occ. eigenvalues --   -0.34889  -0.34747
 Alpha virt. eigenvalues --   -0.11527  -0.11449  -0.10658  -0.10236  -0.09657
 Alpha virt. eigenvalues --   -0.09137  -0.08810  -0.08487  -0.08106  -0.04878
 Alpha virt. eigenvalues --   -0.02843  -0.02384  -0.01694  -0.01422  -0.01125

 Mulliken charges:
               1
     1  N   -0.760962
     2  H    0.331786
     3  H    0.340670
     4  C   -0.068597
     5  H    0.179982
     6  C    0.656114
     7  C   -0.403856
     8  H    0.164015
     9  H    0.175987
    10  O   -0.557291
    11  C    0.194122
    12  C   -0.191787
    13  H    0.138863
    14  C   -0.203225
    15  H    0.143202
    16  C   -0.156440
    17  H    0.156646
    18  C   -0.151727
    19  H    0.191721
    20  C   -0.159323
    21  H    0.155018
    22  N   -0.608838
    23  H    0.349857
    24  C   -0.064165
    25  H    0.192313
    26  C    0.652704
    27  C   -0.049288
    28  H    0.143642
    29  H    0.176458
    30  O   -0.577415
    31  O   -0.606433
    32  H    0.416403
    33  N   -0.612030
    34  H    0.375788
    35  C   -0.069210
    36  H    0.198442
    37  C    0.608688
    38  C   -0.035227
    39  H    0.157594
    40  H    0.138826
    41  O   -0.555156
    42  O   -0.631709
    43  H    0.437975
    44  N   -0.592052
    45  H    0.360126
    46  C   -0.057941
    47  H    0.197096
    48  C    0.625105
    49  C   -0.381923
    50  H    0.210888
    51  H    0.213512
    52  O   -0.511960
    53  C    0.610606
    54  O   -0.472857
    55  O   -0.553777
    56  N   -0.637969
    57  H    0.375694
    58  C   -0.047104
    59  H    0.214878
    60  C    0.599404
    61  C   -0.297244
    62  H    0.190773
    63  H    0.157973
    64  O   -0.458688
    65  C   -0.328707
    66  H    0.204276
    67  H    0.174977
    68  C   -0.157869
    69  H    0.171718
    70  H    0.176505
    71  N   -0.632004
    72  H    0.386027
    73  N   -0.813573
    74  H    0.441664
    75  H    0.377080
    76  N   -0.786539
    77  H    0.384847
    78  H    0.390902
    79  C    0.747667
    80  O   -0.555656
    81  H    0.431552
    82  H    0.428454
 Sum of Mulliken charges =   1.00000

 Dipole moment (field-independent basis, Debye):
    X=              6.1585    Y=            -12.5763    Z=             -2.1846  Tot=             14.1726
 Quadrupole moment (field-independent basis, Debye-Ang):
   XX=           -165.7780   YY=           -157.9818   ZZ=           -231.6052
   XY=             23.8417   XZ=             32.7930   YZ=             12.7413

 Normal termination of Gaussian 16 at Wed Jun 29 02:14:29 2022.
