 Gaussian 16, Revision C.01,
 Gaussian 16:  ES64L-G16RevC.01  3-Jul-2019

 ----------------------------------------------------------------------
 # B3LYP/6-31G* empiricaldispersion=gd3bj guess=read geom=check nosymm
 integral(ultrafinegrid)
 ----------------------------------------------------------------------

 ------------------------------------------------------
 Candidate Structure: Conf:879 Charge calc in gas phase
 ------------------------------------------------------
 Structure from the checkpoint file:  "conf-879.chk"
 Charge =  1 Multiplicity = 1

                          Input orientation:
 ---------------------------------------------------------------------
 Center     Atomic      Atomic             Coordinates (Angstroms)
 Number     Number       Type             X           Y           Z
 ---------------------------------------------------------------------
      1          7           0       -4.917054   -1.240560   -3.903820
      2          1           0       -4.674225   -1.871896   -3.143159
      3          1           0       -5.843967   -0.863672   -3.719965
      4          6           0       -3.948088   -0.164882   -3.965539
      5          1           0       -4.068224    0.356308   -4.924763
      6          6           0       -2.553151   -0.766383   -3.886275
      7          6           0       -4.033623    0.915246   -2.828542
      8          1           0       -3.771428    0.442578   -1.876064
      9          1           0       -3.280794    1.691601   -3.021341
     10          8           0       -2.310577   -1.751234   -3.173963
     11          6           0       -5.406597    1.529328   -2.756557
     12          6           0       -5.759525    2.597829   -3.590793
     13          1           0       -5.014396    3.022595   -4.260052
     14          6           0       -6.379025    0.997466   -1.899551
     15          1           0       -6.113187    0.174985   -1.239947
     16          6           0       -7.049864    3.124456   -3.569174
     17          1           0       -7.305401    3.955852   -4.219788
     18          6           0       -7.673024    1.520488   -1.876871
     19          1           0       -8.414721    1.097595   -1.205206
     20          6           0       -8.011640    2.584897   -2.712428
     21          1           0       -9.017585    2.993685   -2.695746
     22          7           0       -1.578654   -0.101723   -4.566568
     23          1           0       -1.834131    0.798728   -4.956510
     24          6           0       -0.146160   -0.301840   -4.286456
     25          1           0        0.035065   -1.379078   -4.279151
     26          6           0        0.151416    0.300885   -2.908310
     27          6           0        0.701414    0.326746   -5.388936
     28          1           0        1.750654    0.230729   -5.100881
     29          1           0        0.473432    1.401820   -5.462689
     30          8           0        0.481290    1.480797   -2.758716
     31          8           0        0.551572   -0.346823   -6.621413
     32          1           0       -0.390732   -0.351236   -6.853249
     33          7           0       -0.058222   -0.547085   -1.876589
     34          1           0       -0.442787   -1.454225   -2.114943
     35          6           0       -0.195943   -0.091335   -0.496388
     36          1           0       -0.637635    0.912753   -0.521720
     37          6           0        1.199943   -0.006858    0.136373
     38          6           0       -1.136313   -1.033434    0.263841
     39          1           0       -1.186336   -0.710949    1.307190
     40          1           0       -0.715045   -2.048519    0.261697
     41          8           0        1.553592   -0.763859    1.053192
     42          8           0       -2.456331   -1.002155   -0.240619
     43          1           0       -2.478491   -1.435897   -1.116149
     44          7           0        1.976438    0.945119   -0.421432
     45          1           0        1.568400    1.420591   -1.230593
     46          6           0        3.438099    0.962921   -0.302936
     47          1           0        3.785017   -0.077094   -0.295359
     48          6           0        3.863941    1.634055    1.019747
     49          6           0        4.043044    1.701361   -1.489383
     50          1           0        3.646855    2.720695   -1.555183
     51          1           0        5.119627    1.825220   -1.337814
     52          8           0        4.391406    2.736830    1.077183
     53          6           0        3.813952    0.993159   -2.807015
     54          8           0        3.221105   -0.054964   -2.961172
     55          8           0        4.368138    1.682497   -3.822913
     56          7           0        3.567836    0.882898    2.113645
     57          1           0        3.095157   -0.006528    1.959211
     58          6           0        3.856075    1.342885    3.442669
     59          1           0        3.782208    2.436764    3.447331
     60          6           0        5.294681    1.002767    3.849319
     61          6           0        2.857406    0.748980    4.451477
     62          1           0        3.097402    1.155635    5.439575
     63          1           0        3.002334   -0.339095    4.504845
     64          8           0        6.063462    0.301581    3.222800
     65          6           0        1.403691    1.046067    4.070250
     66          1           0        1.167358    0.574108    3.111000
     67          1           0        1.280314    2.129437    3.925086
     68          6           0        0.396397    0.516171    5.093088
     69          1           0       -0.636286    0.697413    4.778432
     70          1           0        0.505051   -0.565307    5.207599
     71          7           0        0.557071    1.087059    6.446463
     72          1           0        1.191066    0.615574    7.078207
     73          7           0       -0.544508    3.080222    5.991679
     74          1           0       -1.125063    3.842012    6.312242
     75          1           0       -0.413512    2.977729    4.995984
     76          7           0        0.104318    2.585634    8.155777
     77          1           0        0.328271    1.903947    8.866810
     78          1           0       -0.050267    3.537089    8.457763
     79          6           0        0.048328    2.247257    6.856983
     80          8           0        5.599537    1.588140    5.037420
     81          1           0        6.526425    1.351744    5.232394
     82          1           0        4.208114    1.170457   -4.638048
 ---------------------------------------------------------------------

 SCF Done:  E(RB3LYP) =  -2166.44302343     A.U. after    1 cycles

 Alpha  occ. eigenvalues --  -19.28049 -19.26441 -19.22074 -19.21779 -19.21182
 Alpha  occ. eigenvalues --  -19.21132 -19.21087 -19.20926 -19.20698 -19.19050
 Alpha  occ. eigenvalues --  -14.55128 -14.55086 -14.55017 -14.45480 -14.44546
 Alpha  occ. eigenvalues --  -14.43754 -14.43091 -14.37104 -10.51468 -10.40118
 Alpha  occ. eigenvalues --  -10.39393 -10.38004 -10.37452 -10.37427 -10.37358
 Alpha  occ. eigenvalues --  -10.36087 -10.33066 -10.31917 -10.31567 -10.31533
 Alpha  occ. eigenvalues --  -10.31413 -10.31279 -10.30986 -10.30475 -10.29538
 Alpha  occ. eigenvalues --  -10.27566 -10.25739 -10.25628 -10.24755 -10.24733
 Alpha  occ. eigenvalues --  -10.24678 -10.24668 -10.24499  -1.19928  -1.18426
 Alpha  occ. eigenvalues --   -1.17571  -1.13161  -1.12382  -1.11821  -1.10993
 Alpha  occ. eigenvalues --   -1.09397  -1.09227  -1.09053  -1.08749  -1.08584
 Alpha  occ. eigenvalues --   -1.08057  -1.01636  -1.01305  -1.00956  -1.00255
 Alpha  occ. eigenvalues --   -0.95368  -0.93127  -0.91151  -0.88188  -0.86906
 Alpha  occ. eigenvalues --   -0.85550  -0.83833  -0.83097  -0.82627  -0.80144
 Alpha  occ. eigenvalues --   -0.80112  -0.77943  -0.77586  -0.77269  -0.74716
 Alpha  occ. eigenvalues --   -0.73507  -0.72535  -0.71772  -0.71172  -0.69879
 Alpha  occ. eigenvalues --   -0.68723  -0.68127  -0.67529  -0.66983  -0.66726
 Alpha  occ. eigenvalues --   -0.66260  -0.65862  -0.65645  -0.63825  -0.63294
 Alpha  occ. eigenvalues --   -0.61750  -0.61737  -0.60783  -0.60016  -0.59684
 Alpha  occ. eigenvalues --   -0.59075  -0.58665  -0.58032  -0.57758  -0.57180
 Alpha  occ. eigenvalues --   -0.57012  -0.56593  -0.56213  -0.55775  -0.55518
 Alpha  occ. eigenvalues --   -0.55226  -0.55063  -0.53089  -0.53025  -0.52741
 Alpha  occ. eigenvalues --   -0.52643  -0.52393  -0.51990  -0.51734  -0.51266
 Alpha  occ. eigenvalues --   -0.50842  -0.50436  -0.49633  -0.49408  -0.49182
 Alpha  occ. eigenvalues --   -0.48699  -0.48475  -0.47978  -0.47711  -0.47585
 Alpha  occ. eigenvalues --   -0.47463  -0.47123  -0.46755  -0.46356  -0.46330
 Alpha  occ. eigenvalues --   -0.46149  -0.45765  -0.45528  -0.45490  -0.45272
 Alpha  occ. eigenvalues --   -0.45029  -0.44658  -0.43763  -0.43419  -0.42851
 Alpha  occ. eigenvalues --   -0.41353  -0.40846  -0.40090  -0.39866  -0.39790
 Alpha  occ. eigenvalues --   -0.39670  -0.38800  -0.37369  -0.36472  -0.36086
 Alpha  occ. eigenvalues --   -0.35671  -0.35215  -0.34794  -0.34486  -0.34290
 Alpha  occ. eigenvalues --   -0.33419  -0.33057  -0.32122  -0.31624  -0.30958
 Alpha  occ. eigenvalues --   -0.30495  -0.29030
 Alpha virt. eigenvalues --   -0.15358  -0.11165  -0.08283  -0.07760  -0.07577
 Alpha virt. eigenvalues --   -0.07382  -0.06998  -0.06797  -0.05939  -0.05773
 Alpha virt. eigenvalues --   -0.05431  -0.05129  -0.05031  -0.02167  -0.01185

 Mulliken charges:
               1
     1  N   -0.711959
     2  H    0.312805
     3  H    0.316858
     4  C   -0.062252
     5  H    0.148869
     6  C    0.648907
     7  C   -0.398255
     8  H    0.175297
     9  H    0.137991
    10  O   -0.559649
    11  C    0.172734
    12  C   -0.176901
    13  H    0.121336
    14  C   -0.199480
    15  H    0.132952
    16  C   -0.127245
    17  H    0.141654
    18  C   -0.127931
    19  H    0.138991
    20  C   -0.128814
    21  H    0.142033
    22  N   -0.606913
    23  H    0.342644
    24  C   -0.089465
    25  H    0.200908
    26  C    0.660494
    27  C   -0.049723
    28  H    0.173341
    29  H    0.141906
    30  O   -0.568168
    31  O   -0.603939
    32  H    0.399249
    33  N   -0.595781
    34  H    0.363418
    35  C   -0.089596
    36  H    0.182754
    37  C    0.649524
    38  C   -0.052970
    39  H    0.140438
    40  H    0.158357
    41  O   -0.568333
    42  O   -0.636457
    43  H    0.424501
    44  N   -0.619895
    45  H    0.395353
    46  C   -0.057571
    47  H    0.197068
    48  C    0.636303
    49  C   -0.395736
    50  H    0.210744
    51  H    0.219942
    52  O   -0.519875
    53  C    0.598621
    54  O   -0.474972
    55  O   -0.559320
    56  N   -0.622584
    57  H    0.375224
    58  C   -0.025979
    59  H    0.193674
    60  C    0.594290
    61  C   -0.309488
    62  H    0.154028
    63  H    0.168327
    64  O   -0.440797
    65  C   -0.291060
    66  H    0.213118
    67  H    0.138966
    68  C   -0.194068
    69  H    0.192009
    70  H    0.208793
    71  N   -0.581812
    72  H    0.372279
    73  N   -0.752767
    74  H    0.389862
    75  H    0.397705
    76  N   -0.759853
    77  H    0.389624
    78  H    0.389832
    79  C    0.828059
    80  O   -0.579088
    81  H    0.423987
    82  H    0.422927
 Sum of Mulliken charges =   1.00000

 Dipole moment (field-independent basis, Debye):
    X=             -2.9764    Y=             11.3138    Z=             26.5041  Tot=             28.9711
 Quadrupole moment (field-independent basis, Debye-Ang):
   XX=           -228.3304   YY=           -226.3641   ZZ=             -1.1410
   XY=            -18.6466   XZ=             17.2155   YZ=             52.5306

 Normal termination of Gaussian 16 at Wed Jun 29 02:13:45 2022.
