 Gaussian 16, Revision C.01,
 Gaussian 16:  ES64L-G16RevC.01  3-Jul-2019

 ----------------------------------------------------------------------
 # B3LYP/6-31G* empiricaldispersion=gd3bj guess=read geom=check nosymm
 integral(ultrafinegrid)
 ----------------------------------------------------------------------

 ------------------------------------------------------
 Candidate Structure: Conf:876 Charge calc in gas phase
 ------------------------------------------------------
 Structure from the checkpoint file:  "conf-876.chk"
 Charge =  1 Multiplicity = 1

                          Input orientation:
 ---------------------------------------------------------------------
 Center     Atomic      Atomic             Coordinates (Angstroms)
 Number     Number       Type             X           Y           Z
 ---------------------------------------------------------------------
      1          7           0       -2.510493   -4.543387   -0.140988
      2          1           0       -1.897046   -4.259290    0.622294
      3          1           0       -3.217076   -5.146981    0.276226
      4          6           0       -3.168304   -3.353980   -0.678876
      5          1           0       -3.995534   -3.692142   -1.312399
      6          6           0       -2.178620   -2.594288   -1.569611
      7          6           0       -3.752914   -2.413373    0.425678
      8          1           0       -4.439641   -3.024809    1.023706
      9          1           0       -2.928138   -2.114191    1.084894
     10          8           0       -0.943700   -2.751729   -1.469213
     11          6           0       -4.452155   -1.191294   -0.116785
     12          6           0       -3.834376    0.062919   -0.063269
     13          1           0       -2.890757    0.166943    0.463493
     14          6           0       -5.665978   -1.316039   -0.808110
     15          1           0       -6.168455   -2.280244   -0.847296
     16          6           0       -4.392668    1.165064   -0.709581
     17          1           0       -3.883044    2.122548   -0.683684
     18          6           0       -6.231498   -0.214245   -1.453231
     19          1           0       -7.171204   -0.324598   -1.986139
     20          6           0       -5.590208    1.026232   -1.413647
     21          1           0       -6.024044    1.880165   -1.924357
     22          7           0       -2.715593   -1.721794   -2.432785
     23          1           0       -3.712720   -1.547633   -2.360825
     24          6           0       -1.961207   -0.810586   -3.294009
     25          1           0       -1.142460   -1.374235   -3.751899
     26          6           0       -1.355587    0.370759   -2.499133
     27          6           0       -2.900020   -0.281059   -4.390199
     28          1           0       -3.768737    0.194757   -3.907086
     29          1           0       -3.259378   -1.125957   -4.985636
     30          8           0       -1.702342    1.535522   -2.694541
     31          8           0       -2.230980    0.596527   -5.258194
     32          1           0       -2.042816    1.388416   -4.722169
     33          7           0       -0.404962    0.018113   -1.602876
     34          1           0       -0.163383   -0.964928   -1.511528
     35          6           0        0.375596    0.996408   -0.882118
     36          1           0        0.393442    1.922034   -1.463209
     37          6           0        1.773234    0.458307   -0.647747
     38          6           0       -0.226562    1.324684    0.518539
     39          1           0       -0.357717    0.373654    1.061673
     40          1           0       -1.213808    1.763502    0.350892
     41          8           0        1.991890   -0.740206   -0.406856
     42          8           0        0.536976    2.258975    1.233025
     43          1           0        1.335834    1.817840    1.586039
     44          7           0        2.721476    1.409702   -0.591938
     45          1           0        2.489581    2.363562   -0.852290
     46          6           0        4.037235    1.182880   -0.040352
     47          1           0        4.603982    0.499502   -0.684520
     48          6           0        3.907439    0.576210    1.372992
     49          6           0        4.792958    2.523715    0.105027
     50          1           0        4.294910    3.115910    0.881549
     51          1           0        5.819023    2.331395    0.421812
     52          8           0        2.964254    0.856433    2.114268
     53          6           0        4.775170    3.352373   -1.164199
     54          8           0        3.757736    3.740517   -1.703916
     55          8           0        6.006823    3.621466   -1.621049
     56          7           0        4.937227   -0.217259    1.728255
     57          1           0        5.636879   -0.480203    1.041053
     58          6           0        5.027880   -0.943214    2.985411
     59          1           0        5.199838   -0.246821    3.814554
     60          6           0        6.251347   -1.842026    2.862363
     61          6           0        3.753372   -1.761774    3.305395
     62          1           0        2.980350   -1.035995    3.564695
     63          1           0        3.951065   -2.366604    4.194637
     64          8           0        6.888141   -1.988333    1.840667
     65          6           0        3.281893   -2.620762    2.121273
     66          1           0        3.724462   -3.625211    2.168773
     67          1           0        3.613032   -2.177865    1.178410
     68          6           0        1.751386   -2.680024    2.059778
     69          1           0        1.320092   -3.242463    2.895614
     70          1           0        1.366310   -1.660230    2.116785
     71          7           0        1.238905   -3.224648    0.803187
     72          1           0        1.145862   -2.545266    0.047283
     73          7           0        1.495560   -5.447597    1.430442
     74          1           0        1.400075   -6.427940    1.209452
     75          1           0        2.203574   -5.214743    2.110666
     76          7           0        0.557415   -4.896285   -0.633523
     77          1           0       -0.097172   -4.231532   -1.078298
     78          1           0        0.378029   -5.876372   -0.799229
     79          6           0        1.107396   -4.520188    0.523902
     80          8           0        6.526009   -2.466219    4.017238
     81          1           0        7.321465   -3.013834    3.871469
     82          1           0        5.906504    4.175570   -2.420176
 ---------------------------------------------------------------------

 SCF Done:  E(RB3LYP) =  -2166.49949583     A.U. after    2 cycles

 Alpha  occ. eigenvalues --  -19.30762 -19.29342 -19.25404 -19.23893 -19.23779
 Alpha  occ. eigenvalues --  -19.23184 -19.22921 -19.21253 -19.20598 -19.20296
 Alpha  occ. eigenvalues --  -14.50876 -14.49344 -14.48160 -14.47254 -14.47107
 Alpha  occ. eigenvalues --  -14.46196 -14.44416 -14.42763 -10.46033 -10.43314
 Alpha  occ. eigenvalues --  -10.42197 -10.40134 -10.40116 -10.39150 -10.37564
 Alpha  occ. eigenvalues --  -10.35186 -10.35118 -10.34418 -10.33401 -10.32129
 Alpha  occ. eigenvalues --  -10.31820 -10.31782 -10.31139 -10.30851 -10.30019
 Alpha  occ. eigenvalues --  -10.29731 -10.29318 -10.28464 -10.27523 -10.27393
 Alpha  occ. eigenvalues --  -10.27187 -10.27053 -10.26957  -1.21923  -1.20379
 Alpha  occ. eigenvalues --   -1.15416  -1.15247  -1.14669  -1.13928  -1.13046
 Alpha  occ. eigenvalues --   -1.12433  -1.11394  -1.09114  -1.08173  -1.04212
 Alpha  occ. eigenvalues --   -1.04071  -1.03656  -1.03386  -1.02651  -1.01248
 Alpha  occ. eigenvalues --   -0.99965  -0.94178  -0.91922  -0.90021  -0.87821
 Alpha  occ. eigenvalues --   -0.86774  -0.85902  -0.83615  -0.82797  -0.80905
 Alpha  occ. eigenvalues --   -0.80301  -0.79332  -0.76390  -0.74918  -0.74365
 Alpha  occ. eigenvalues --   -0.73663  -0.73193  -0.71902  -0.71669  -0.70274
 Alpha  occ. eigenvalues --   -0.69443  -0.68880  -0.68738  -0.68309  -0.67908
 Alpha  occ. eigenvalues --   -0.67221  -0.66730  -0.64142  -0.63991  -0.63453
 Alpha  occ. eigenvalues --   -0.62892  -0.62619  -0.61402  -0.60504  -0.60193
 Alpha  occ. eigenvalues --   -0.59880  -0.59728  -0.58977  -0.58820  -0.58629
 Alpha  occ. eigenvalues --   -0.58341  -0.57871  -0.57483  -0.57328  -0.56437
 Alpha  occ. eigenvalues --   -0.55907  -0.55391  -0.55224  -0.55189  -0.54890
 Alpha  occ. eigenvalues --   -0.54625  -0.54139  -0.53820  -0.53116  -0.52722
 Alpha  occ. eigenvalues --   -0.52268  -0.52225  -0.51673  -0.51396  -0.50980
 Alpha  occ. eigenvalues --   -0.50388  -0.50268  -0.50010  -0.49834  -0.49518
 Alpha  occ. eigenvalues --   -0.49143  -0.48677  -0.48525  -0.48347  -0.48080
 Alpha  occ. eigenvalues --   -0.47794  -0.47429  -0.47123  -0.46333  -0.45940
 Alpha  occ. eigenvalues --   -0.45815  -0.45277  -0.45152  -0.44093  -0.42946
 Alpha  occ. eigenvalues --   -0.42679  -0.42288  -0.41740  -0.41439  -0.40919
 Alpha  occ. eigenvalues --   -0.40378  -0.39009  -0.38868  -0.38427  -0.37872
 Alpha  occ. eigenvalues --   -0.37727  -0.37493  -0.37159  -0.36834  -0.36056
 Alpha  occ. eigenvalues --   -0.35465  -0.35434  -0.34047  -0.33514  -0.33000
 Alpha  occ. eigenvalues --   -0.32621  -0.32319
 Alpha virt. eigenvalues --   -0.10636  -0.10510  -0.10035  -0.09815  -0.08969
 Alpha virt. eigenvalues --   -0.08875  -0.08625  -0.07891  -0.06920  -0.06446
 Alpha virt. eigenvalues --   -0.03815  -0.02899  -0.02550  -0.01983  -0.01057

 Mulliken charges:
               1
     1  N   -0.719982
     2  H    0.301454
     3  H    0.319625
     4  C   -0.101083
     5  H    0.175415
     6  C    0.670200
     7  C   -0.356718
     8  H    0.167356
     9  H    0.147095
    10  O   -0.609517
    11  C    0.134822
    12  C   -0.183370
    13  H    0.134378
    14  C   -0.212965
    15  H    0.137287
    16  C   -0.122404
    17  H    0.165162
    18  C   -0.127638
    19  H    0.155924
    20  C   -0.135910
    21  H    0.158835
    22  N   -0.590399
    23  H    0.366620
    24  C   -0.086708
    25  H    0.195027
    26  C    0.638480
    27  C   -0.046869
    28  H    0.142585
    29  H    0.158936
    30  O   -0.540305
    31  O   -0.620299
    32  H    0.420956
    33  N   -0.644585
    34  H    0.385326
    35  C   -0.060915
    36  H    0.198348
    37  C    0.617937
    38  C   -0.033462
    39  H    0.115367
    40  H    0.178959
    41  O   -0.585371
    42  O   -0.642351
    43  H    0.434341
    44  N   -0.606096
    45  H    0.387775
    46  C   -0.036929
    47  H    0.182061
    48  C    0.656911
    49  C   -0.395379
    50  H    0.219661
    51  H    0.199813
    52  O   -0.547715
    53  C    0.599204
    54  O   -0.455221
    55  O   -0.545159
    56  N   -0.631982
    57  H    0.367029
    58  C   -0.017167
    59  H    0.209540
    60  C    0.584834
    61  C   -0.302887
    62  H    0.199576
    63  H    0.177606
    64  O   -0.459989
    65  C   -0.291995
    66  H    0.134266
    67  H    0.189671
    68  C   -0.180327
    69  H    0.169773
    70  H    0.203342
    71  N   -0.604100
    72  H    0.408970
    73  N   -0.758965
    74  H    0.370711
    75  H    0.376388
    76  N   -0.761496
    77  H    0.441211
    78  H    0.356291
    79  C    0.757702
    80  O   -0.558794
    81  H    0.432724
    82  H    0.429560
 Sum of Mulliken charges =   1.00000

 Dipole moment (field-independent basis, Debye):
    X=              7.1197    Y=            -15.9787    Z=              5.0800  Tot=             18.2158
 Quadrupole moment (field-independent basis, Debye-Ang):
   XX=           -142.1276   YY=           -151.8256   ZZ=           -238.7416
   XY=              6.7167   XZ=             28.8487   YZ=            -27.4083

 Normal termination of Gaussian 16 at Wed Jun 29 02:14:08 2022.
