 Gaussian 16, Revision C.01,
 Gaussian 16:  ES64L-G16RevC.01  3-Jul-2019

 ----------------------------------------------------------------------
 # B3LYP/6-31G* empiricaldispersion=gd3bj guess=read geom=check nosymm
 integral(ultrafinegrid)
 ----------------------------------------------------------------------

 ------------------------------------------------------
 Candidate Structure: Conf:797 Charge calc in gas phase
 ------------------------------------------------------
 Structure from the checkpoint file:  "conf-797.chk"
 Charge =  1 Multiplicity = 1

                          Input orientation:
 ---------------------------------------------------------------------
 Center     Atomic      Atomic             Coordinates (Angstroms)
 Number     Number       Type             X           Y           Z
 ---------------------------------------------------------------------
      1          7           0       -2.428042   -2.472788   -2.989544
      2          1           0       -1.416895   -2.590683   -3.017822
      3          1           0       -2.815938   -3.098741   -2.288578
      4          6           0       -2.738727   -1.091731   -2.695567
      5          1           0       -3.800988   -0.906720   -2.899474
      6          6           0       -1.850983   -0.189091   -3.552754
      7          6           0       -2.420329   -0.608107   -1.239409
      8          1           0       -1.340088   -0.732770   -1.107269
      9          1           0       -2.635932    0.466502   -1.186245
     10          8           0       -0.640092   -0.401323   -3.618976
     11          6           0       -3.149469   -1.329223   -0.141580
     12          6           0       -4.397182   -0.879184    0.318576
     13          1           0       -4.862979   -0.019803   -0.160109
     14          6           0       -2.582025   -2.458650    0.470094
     15          1           0       -1.620164   -2.823611    0.118038
     16          6           0       -5.048373   -1.522542    1.373300
     17          1           0       -6.010526   -1.155744    1.717725
     18          6           0       -3.234162   -3.108182    1.522901
     19          1           0       -2.782036   -3.983512    1.980567
     20          6           0       -4.465274   -2.635704    1.982707
     21          1           0       -4.969992   -3.135342    2.803430
     22          7           0       -2.432784    0.934443   -4.043094
     23          1           0       -3.428261    0.955990   -4.223454
     24          6           0       -1.632497    2.004654   -4.637981
     25          1           0       -0.899658    1.567026   -5.322730
     26          6           0       -0.938053    2.712084   -3.458916
     27          6           0       -2.550988    2.974494   -5.376664
     28          1           0       -1.931260    3.661170   -5.969617
     29          1           0       -3.108672    3.566475   -4.640051
     30          8           0       -1.537371    3.575804   -2.800239
     31          8           0       -3.412624    2.189266   -6.188511
     32          1           0       -4.015680    2.785861   -6.656846
     33          7           0        0.295015    2.264611   -3.155661
     34          1           0        0.603297    1.384203   -3.571477
     35          6           0        0.933012    2.586130   -1.889545
     36          1           0        1.159053    3.657448   -1.831763
     37          6           0        2.216345    1.747928   -1.794588
     38          6           0        0.064111    2.186438   -0.670555
     39          1           0        0.714306    1.985462    0.178742
     40          1           0       -0.443298    1.250487   -0.933950
     41          8           0        2.389633    0.766361   -2.499111
     42          8           0       -0.858440    3.183282   -0.242873
     43          1           0       -1.254523    3.550271   -1.072673
     44          7           0        3.086732    2.137917   -0.806345
     45          1           0        2.753310    2.846578   -0.162820
     46          6           0        3.957488    1.146912   -0.197095
     47          1           0        3.984402    0.294449   -0.879502
     48          6           0        3.326721    0.702441    1.141361
     49          6           0        5.391195    1.677722   -0.020045
     50          1           0        5.652444    2.278993   -0.897388
     51          1           0        5.483420    2.342339    0.847216
     52          8           0        2.454720    1.402140    1.685112
     53          6           0        6.409481    0.562834    0.100447
     54          8           0        6.147752   -0.626073    0.097828
     55          8           0        7.656371    1.039300    0.189428
     56          7           0        3.769559   -0.456285    1.646912
     57          1           0        4.573443   -0.897703    1.194658
     58          6           0        3.341087   -0.968262    2.936947
     59          1           0        2.919713   -0.133864    3.505586
     60          6           0        4.574381   -1.465169    3.684373
     61          6           0        2.288333   -2.092023    2.790737
     62          1           0        2.109766   -2.535649    3.776251
     63          1           0        2.720003   -2.877768    2.161080
     64          8           0        5.686001   -1.521172    3.214619
     65          6           0        0.968644   -1.610346    2.172291
     66          1           0        0.421085   -2.472688    1.774469
     67          1           0        1.169336   -0.951581    1.320865
     68          6           0        0.064592   -0.884016    3.179492
     69          1           0       -0.308275   -1.586774    3.931043
     70          1           0        0.603116   -0.104469    3.722819
     71          7           0       -1.095118   -0.267627    2.534095
     72          1           0       -1.783469   -0.901304    2.137068
     73          7           0       -0.200610    1.888848    2.464242
     74          1           0       -0.342590    2.833527    2.123941
     75          1           0        0.773985    1.582177    2.452055
     76          7           0       -2.288390    1.483545    1.572459
     77          1           0       -3.045686    0.838106    1.378062
     78          1           0       -2.137865    2.257128    0.915859
     79          6           0       -1.181514    1.018048    2.174881
     80          8           0        4.256977   -1.844979    4.936681
     81          1           0        5.077957   -2.162852    5.359675
     82          1           0        8.257914    0.272763    0.262629
 ---------------------------------------------------------------------

 SCF Done:  E(RB3LYP) =  -2166.49523189     A.U. after    1 cycles

 Alpha  occ. eigenvalues --  -19.29995 -19.29411 -19.25191 -19.24484 -19.24425
 Alpha  occ. eigenvalues --  -19.24377 -19.23428 -19.22771 -19.22287 -19.20869
 Alpha  occ. eigenvalues --  -14.50275 -14.48262 -14.48243 -14.47339 -14.46531
 Alpha  occ. eigenvalues --  -14.45495 -14.45377 -14.39500 -10.45554 -10.42611
 Alpha  occ. eigenvalues --  -10.42558 -10.40958 -10.39718 -10.38933 -10.37649
 Alpha  occ. eigenvalues --  -10.35136 -10.35126 -10.34527 -10.34000 -10.33885
 Alpha  occ. eigenvalues --  -10.32539 -10.32201 -10.31706 -10.31029 -10.30942
 Alpha  occ. eigenvalues --  -10.30697 -10.30587 -10.30212 -10.30080 -10.30022
 Alpha  occ. eigenvalues --  -10.29966 -10.29672 -10.29251  -1.21021  -1.20745
 Alpha  occ. eigenvalues --   -1.16085  -1.14993  -1.14459  -1.14097  -1.12800
 Alpha  occ. eigenvalues --   -1.12226  -1.11767  -1.11719  -1.10769  -1.04543
 Alpha  occ. eigenvalues --   -1.04126  -1.03525  -1.02522  -1.01737  -1.01478
 Alpha  occ. eigenvalues --   -0.97923  -0.96217  -0.92344  -0.90183  -0.88323
 Alpha  occ. eigenvalues --   -0.87250  -0.86700  -0.85529  -0.84868  -0.81540
 Alpha  occ. eigenvalues --   -0.81158  -0.79399  -0.76570  -0.75941  -0.74990
 Alpha  occ. eigenvalues --   -0.73502  -0.72436  -0.71792  -0.71670  -0.71193
 Alpha  occ. eigenvalues --   -0.70002  -0.69573  -0.69118  -0.68744  -0.67705
 Alpha  occ. eigenvalues --   -0.67485  -0.67343  -0.65306  -0.63401  -0.62827
 Alpha  occ. eigenvalues --   -0.62488  -0.62238  -0.61616  -0.61060  -0.60971
 Alpha  occ. eigenvalues --   -0.60237  -0.59958  -0.59768  -0.59396  -0.58841
 Alpha  occ. eigenvalues --   -0.58344  -0.57972  -0.57736  -0.57384  -0.57346
 Alpha  occ. eigenvalues --   -0.56632  -0.56528  -0.56187  -0.55595  -0.55527
 Alpha  occ. eigenvalues --   -0.54998  -0.54408  -0.54076  -0.53590  -0.53186
 Alpha  occ. eigenvalues --   -0.53003  -0.52822  -0.52432  -0.52126  -0.51987
 Alpha  occ. eigenvalues --   -0.51649  -0.50941  -0.50692  -0.50434  -0.50224
 Alpha  occ. eigenvalues --   -0.49867  -0.49084  -0.48617  -0.48367  -0.48235
 Alpha  occ. eigenvalues --   -0.47884  -0.47711  -0.47155  -0.46877  -0.46700
 Alpha  occ. eigenvalues --   -0.46547  -0.46366  -0.45692  -0.45680  -0.45322
 Alpha  occ. eigenvalues --   -0.44450  -0.44231  -0.42500  -0.42110  -0.41867
 Alpha  occ. eigenvalues --   -0.40404  -0.39338  -0.38874  -0.38528  -0.38207
 Alpha  occ. eigenvalues --   -0.37955  -0.37471  -0.37319  -0.36864  -0.36515
 Alpha  occ. eigenvalues --   -0.36198  -0.35898  -0.35783  -0.35661  -0.34669
 Alpha  occ. eigenvalues --   -0.33745  -0.31376
 Alpha virt. eigenvalues --   -0.11968  -0.11664  -0.10756  -0.09918  -0.09573
 Alpha virt. eigenvalues --   -0.09301  -0.09024  -0.08449  -0.06724  -0.04106
 Alpha virt. eigenvalues --   -0.02577  -0.02200  -0.01664  -0.01400  -0.00945

 Mulliken charges:
               1
     1  N   -0.708675
     2  H    0.322480
     3  H    0.308386
     4  C   -0.043357
     5  H    0.146173
     6  C    0.634632
     7  C   -0.381169
     8  H    0.166554
     9  H    0.142781
    10  O   -0.537052
    11  C    0.159249
    12  C   -0.225502
    13  H    0.150492
    14  C   -0.239929
    15  H    0.148426
    16  C   -0.122559
    17  H    0.166163
    18  C   -0.139144
    19  H    0.158492
    20  C   -0.128313
    21  H    0.164942
    22  N   -0.603130
    23  H    0.357408
    24  C   -0.048367
    25  H    0.194532
    26  C    0.631765
    27  C   -0.068951
    28  H    0.158836
    29  H    0.167072
    30  O   -0.573617
    31  O   -0.623940
    32  H    0.414540
    33  N   -0.605264
    34  H    0.401176
    35  C   -0.069491
    36  H    0.193967
    37  C    0.580888
    38  C   -0.077857
    39  H    0.160466
    40  H    0.153747
    41  O   -0.482586
    42  O   -0.681224
    43  H    0.451459
    44  N   -0.586034
    45  H    0.342175
    46  C   -0.089451
    47  H    0.229458
    48  C    0.613939
    49  C   -0.375328
    50  H    0.224935
    51  H    0.201768
    52  O   -0.574926
    53  C    0.613875
    54  O   -0.472353
    55  O   -0.546627
    56  N   -0.595615
    57  H    0.409040
    58  C   -0.067203
    59  H    0.195007
    60  C    0.587818
    61  C   -0.277007
    62  H    0.180690
    63  H    0.173115
    64  O   -0.442603
    65  C   -0.275848
    66  H    0.158601
    67  H    0.161727
    68  C   -0.174406
    69  H    0.189631
    70  H    0.187315
    71  N   -0.603839
    72  H    0.371978
    73  N   -0.765007
    74  H    0.379984
    75  H    0.411710
    76  N   -0.776403
    77  H    0.367036
    78  H    0.395490
    79  C    0.749961
    80  O   -0.562274
    81  H    0.432352
    82  H    0.432825
 Sum of Mulliken charges =   1.00000

 Dipole moment (field-independent basis, Debye):
    X=             -0.1841    Y=              2.1169    Z=              6.1012  Tot=              6.4607
 Quadrupole moment (field-independent basis, Debye-Ang):
   XX=           -161.5543   YY=           -221.0310   ZZ=           -202.4538
   XY=              0.7374   XZ=             25.8808   YZ=            -39.4784

 Normal termination of Gaussian 16 at Wed Jun 29 02:13:48 2022.
