 Gaussian 16, Revision C.01,
 Gaussian 16:  ES64L-G16RevC.01  3-Jul-2019

 ----------------------------------------------------------------------
 # B3LYP/6-31G* empiricaldispersion=gd3bj guess=read geom=check nosymm
 integral(ultrafinegrid)
 ----------------------------------------------------------------------

 ------------------------------------------------------
 Candidate Structure: Conf:112 Charge calc in gas phase
 ------------------------------------------------------
 Structure from the checkpoint file:  "conf-112.chk"
 Charge =  1 Multiplicity = 1

                          Input orientation:
 ---------------------------------------------------------------------
 Center     Atomic      Atomic             Coordinates (Angstroms)
 Number     Number       Type             X           Y           Z
 ---------------------------------------------------------------------
      1          7           0       -3.345544   -4.921134   -2.774834
      2          1           0       -2.607797   -5.118819   -3.448947
      3          1           0       -3.112100   -5.452850   -1.936409
      4          6           0       -3.345191   -3.508769   -2.433936
      5          1           0       -3.389765   -2.925815   -3.361515
      6          6           0       -2.122978   -3.061901   -1.628888
      7          6           0       -4.613870   -3.181624   -1.592895
      8          1           0       -5.478606   -3.394840   -2.228253
      9          1           0       -4.645110   -3.882313   -0.750925
     10          8           0       -1.608205   -3.816956   -0.783712
     11          6           0       -4.616775   -1.758905   -1.088298
     12          6           0       -4.235619   -1.469675    0.227553
     13          1           0       -4.038831   -2.288743    0.915019
     14          6           0       -4.871310   -0.693189   -1.961585
     15          1           0       -5.181867   -0.900861   -2.983218
     16          6           0       -4.087287   -0.149061    0.654986
     17          1           0       -3.795689    0.057723    1.681291
     18          6           0       -4.714439    0.627636   -1.541548
     19          1           0       -4.902397    1.441048   -2.235706
     20          6           0       -4.314501    0.903486   -0.232529
     21          1           0       -4.190294    1.931518    0.094388
     22          7           0       -1.688779   -1.801578   -1.833038
     23          1           0       -2.180993   -1.191370   -2.478247
     24          6           0       -0.877773   -1.115330   -0.849055
     25          1           0       -1.322457   -1.262706    0.144685
     26          6           0       -0.898709    0.381956   -1.164000
     27          6           0        0.570873   -1.649975   -0.779156
     28          1           0        1.250595   -0.868891   -0.433204
     29          1           0        0.882429   -1.960850   -1.783990
     30          8           0       -1.195105    0.821132   -2.262876
     31          8           0        0.649064   -2.730078    0.153111
     32          1           0       -0.126429   -3.319622   -0.062746
     33          7           0       -0.556021    1.151186   -0.084920
     34          1           0       -0.178938    0.638763    0.703035
     35          6           0        0.017928    2.470761   -0.233769
     36          1           0       -0.403033    2.931136   -1.130376
     37          6           0        1.540208    2.351609   -0.357824
     38          6           0       -0.357464    3.310302    1.026323
     39          1           0       -0.180121    2.686555    1.914811
     40          1           0       -1.428582    3.522627    0.975022
     41          8           0        2.135490    1.296200   -0.119981
     42          8           0        0.333578    4.535932    1.127401
     43          1           0        1.177976    4.348614    1.590943
     44          7           0        2.191188    3.509727   -0.642100
     45          1           0        1.621658    4.345359   -0.528100
     46          6           0        3.585488    3.620403   -0.236311
     47          1           0        4.181931    2.948080   -0.857881
     48          6           0        3.694129    3.202266    1.241951
     49          6           0        4.083153    5.051114   -0.445150
     50          1           0        3.409015    5.782620    0.010438
     51          1           0        5.058669    5.175643    0.041273
     52          8           0        2.822528    3.491604    2.069638
     53          6           0        4.277324    5.341799   -1.923859
     54          8           0        4.597477    4.515746   -2.747139
     55          8           0        4.078941    6.644630   -2.199193
     56          7           0        4.789326    2.481134    1.549941
     57          1           0        5.493193    2.303682    0.843342
     58          6           0        5.038855    1.899398    2.854278
     59          1           0        4.483710    2.473219    3.600183
     60          6           0        6.533496    1.997513    3.127072
     61          6           0        4.608198    0.410882    2.889527
     62          1           0        5.008354   -0.045301    3.802118
     63          1           0        5.097215   -0.088229    2.042733
     64          8           0        7.367344    2.173633    2.267845
     65          6           0        3.084047    0.223308    2.800282
     66          1           0        2.643573    1.004082    2.179290
     67          1           0        2.632464    0.323488    3.796249
     68          6           0        2.668872   -1.095561    2.155237
     69          1           0        1.578759   -1.175885    2.090771
     70          1           0        3.063190   -1.144152    1.136463
     71          7           0        3.203751   -2.249751    2.896473
     72          1           0        3.334812   -2.140875    3.893632
     73          7           0        2.924320   -3.800162    1.189835
     74          1           0        3.241389   -4.657269    0.758014
     75          1           0        2.089308   -3.336498    0.764293
     76          7           0        4.121396   -4.361069    3.100842
     77          1           0        4.736443   -4.062304    3.843144
     78          1           0        4.117631   -5.342323    2.865181
     79          6           0        3.400815   -3.470551    2.386180
     80          8           0        6.813566    1.806486    4.428708
     81          1           0        7.784357    1.856778    4.526249
     82          1           0        4.261381    6.766865   -3.151024
 ---------------------------------------------------------------------

 SCF Done:  E(RB3LYP) =  -2166.48256072     A.U. after    2 cycles

 Alpha  occ. eigenvalues --  -19.30199 -19.27676 -19.25103 -19.24613 -19.22777
 Alpha  occ. eigenvalues --  -19.22659 -19.22284 -19.21981 -19.21647 -19.21449
 Alpha  occ. eigenvalues --  -14.52035 -14.51885 -14.50029 -14.47084 -14.45373
 Alpha  occ. eigenvalues --  -14.45264 -14.44820 -14.38525 -10.47821 -10.42630
 Alpha  occ. eigenvalues --  -10.40466 -10.39661 -10.38417 -10.38398 -10.37381
 Alpha  occ. eigenvalues --  -10.35093 -10.34815 -10.33578 -10.33063 -10.32657
 Alpha  occ. eigenvalues --  -10.32611 -10.32302 -10.30910 -10.30210 -10.30198
 Alpha  occ. eigenvalues --  -10.30082 -10.26520 -10.26101 -10.26053 -10.25797
 Alpha  occ. eigenvalues --  -10.25735 -10.25712 -10.25607  -1.21194  -1.18627
 Alpha  occ. eigenvalues --   -1.16324  -1.15091  -1.13976  -1.13437  -1.12844
 Alpha  occ. eigenvalues --   -1.12336  -1.11368  -1.10294  -1.09714  -1.05827
 Alpha  occ. eigenvalues --   -1.03979  -1.03861  -1.02643  -1.02267  -1.01687
 Alpha  occ. eigenvalues --   -0.96310  -0.92408  -0.92105  -0.89465  -0.87395
 Alpha  occ. eigenvalues --   -0.86800  -0.84941  -0.83016  -0.81269  -0.81122
 Alpha  occ. eigenvalues --   -0.78772  -0.78527  -0.77921  -0.75337  -0.74095
 Alpha  occ. eigenvalues --   -0.73772  -0.72745  -0.72280  -0.70875  -0.69873
 Alpha  occ. eigenvalues --   -0.69504  -0.68542  -0.68278  -0.67592  -0.67370
 Alpha  occ. eigenvalues --   -0.67059  -0.65640  -0.65188  -0.64529  -0.63819
 Alpha  occ. eigenvalues --   -0.62620  -0.61318  -0.60807  -0.60696  -0.60269
 Alpha  occ. eigenvalues --   -0.59415  -0.59307  -0.58997  -0.58789  -0.58230
 Alpha  occ. eigenvalues --   -0.57851  -0.57399  -0.56964  -0.56410  -0.55924
 Alpha  occ. eigenvalues --   -0.55741  -0.55302  -0.54852  -0.54516  -0.54191
 Alpha  occ. eigenvalues --   -0.53711  -0.53480  -0.52992  -0.52688  -0.52654
 Alpha  occ. eigenvalues --   -0.51957  -0.51810  -0.51452  -0.51131  -0.50520
 Alpha  occ. eigenvalues --   -0.50352  -0.49700  -0.49336  -0.49131  -0.48952
 Alpha  occ. eigenvalues --   -0.48826  -0.48070  -0.47657  -0.47556  -0.47225
 Alpha  occ. eigenvalues --   -0.46942  -0.46767  -0.46534  -0.46153  -0.45642
 Alpha  occ. eigenvalues --   -0.45072  -0.44791  -0.44327  -0.43294  -0.42575
 Alpha  occ. eigenvalues --   -0.42240  -0.41933  -0.41814  -0.40654  -0.40619
 Alpha  occ. eigenvalues --   -0.40553  -0.39813  -0.38517  -0.38385  -0.37694
 Alpha  occ. eigenvalues --   -0.36973  -0.36769  -0.36083  -0.35961  -0.35799
 Alpha  occ. eigenvalues --   -0.35685  -0.35108  -0.34693  -0.33803  -0.31923
 Alpha  occ. eigenvalues --   -0.31587  -0.30577
 Alpha virt. eigenvalues --   -0.12223  -0.09765  -0.09331  -0.08365  -0.08307
 Alpha virt. eigenvalues --   -0.07945  -0.07438  -0.06776  -0.06675  -0.06593
 Alpha virt. eigenvalues --   -0.04539  -0.04011  -0.03089  -0.02282  -0.00913

 Mulliken charges:
               1
     1  N   -0.689533
     2  H    0.306398
     3  H    0.314108
     4  C   -0.076154
     5  H    0.151913
     6  C    0.612388
     7  C   -0.341150
     8  H    0.183532
     9  H    0.159226
    10  O   -0.584410
    11  C    0.154068
    12  C   -0.187299
    13  H    0.134578
    14  C   -0.206176
    15  H    0.140542
    16  C   -0.137210
    17  H    0.129640
    18  C   -0.114788
    19  H    0.149277
    20  C   -0.131020
    21  H    0.137401
    22  N   -0.591991
    23  H    0.368646
    24  C   -0.070178
    25  H    0.178625
    26  C    0.605276
    27  C   -0.065529
    28  H    0.192561
    29  H    0.165798
    30  O   -0.499491
    31  O   -0.693187
    32  H    0.447863
    33  N   -0.579591
    34  H    0.327034
    35  C   -0.123181
    36  H    0.213841
    37  C    0.622020
    38  C   -0.033787
    39  H    0.130678
    40  H    0.178866
    41  O   -0.551423
    42  O   -0.644251
    43  H    0.436360
    44  N   -0.580520
    45  H    0.359261
    46  C   -0.057567
    47  H    0.203080
    48  C    0.651867
    49  C   -0.395647
    50  H    0.200979
    51  H    0.208644
    52  O   -0.567475
    53  C    0.595356
    54  O   -0.444888
    55  O   -0.554661
    56  N   -0.586758
    57  H    0.359357
    58  C   -0.057429
    59  H    0.214022
    60  C    0.586747
    61  C   -0.266416
    62  H    0.155633
    63  H    0.154493
    64  O   -0.451651
    65  C   -0.328135
    66  H    0.217795
    67  H    0.155784
    68  C   -0.149740
    69  H    0.187737
    70  H    0.200587
    71  N   -0.606040
    72  H    0.356423
    73  N   -0.787485
    74  H    0.364128
    75  H    0.454737
    76  N   -0.765850
    77  H    0.375899
    78  H    0.379278
    79  C    0.804225
    80  O   -0.560836
    81  H    0.429892
    82  H    0.424885
 Sum of Mulliken charges =   1.00000

 Dipole moment (field-independent basis, Debye):
    X=             15.6354    Y=             -7.6975    Z=             10.1170  Tot=             20.1512
 Quadrupole moment (field-independent basis, Debye-Ang):
   XX=           -163.3625   YY=           -169.4521   ZZ=           -200.5686
   XY=            -25.2288   XZ=             58.6679   YZ=            -32.0028

 Normal termination of Gaussian 16 at Wed Jun 29 02:14:14 2022.
