 Gaussian 16, Revision C.01,
 Gaussian 16:  ES64L-G16RevC.01  3-Jul-2019

 ----------------------------------------------------------------------
 # B3LYP/6-31G* empiricaldispersion=gd3bj guess=read geom=check nosymm
 integral(ultrafinegrid)
 ----------------------------------------------------------------------

 ------------------------------------------------------
 Candidate Structure: Conf:669 Charge calc in gas phase
 ------------------------------------------------------
 Structure from the checkpoint file:  "conf-669.chk"
 Charge =  1 Multiplicity = 1

                          Input orientation:
 ---------------------------------------------------------------------
 Center     Atomic      Atomic             Coordinates (Angstroms)
 Number     Number       Type             X           Y           Z
 ---------------------------------------------------------------------
      1          7           0       -4.094850    0.285803   -4.464242
      2          1           0       -5.087956    0.246733   -4.688143
      3          1           0       -3.672285    0.972709   -5.085968
      4          6           0       -3.938244    0.679307   -3.059877
      5          1           0       -4.250424    1.720841   -2.853426
      6          6           0       -2.443968    0.560947   -2.753270
      7          6           0       -4.755679   -0.255940   -2.155146
      8          1           0       -4.387729   -1.273485   -2.309129
      9          1           0       -4.552502    0.010442   -1.111441
     10          8           0       -1.938277   -0.447517   -2.251513
     11          6           0       -6.235311   -0.163089   -2.443248
     12          6           0       -6.857218   -1.082206   -3.298287
     13          1           0       -6.271443   -1.894043   -3.721799
     14          6           0       -7.005011    0.873727   -1.899446
     15          1           0       -6.537012    1.591031   -1.228365
     16          6           0       -8.214547   -0.967111   -3.603810
     17          1           0       -8.681549   -1.690986   -4.265418
     18          6           0       -8.360928    0.990840   -2.200872
     19          1           0       -8.944286    1.797441   -1.765836
     20          6           0       -8.969613    0.069915   -3.056099
     21          1           0      -10.026497    0.158297   -3.289602
     22          7           0       -1.708436    1.654393   -3.103947
     23          1           0       -2.183298    2.352086   -3.666881
     24          6           0       -0.272974    1.584225   -3.393969
     25          1           0       -0.073959    0.640909   -3.921549
     26          6           0        0.603938    1.604035   -2.130619
     27          6           0        0.093696    2.762887   -4.296296
     28          1           0        1.112731    2.619246   -4.673071
     29          1           0        0.079538    3.691069   -3.710512
     30          8           0        1.490882    2.451471   -1.964261
     31          8           0       -0.871377    2.786362   -5.342930
     32          1           0       -0.678251    3.541724   -5.918193
     33          7           0        0.361305    0.606775   -1.254977
     34          1           0       -0.406761   -0.039195   -1.493063
     35          6           0        0.997311    0.554390    0.048577
     36          1           0        1.101564    1.584441    0.415132
     37          6           0        2.422790   -0.040402   -0.006216
     38          6           0        0.108291   -0.247086    1.009689
     39          1           0       -0.136437   -1.221169    0.569670
     40          1           0       -0.823579    0.292878    1.189557
     41          8           0        2.721862   -1.066784    0.636200
     42          8           0        0.756216   -0.435304    2.269526
     43          1           0        1.565944   -0.944089    2.032124
     44          7           0        3.295901    0.660473   -0.741763
     45          1           0        2.937467    1.500771   -1.205576
     46          6           0        4.722611    0.328254   -0.848591
     47          1           0        4.816604   -0.757420   -0.923106
     48          6           0        5.414047    0.825025    0.440006
     49          6           0        5.305412    1.012514   -2.080023
     50          1           0        4.779056    0.664684   -2.976733
     51          1           0        5.175443    2.095542   -2.014365
     52          8           0        6.002302    1.896803    0.495740
     53          6           0        6.787096    0.765890   -2.287243
     54          8           0        7.505399    1.450645   -2.971403
     55          8           0        7.210889   -0.349373   -1.641339
     56          7           0        5.216769    0.002252    1.506268
     57          1           0        4.589255   -0.784299    1.365266
     58          6           0        5.452472    0.448971    2.862526
     59          1           0        6.150147    1.292474    2.783820
     60          6           0        6.140470   -0.615766    3.715578
     61          6           0        4.147351    0.907975    3.534908
     62          1           0        4.329472    1.014110    4.607553
     63          1           0        3.407551    0.104139    3.421231
     64          8           0        5.961688   -0.742295    4.907856
     65          6           0        3.601097    2.209875    2.941625
     66          1           0        3.638891    2.188296    1.847639
     67          1           0        4.235394    3.053006    3.243620
     68          6           0        2.144843    2.477630    3.329867
     69          1           0        1.818994    3.460584    2.974952
     70          1           0        1.495907    1.730915    2.873313
     71          7           0        1.934303    2.435523    4.785506
     72          1           0        2.472700    3.099877    5.327117
     73          7           0        0.643398    0.486664    4.894247
     74          1           0        0.025303   -0.091730    5.445230
     75          1           0        0.710173    0.251179    3.893434
     76          7           0        1.143283    1.664796    6.815691
     77          1           0        1.580662    2.440369    7.291156
     78          1           0        0.868076    0.883725    7.393250
     79          6           0        1.251794    1.518671    5.476672
     80          8           0        6.988401   -1.377620    3.004132
     81          1           0        7.407652   -1.992422    3.636602
     82          1           0        8.166297   -0.430016   -1.824207
 ---------------------------------------------------------------------

 SCF Done:  E(RB3LYP) =  -2166.46306566     A.U. after    1 cycles

 Alpha  occ. eigenvalues --  -19.28150 -19.27283 -19.26480 -19.24229 -19.23827
 Alpha  occ. eigenvalues --  -19.22631 -19.22425 -19.21375 -19.20248 -19.20240
 Alpha  occ. eigenvalues --  -14.52549 -14.52305 -14.50873 -14.46618 -14.45635
 Alpha  occ. eigenvalues --  -14.45176 -14.44378 -14.38537 -10.48616 -10.40804
 Alpha  occ. eigenvalues --  -10.40145 -10.39095 -10.39001 -10.37581 -10.37298
 Alpha  occ. eigenvalues --  -10.35690 -10.35062 -10.34584 -10.33082 -10.33020
 Alpha  occ. eigenvalues --  -10.32877 -10.32681 -10.30195 -10.29946 -10.29424
 Alpha  occ. eigenvalues --  -10.28375 -10.25384 -10.25203 -10.24573 -10.24503
 Alpha  occ. eigenvalues --  -10.24408 -10.24324 -10.24264  -1.19272  -1.17164
 Alpha  occ. eigenvalues --   -1.16965  -1.15962  -1.14190  -1.13473  -1.12800
 Alpha  occ. eigenvalues --   -1.12192  -1.11449  -1.10217  -1.08162  -1.06478
 Alpha  occ. eigenvalues --   -1.04647  -1.03639  -1.02639  -1.01734  -1.01529
 Alpha  occ. eigenvalues --   -0.96174  -0.91542  -0.90959  -0.89219  -0.87186
 Alpha  occ. eigenvalues --   -0.86144  -0.84844  -0.83693  -0.81204  -0.79890
 Alpha  occ. eigenvalues --   -0.78579  -0.78308  -0.78058  -0.75500  -0.74532
 Alpha  occ. eigenvalues --   -0.73440  -0.73115  -0.72127  -0.70555  -0.70067
 Alpha  occ. eigenvalues --   -0.68515  -0.67765  -0.67265  -0.67116  -0.66982
 Alpha  occ. eigenvalues --   -0.66034  -0.65711  -0.64851  -0.63652  -0.63336
 Alpha  occ. eigenvalues --   -0.62903  -0.62185  -0.61494  -0.60811  -0.60223
 Alpha  occ. eigenvalues --   -0.59917  -0.59641  -0.59389  -0.58395  -0.57820
 Alpha  occ. eigenvalues --   -0.57145  -0.56902  -0.56420  -0.56295  -0.56039
 Alpha  occ. eigenvalues --   -0.55569  -0.54947  -0.54607  -0.54259  -0.54010
 Alpha  occ. eigenvalues --   -0.53839  -0.52834  -0.52439  -0.52139  -0.51896
 Alpha  occ. eigenvalues --   -0.51584  -0.51264  -0.50980  -0.50468  -0.50282
 Alpha  occ. eigenvalues --   -0.49337  -0.49118  -0.48988  -0.48474  -0.48166
 Alpha  occ. eigenvalues --   -0.48119  -0.47856  -0.47409  -0.46959  -0.46777
 Alpha  occ. eigenvalues --   -0.46125  -0.45961  -0.45813  -0.45476  -0.45174
 Alpha  occ. eigenvalues --   -0.45013  -0.44958  -0.44901  -0.43148  -0.43111
 Alpha  occ. eigenvalues --   -0.42847  -0.40961  -0.40719  -0.40323  -0.39933
 Alpha  occ. eigenvalues --   -0.39431  -0.39362  -0.39077  -0.38283  -0.37996
 Alpha  occ. eigenvalues --   -0.37624  -0.37063  -0.36631  -0.35573  -0.34859
 Alpha  occ. eigenvalues --   -0.34379  -0.34003  -0.33855  -0.33039  -0.30864
 Alpha  occ. eigenvalues --   -0.30451  -0.29833
 Alpha virt. eigenvalues --   -0.11981  -0.10290  -0.08881  -0.08434  -0.07986
 Alpha virt. eigenvalues --   -0.07355  -0.06060  -0.05824  -0.05628  -0.05412
 Alpha virt. eigenvalues --   -0.04890  -0.04258  -0.03081  -0.01729  -0.01379

 Mulliken charges:
               1
     1  N   -0.723074
     2  H    0.326297
     3  H    0.306270
     4  C   -0.072705
     5  H    0.126183
     6  C    0.656637
     7  C   -0.340782
     8  H    0.182809
     9  H    0.140228
    10  O   -0.548565
    11  C    0.141341
    12  C   -0.193492
    13  H    0.145282
    14  C   -0.178288
    15  H    0.117530
    16  C   -0.127653
    17  H    0.143139
    18  C   -0.127940
    19  H    0.137659
    20  C   -0.129076
    21  H    0.142142
    22  N   -0.610426
    23  H    0.359309
    24  C   -0.076078
    25  H    0.201707
    26  C    0.636868
    27  C   -0.059353
    28  H    0.165478
    29  H    0.161374
    30  O   -0.555835
    31  O   -0.632358
    32  H    0.417679
    33  N   -0.634600
    34  H    0.407740
    35  C   -0.079362
    36  H    0.179475
    37  C    0.645823
    38  C   -0.065500
    39  H    0.184252
    40  H    0.175151
    41  O   -0.584105
    42  O   -0.675536
    43  H    0.448874
    44  N   -0.631297
    45  H    0.399585
    46  C   -0.055904
    47  H    0.202537
    48  C    0.645961
    49  C   -0.389222
    50  H    0.193066
    51  H    0.210074
    52  O   -0.524470
    53  C    0.608560
    54  O   -0.445785
    55  O   -0.573211
    56  N   -0.604305
    57  H    0.366720
    58  C   -0.073147
    59  H    0.221867
    60  C    0.590248
    61  C   -0.267637
    62  H    0.168221
    63  H    0.129587
    64  O   -0.466634
    65  C   -0.289290
    66  H    0.182507
    67  H    0.167069
    68  C   -0.188158
    69  H    0.193552
    70  H    0.182713
    71  N   -0.593809
    72  H    0.358190
    73  N   -0.800975
    74  H    0.371024
    75  H    0.457183
    76  N   -0.763808
    77  H    0.377885
    78  H    0.381096
    79  C    0.823241
    80  O   -0.544365
    81  H    0.424049
    82  H    0.422562
 Sum of Mulliken charges =   1.00000

 Dipole moment (field-independent basis, Debye):
    X=              1.4528    Y=              7.5368    Z=             14.1320  Tot=             16.0819
 Quadrupole moment (field-independent basis, Debye-Ang):
   XX=           -206.0475   YY=           -222.7871   ZZ=           -101.1921
   XY=            -20.8004   XZ=             46.2122   YZ=             15.6935

 Normal termination of Gaussian 16 at Wed Jun 29 02:13:47 2022.
