 Gaussian 16, Revision C.01,
 Gaussian 16:  ES64L-G16RevC.01  3-Jul-2019

 ----------------------------------------------------------------------
 # B3LYP/6-31G* empiricaldispersion=gd3bj guess=read geom=check nosymm
 integral(ultrafinegrid)
 ----------------------------------------------------------------------

 ------------------------------------------------------
 Candidate Structure: Conf:549 Charge calc in gas phase
 ------------------------------------------------------
 Structure from the checkpoint file:  "conf-549.chk"
 Charge =  1 Multiplicity = 1

                          Input orientation:
 ---------------------------------------------------------------------
 Center     Atomic      Atomic             Coordinates (Angstroms)
 Number     Number       Type             X           Y           Z
 ---------------------------------------------------------------------
      1          7           0       -2.978596    1.093234   -5.300576
      2          1           0       -3.318518    1.966346   -5.701351
      3          1           0       -2.281141    1.338291   -4.600723
      4          6           0       -4.107006    0.391896   -4.669880
      5          1           0       -4.581621    0.979233   -3.860010
      6          6           0       -3.564814   -0.906054   -4.053932
      7          6           0       -5.178756    0.074471   -5.722588
      8          1           0       -4.718602   -0.560213   -6.483993
      9          1           0       -5.966109   -0.516825   -5.243713
     10          8           0       -3.749568   -2.017621   -4.533624
     11          6           0       -5.756290    1.328488   -6.333542
     12          6           0       -6.798810    2.018205   -5.700098
     13          1           0       -7.220793    1.616313   -4.781511
     14          6           0       -5.232482    1.857138   -7.521018
     15          1           0       -4.425770    1.329360   -8.022846
     16          6           0       -7.305407    3.201554   -6.235744
     17          1           0       -8.119237    3.717557   -5.733449
     18          6           0       -5.735508    3.042398   -8.060059
     19          1           0       -5.319845    3.433431   -8.984791
     20          6           0       -6.773792    3.718513   -7.418851
     21          1           0       -7.170492    4.637876   -7.840245
     22          7           0       -2.823787   -0.713892   -2.923937
     23          1           0       -2.769965    0.186784   -2.462497
     24          6           0       -2.228871   -1.812873   -2.200815
     25          1           0       -2.925356   -2.657800   -2.169378
     26          6           0       -1.898088   -1.332098   -0.799588
     27          6           0       -0.924393   -2.301421   -2.902287
     28          1           0       -0.263380   -1.434899   -3.035124
     29          1           0       -1.216796   -2.674882   -3.886043
     30          8           0       -1.841215   -0.138069   -0.504028
     31          8           0       -0.281554   -3.348697   -2.199483
     32          1           0        0.333888   -2.928613   -1.564990
     33          7           0       -1.600707   -2.327101    0.089896
     34          1           0       -1.359788   -3.222700   -0.332351
     35          6           0       -0.806068   -1.968094    1.243419
     36          1           0       -1.333955   -1.192099    1.806476
     37          6           0        0.547620   -1.394494    0.777076
     38          6           0       -0.619278   -3.189963    2.139990
     39          1           0       -1.610382   -3.527192    2.472972
     40          1           0       -0.032131   -2.906734    3.026951
     41          8           0        1.050856   -1.669265   -0.313782
     42          8           0        0.042967   -4.177741    1.366339
     43          1           0       -0.055223   -5.036585    1.802643
     44          7           0        1.155982   -0.554900    1.644261
     45          1           0        0.708264   -0.239819    2.497503
     46          6           0        2.363718    0.150045    1.274998
     47          1           0        3.085701   -0.562908    0.866915
     48          6           0        2.906689    0.805834    2.545235
     49          6           0        2.057185    1.222416    0.197025
     50          1           0        1.332619    0.805761   -0.507242
     51          1           0        1.593693    2.105779    0.651134
     52          8           0        2.199269    0.995881    3.529450
     53          6           0        3.260679    1.676783   -0.589383
     54          8           0        4.432302    1.462088   -0.314462
     55          8           0        2.903404    2.366156   -1.680503
     56          7           0        4.213150    1.195258    2.477157
     57          1           0        4.595883    1.232681    1.528758
     58          6           0        4.666705    2.200261    3.410775
     59          1           0        4.389546    1.886439    4.421156
     60          6           0        3.946942    3.527451    3.130553
     61          6           0        6.196093    2.339794    3.298338
     62          1           0        6.447450    2.754115    2.312956
     63          1           0        6.605703    1.322647    3.324402
     64          8           0        3.390283    3.808407    2.096525
     65          6           0        6.835810    3.187014    4.403100
     66          1           0        6.531786    2.798569    5.385465
     67          1           0        6.468244    4.216457    4.363059
     68          6           0        8.362366    3.182231    4.277025
     69          1           0        8.773884    2.169537    4.344156
     70          1           0        8.668599    3.577239    3.304802
     71          7           0        9.037418    4.010646    5.292244
     72          1           0        9.153840    4.994588    5.085602
     73          7           0        8.994632    2.413334    6.979480
     74          1           0        9.431399    1.997696    7.790090
     75          1           0        8.237109    1.906171    6.546063
     76          7           0       10.168229    4.383469    7.279755
     77          1           0       10.685054    5.158682    6.888878
     78          1           0       10.264778    4.215335    8.271312
     79          6           0        9.390448    3.604177    6.511624
     80          8           0        4.027111    4.373364    4.185131
     81          1           0        3.526628    5.175304    3.937602
     82          1           0        3.724486    2.630322   -2.137893
 ---------------------------------------------------------------------

 SCF Done:  E(RB3LYP) =  -2166.43205023     A.U. after    2 cycles

 Alpha  occ. eigenvalues --  -19.30039 -19.27654 -19.24164 -19.22798 -19.21369
 Alpha  occ. eigenvalues --  -19.20879 -19.18864 -19.17047 -19.16930 -19.13715
 Alpha  occ. eigenvalues --  -14.56126 -14.56058 -14.55880 -14.44085 -14.43160
 Alpha  occ. eigenvalues --  -14.40227 -14.38611 -14.34372 -10.52415 -10.42012
 Alpha  occ. eigenvalues --  -10.40815 -10.39198 -10.37473 -10.35623 -10.34334
 Alpha  occ. eigenvalues --  -10.33394 -10.33365 -10.32090 -10.31650 -10.30803
 Alpha  occ. eigenvalues --  -10.30613 -10.29506 -10.27759 -10.26322 -10.26153
 Alpha  occ. eigenvalues --  -10.24854 -10.21689 -10.21253 -10.21204 -10.21085
 Alpha  occ. eigenvalues --  -10.21016 -10.20851 -10.20428  -1.20855  -1.20763
 Alpha  occ. eigenvalues --   -1.19029  -1.13038  -1.11736  -1.10985  -1.10042
 Alpha  occ. eigenvalues --   -1.09880  -1.08949  -1.08852  -1.08554  -1.05700
 Alpha  occ. eigenvalues --   -1.04393  -1.02062  -0.99937  -0.97541  -0.95218
 Alpha  occ. eigenvalues --   -0.94573  -0.91611  -0.89014  -0.87461  -0.86691
 Alpha  occ. eigenvalues --   -0.83796  -0.82932  -0.80813  -0.79780  -0.78701
 Alpha  occ. eigenvalues --   -0.78363  -0.77415  -0.76506  -0.75811  -0.74348
 Alpha  occ. eigenvalues --   -0.73812  -0.71374  -0.70190  -0.69630  -0.69155
 Alpha  occ. eigenvalues --   -0.68771  -0.68199  -0.67217  -0.65700  -0.65205
 Alpha  occ. eigenvalues --   -0.64135  -0.63199  -0.62807  -0.62610  -0.61960
 Alpha  occ. eigenvalues --   -0.61536  -0.60976  -0.59975  -0.59641  -0.59364
 Alpha  occ. eigenvalues --   -0.58534  -0.57632  -0.57460  -0.56840  -0.56312
 Alpha  occ. eigenvalues --   -0.55544  -0.55241  -0.54899  -0.53972  -0.53573
 Alpha  occ. eigenvalues --   -0.53394  -0.53127  -0.52897  -0.52189  -0.51755
 Alpha  occ. eigenvalues --   -0.51512  -0.51210  -0.50582  -0.50283  -0.49823
 Alpha  occ. eigenvalues --   -0.49309  -0.48868  -0.48376  -0.48086  -0.47733
 Alpha  occ. eigenvalues --   -0.47455  -0.47382  -0.47328  -0.46884  -0.46822
 Alpha  occ. eigenvalues --   -0.46260  -0.46254  -0.45811  -0.45069  -0.44854
 Alpha  occ. eigenvalues --   -0.44212  -0.44066  -0.43690  -0.43100  -0.42847
 Alpha  occ. eigenvalues --   -0.41872  -0.41200  -0.40970  -0.40584  -0.40411
 Alpha  occ. eigenvalues --   -0.40202  -0.39163  -0.38462  -0.37909  -0.37295
 Alpha  occ. eigenvalues --   -0.36698  -0.36183  -0.35824  -0.35619  -0.35592
 Alpha  occ. eigenvalues --   -0.34533  -0.34105  -0.33088  -0.32628  -0.31903
 Alpha  occ. eigenvalues --   -0.31055  -0.29907  -0.28627  -0.27293  -0.27171
 Alpha  occ. eigenvalues --   -0.26252  -0.25868
 Alpha virt. eigenvalues --   -0.16277  -0.12089  -0.09867  -0.08337  -0.07650
 Alpha virt. eigenvalues --   -0.07440  -0.06639  -0.06546  -0.04919  -0.03212
 Alpha virt. eigenvalues --   -0.02854  -0.02424  -0.02356  -0.02244  -0.01197

 Mulliken charges:
               1
     1  N   -0.721830
     2  H    0.312137
     3  H    0.291833
     4  C   -0.075101
     5  H    0.117671
     6  C    0.648982
     7  C   -0.332708
     8  H    0.176979
     9  H    0.153256
    10  O   -0.523538
    11  C    0.141849
    12  C   -0.179367
    13  H    0.122590
    14  C   -0.189831
    15  H    0.141949
    16  C   -0.129181
    17  H    0.129139
    18  C   -0.129639
    19  H    0.130646
    20  C   -0.131542
    21  H    0.129343
    22  N   -0.638925
    23  H    0.341011
    24  C   -0.047103
    25  H    0.185700
    26  C    0.596481
    27  C   -0.044008
    28  H    0.132339
    29  H    0.188834
    30  O   -0.552756
    31  O   -0.649779
    32  H    0.435356
    33  N   -0.598720
    34  H    0.362758
    35  C   -0.081047
    36  H    0.180624
    37  C    0.674354
    38  C   -0.046107
    39  H    0.158010
    40  H    0.136312
    41  O   -0.555040
    42  O   -0.612280
    43  H    0.410861
    44  N   -0.625672
    45  H    0.355913
    46  C   -0.040568
    47  H    0.200265
    48  C    0.608611
    49  C   -0.382177
    50  H    0.239593
    51  H    0.216234
    52  O   -0.529094
    53  C    0.622858
    54  O   -0.504315
    55  O   -0.542454
    56  N   -0.628652
    57  H    0.385151
    58  C   -0.035656
    59  H    0.196520
    60  C    0.598654
    61  C   -0.304670
    62  H    0.176151
    63  H    0.173721
    64  O   -0.451474
    65  C   -0.280270
    66  H    0.144884
    67  H    0.185543
    68  C   -0.184455
    69  H    0.190012
    70  H    0.207302
    71  N   -0.588284
    72  H    0.373172
    73  N   -0.752746
    74  H    0.391965
    75  H    0.396668
    76  N   -0.758423
    77  H    0.391135
    78  H    0.391525
    79  C    0.830563
    80  O   -0.573911
    81  H    0.424724
    82  H    0.421148
 Sum of Mulliken charges =   1.00000

 Dipole moment (field-independent basis, Debye):
    X=             45.2487    Y=             20.3535    Z=             34.8568  Tot=             60.6358
 Quadrupole moment (field-independent basis, Debye-Ang):
   XX=            163.5384   YY=           -156.6325   ZZ=            -56.7417
   XY=            162.7507   XZ=            267.7820   YZ=             74.0907

 Normal termination of Gaussian 16 at Wed Jun 29 02:13:58 2022.
