 Gaussian 16, Revision C.01,
 Gaussian 16:  ES64L-G16RevC.01  3-Jul-2019

 ----------------------------------------------------------------------
 # B3LYP/6-31G* empiricaldispersion=gd3bj guess=read geom=check nosymm
 integral(ultrafinegrid)
 ----------------------------------------------------------------------

 ------------------------------------------------------
 Candidate Structure: Conf:156 Charge calc in gas phase
 ------------------------------------------------------
 Structure from the checkpoint file:  "conf-156.chk"
 Charge =  1 Multiplicity = 1

                          Input orientation:
 ---------------------------------------------------------------------
 Center     Atomic      Atomic             Coordinates (Angstroms)
 Number     Number       Type             X           Y           Z
 ---------------------------------------------------------------------
      1          7           0       -2.449530   -1.775395   -5.479842
      2          1           0       -2.335970   -2.724264   -5.124629
      3          1           0       -3.179774   -1.797135   -6.189596
      4          6           0       -2.872677   -0.929933   -4.371578
      5          1           0       -2.811303    0.117697   -4.694304
      6          6           0       -1.901681   -1.177220   -3.221402
      7          6           0       -4.317316   -1.185777   -3.842117
      8          1           0       -4.352254   -2.209467   -3.452655
      9          1           0       -4.511176   -0.508097   -3.000522
     10          8           0       -1.597268   -2.315069   -2.867469
     11          6           0       -5.350273   -0.986177   -4.920715
     12          6           0       -5.843154    0.293569   -5.207976
     13          1           0       -5.515327    1.138637   -4.606468
     14          6           0       -5.788227   -2.062197   -5.703673
     15          1           0       -5.424472   -3.063053   -5.483969
     16          6           0       -6.750680    0.493811   -6.246564
     17          1           0       -7.127169    1.492275   -6.450248
     18          6           0       -6.695747   -1.865925   -6.746131
     19          1           0       -7.028730   -2.713351   -7.338721
     20          6           0       -7.178737   -0.586749   -7.020766
     21          1           0       -7.887842   -0.432278   -7.828733
     22          7           0       -1.435629   -0.070645   -2.583230
     23          1           0       -1.671042    0.866269   -2.887787
     24          6           0       -0.572193   -0.170933   -1.432343
     25          1           0       -0.950401   -0.948892   -0.759305
     26          6           0       -0.550461    1.182291   -0.729779
     27          6           0        0.866776   -0.576639   -1.860257
     28          1           0        1.215013    0.129681   -2.624626
     29          1           0        0.803268   -1.573053   -2.299040
     30          8           0       -0.891102    2.216622   -1.282781
     31          8           0        1.768722   -0.633408   -0.757902
     32          1           0        2.031216    0.293121   -0.571871
     33          7           0       -0.087494    1.129598    0.568806
     34          1           0        0.356073    0.250039    0.816566
     35          6           0        0.445989    2.322487    1.212272
     36          1           0        0.037434    3.171323    0.652106
     37          6           0        1.971446    2.348208    1.034404
     38          6           0       -0.064803    2.399430    2.661838
     39          1           0        0.250691    3.335692    3.133131
     40          1           0        0.361983    1.565410    3.246248
     41          8           0        2.491440    1.920840   -0.014931
     42          8           0       -1.470093    2.403870    2.692054
     43          1           0       -1.764808    1.660655    2.138704
     44          7           0        2.706676    2.834102    2.047438
     45          1           0        2.251112    3.340572    2.804607
     46          6           0        4.155380    3.048973    1.943830
     47          1           0        4.365205    3.471274    0.954669
     48          6           0        4.900172    1.694062    2.076680
     49          6           0        4.657896    3.986561    3.053929
     50          1           0        4.732356    3.404455    3.979523
     51          1           0        5.664903    4.324603    2.805922
     52          8           0        5.460583    1.342236    3.108164
     53          6           0        3.759766    5.170035    3.330293
     54          8           0        2.567039    5.085939    3.573133
     55          8           0        4.419244    6.334950    3.323132
     56          7           0        4.879721    0.924480    0.958204
     57          1           0        4.228524    1.195671    0.223445
     58          6           0        5.348414   -0.441183    1.036771
     59          1           0        4.855215   -0.956889    1.870977
     60          6           0        6.832522   -0.510172    1.367936
     61          6           0        5.017918   -1.190062   -0.275238
     62          1           0        5.643016   -0.804332   -1.090603
     63          1           0        3.979967   -0.950459   -0.527495
     64          8           0        7.365007   -1.492390    1.872418
     65          6           0        5.121393   -2.721942   -0.167218
     66          1           0        4.365641   -3.173255   -0.818949
     67          1           0        4.864501   -3.031536    0.852766
     68          6           0        6.494155   -3.299840   -0.544107
     69          1           0        6.653250   -3.251305   -1.624193
     70          1           0        7.314755   -2.753374   -0.078774
     71          7           0        6.627428   -4.713666   -0.161039
     72          1           0        6.229759   -5.399718   -0.789460
     73          7           0        7.152179   -4.276752    2.067388
     74          1           0        7.560464   -4.608442    2.930058
     75          1           0        7.075358   -3.255543    1.966898
     76          7           0        6.979518   -6.460433    1.312855
     77          1           0        7.034689   -7.124216    0.554260
     78          1           0        7.131382   -6.817078    2.244815
     79          6           0        6.922048   -5.134641    1.075940
     80          8           0        7.530772    0.557626    0.995344
     81          1           0        8.459152    0.409209    1.260947
     82          1           0        3.777338    7.035155    3.554158
 ---------------------------------------------------------------------

 SCF Done:  E(RB3LYP) =  -2166.45752150     A.U. after    1 cycles

 Alpha  occ. eigenvalues --  -19.31667 -19.29125 -19.26770 -19.23787 -19.23434
 Alpha  occ. eigenvalues --  -19.22508 -19.22039 -19.21434 -19.20448 -19.16820
 Alpha  occ. eigenvalues --  -14.53025 -14.52988 -14.51710 -14.46971 -14.45589
 Alpha  occ. eigenvalues --  -14.44708 -14.41990 -14.35310 -10.49159 -10.44637
 Alpha  occ. eigenvalues --  -10.42082 -10.39960 -10.38753 -10.37151 -10.36364
 Alpha  occ. eigenvalues --  -10.35214 -10.34635 -10.33841 -10.32181 -10.31668
 Alpha  occ. eigenvalues --  -10.31440 -10.30773 -10.30584 -10.30337 -10.29893
 Alpha  occ. eigenvalues --  -10.26989 -10.23724 -10.23449 -10.22956 -10.22937
 Alpha  occ. eigenvalues --  -10.22883 -10.22865 -10.22743  -1.23206  -1.20287
 Alpha  occ. eigenvalues --   -1.17615  -1.15237  -1.13946  -1.13745  -1.12426
 Alpha  occ. eigenvalues --   -1.11227  -1.09654  -1.09408  -1.08818  -1.07026
 Alpha  occ. eigenvalues --   -1.05410  -1.03583  -1.03057  -1.01135  -0.98509
 Alpha  occ. eigenvalues --   -0.93269  -0.92617  -0.89837  -0.89308  -0.87435
 Alpha  occ. eigenvalues --   -0.85393  -0.82606  -0.82181  -0.81401  -0.79217
 Alpha  occ. eigenvalues --   -0.78744  -0.78342  -0.75903  -0.75242  -0.74910
 Alpha  occ. eigenvalues --   -0.74043  -0.72412  -0.71809  -0.71269  -0.70685
 Alpha  occ. eigenvalues --   -0.69963  -0.68316  -0.67553  -0.66664  -0.66522
 Alpha  occ. eigenvalues --   -0.65736  -0.64548  -0.64417  -0.63805  -0.63024
 Alpha  occ. eigenvalues --   -0.61996  -0.61889  -0.60792  -0.60604  -0.60275
 Alpha  occ. eigenvalues --   -0.59943  -0.59785  -0.59199  -0.58935  -0.57999
 Alpha  occ. eigenvalues --   -0.57804  -0.57373  -0.56698  -0.56214  -0.55191
 Alpha  occ. eigenvalues --   -0.54984  -0.54605  -0.54381  -0.54205  -0.53893
 Alpha  occ. eigenvalues --   -0.53045  -0.51979  -0.51776  -0.51352  -0.51057
 Alpha  occ. eigenvalues --   -0.50696  -0.50447  -0.50421  -0.50044  -0.49850
 Alpha  occ. eigenvalues --   -0.49297  -0.48992  -0.48544  -0.48293  -0.47909
 Alpha  occ. eigenvalues --   -0.47756  -0.47173  -0.46586  -0.46355  -0.46305
 Alpha  occ. eigenvalues --   -0.45906  -0.45816  -0.45577  -0.45260  -0.44884
 Alpha  occ. eigenvalues --   -0.43828  -0.43536  -0.43191  -0.42279  -0.42035
 Alpha  occ. eigenvalues --   -0.41564  -0.41401  -0.40944  -0.40584  -0.40520
 Alpha  occ. eigenvalues --   -0.39442  -0.38508  -0.38036  -0.37885  -0.37794
 Alpha  occ. eigenvalues --   -0.37129  -0.36722  -0.35893  -0.35284  -0.34598
 Alpha  occ. eigenvalues --   -0.33999  -0.33479  -0.31022  -0.30844  -0.29185
 Alpha  occ. eigenvalues --   -0.28747  -0.27185
 Alpha virt. eigenvalues --   -0.12829  -0.11639  -0.09853  -0.09293  -0.09052
 Alpha virt. eigenvalues --   -0.07798  -0.06324  -0.05280  -0.04604  -0.04424
 Alpha virt. eigenvalues --   -0.04132  -0.03594  -0.02239  -0.01736  -0.00653

 Mulliken charges:
               1
     1  N   -0.720765
     2  H    0.310606
     3  H    0.310552
     4  C   -0.059713
     5  H    0.137922
     6  C    0.642719
     7  C   -0.364186
     8  H    0.160263
     9  H    0.143042
    10  O   -0.548197
    11  C    0.170166
    12  C   -0.177878
    13  H    0.123266
    14  C   -0.197465
    15  H    0.127015
    16  C   -0.126993
    17  H    0.136816
    18  C   -0.127018
    19  H    0.136609
    20  C   -0.129479
    21  H    0.137711
    22  N   -0.626460
    23  H    0.354854
    24  C   -0.045626
    25  H    0.180917
    26  C    0.584293
    27  C   -0.062603
    28  H    0.151998
    29  H    0.192226
    30  O   -0.497753
    31  O   -0.676853
    32  H    0.448256
    33  N   -0.623865
    34  H    0.336491
    35  C   -0.099870
    36  H    0.236276
    37  C    0.631915
    38  C   -0.037024
    39  H    0.176306
    40  H    0.126493
    41  O   -0.576146
    42  O   -0.604541
    43  H    0.405605
    44  N   -0.631411
    45  H    0.403686
    46  C   -0.065457
    47  H    0.198044
    48  C    0.638797
    49  C   -0.394034
    50  H    0.230807
    51  H    0.203885
    52  O   -0.517848
    53  C    0.599164
    54  O   -0.477071
    55  O   -0.542111
    56  N   -0.641185
    57  H    0.383732
    58  C   -0.007142
    59  H    0.187797
    60  C    0.639593
    61  C   -0.353121
    62  H    0.168199
    63  H    0.221773
    64  O   -0.521848
    65  C   -0.276379
    66  H    0.179380
    67  H    0.157784
    68  C   -0.193026
    69  H    0.196398
    70  H    0.196278
    71  N   -0.592635
    72  H    0.363976
    73  N   -0.789608
    74  H    0.373186
    75  H    0.444857
    76  N   -0.768453
    77  H    0.382682
    78  H    0.382932
    79  C    0.823925
    80  O   -0.525025
    81  H    0.430589
    82  H    0.429009
 Sum of Mulliken charges =   1.00000

 Dipole moment (field-independent basis, Debye):
    X=             30.2890    Y=            -13.9338    Z=              4.7993  Tot=             33.6839
 Quadrupole moment (field-independent basis, Debye-Ang):
   XX=            -25.2890   YY=           -103.0177   ZZ=           -229.6968
   XY=           -109.6894   XZ=             48.8360   YZ=             -5.8728

 Normal termination of Gaussian 16 at Wed Jun 29 02:13:44 2022.
