 Gaussian 16, Revision C.01,
 Gaussian 16:  ES64L-G16RevC.01  3-Jul-2019

 ----------------------------------------------------------------------
 # B3LYP/6-31G* empiricaldispersion=gd3bj guess=read geom=check nosymm
 integral(ultrafinegrid)
 ----------------------------------------------------------------------

 ------------------------------------------------------
 Candidate Structure: Conf:883 Charge calc in gas phase
 ------------------------------------------------------
 Structure from the checkpoint file:  "conf-883.chk"
 Charge =  1 Multiplicity = 1

                          Input orientation:
 ---------------------------------------------------------------------
 Center     Atomic      Atomic             Coordinates (Angstroms)
 Number     Number       Type             X           Y           Z
 ---------------------------------------------------------------------
      1          7           0       -3.322821   -3.799819    0.005002
      2          1           0       -4.099221   -3.796118    0.663931
      3          1           0       -3.719698   -3.978504   -0.915061
      4          6           0       -2.649828   -2.497729    0.029399
      5          1           0       -3.345842   -1.641088   -0.027840
      6          6           0       -1.682047   -2.412580   -1.168390
      7          6           0       -1.788666   -2.368251    1.292750
      8          1           0       -1.013673   -3.128539    1.177387
      9          1           0       -1.297416   -1.387692    1.254243
     10          8           0       -0.476635   -2.622048   -1.052041
     11          6           0       -2.477711   -2.546524    2.622861
     12          6           0       -2.785332   -1.442725    3.431618
     13          1           0       -2.580661   -0.439464    3.065023
     14          6           0       -2.746979   -3.836463    3.115375
     15          1           0       -2.512497   -4.695710    2.493790
     16          6           0       -3.346932   -1.615438    4.699154
     17          1           0       -3.577422   -0.747930    5.310013
     18          6           0       -3.315972   -4.010653    4.379380
     19          1           0       -3.530767   -5.012637    4.740190
     20          6           0       -3.611688   -2.899193    5.177561
     21          1           0       -4.052542   -3.035552    6.160390
     22          7           0       -2.263726   -2.113897   -2.365491
     23          1           0       -3.177269   -1.672260   -2.343362
     24          6           0       -1.437899   -1.814340   -3.549236
     25          1           0       -0.586180   -2.495765   -3.508375
     26          6           0       -0.978375   -0.351192   -3.453685
     27          6           0       -2.239087   -2.085765   -4.821296
     28          1           0       -1.640849   -1.796640   -5.688106
     29          1           0       -3.142780   -1.458149   -4.830954
     30          8           0       -1.597018    0.557243   -3.999665
     31          8           0       -2.532212   -3.462012   -4.968287
     32          1           0       -3.017945   -3.744445   -4.177608
     33          7           0        0.115709   -0.158962   -2.673032
     34          1           0        0.538346   -0.937910   -2.175898
     35          6           0        0.590037    1.164201   -2.340118
     36          1           0        0.616940    1.783934   -3.241583
     37          6           0        1.968563    1.044158   -1.715354
     38          6           0       -0.364543    1.852114   -1.312115
     39          1           0       -0.480912    1.170815   -0.456100
     40          1           0       -1.331514    1.967850   -1.806282
     41          8           0        2.386252   -0.007882   -1.231772
     42          8           0        0.080876    3.129899   -0.906924
     43          1           0        0.668047    3.000641   -0.133853
     44          7           0        2.658198    2.220246   -1.640146
     45          1           0        2.090052    3.049568   -1.794272
     46          6           0        3.711063    2.331129   -0.648087
     47          1           0        4.480565    1.591077   -0.883083
     48          6           0        3.132909    2.049793    0.746893
     49          6           0        4.343911    3.724688   -0.700898
     50          1           0        3.584230    4.511432   -0.680916
     51          1           0        4.980500    3.873285    0.180112
     52          8           0        1.980455    2.359238    1.060779
     53          6           0        5.230951    3.856301   -1.927306
     54          8           0        5.906611    2.959824   -2.377573
     55          8           0        5.196561    5.103090   -2.433314
     56          7           0        3.980085    1.448586    1.615914
     57          1           0        4.895671    1.166479    1.292554
     58          6           0        3.547857    1.057792    2.943330
     59          1           0        2.678943    1.689976    3.161542
     60          6           0        4.592258    1.349607    4.015116
     61          6           0        3.111756   -0.417463    3.024229
     62          1           0        2.715723   -0.568268    4.034548
     63          1           0        4.004233   -1.054458    2.925878
     64          8           0        4.624708    0.777368    5.081337
     65          6           0        2.088172   -0.804779    1.956780
     66          1           0        2.508717   -0.675094    0.955235
     67          1           0        1.219887   -0.136443    2.003603
     68          6           0        1.619439   -2.253797    2.069874
     69          1           0        1.055918   -2.529763    1.174786
     70          1           0        2.461675   -2.948683    2.146441
     71          7           0        0.731020   -2.486008    3.225376
     72          1           0       -0.239958   -2.212257    3.118594
     73          7           0        2.296157   -3.306680    4.740688
     74          1           0        2.517011   -3.919143    5.511825
     75          1           0        3.047489   -2.761479    4.343776
     76          7           0        0.025802   -3.517718    5.163861
     77          1           0       -0.929874   -3.579267    4.821832
     78          1           0        0.188754   -3.717586    6.139689
     79          6           0        1.022132   -3.094119    4.370131
     80          8           0        5.457976    2.314974    3.653112
     81          1           0        6.062600    2.449852    4.408737
     82          1           0        5.812821    5.121178   -3.191125
 ---------------------------------------------------------------------

 SCF Done:  E(RB3LYP) =  -2166.45991669     A.U. after    1 cycles

 Alpha  occ. eigenvalues --  -19.30178 -19.27570 -19.24373 -19.23105 -19.22177
 Alpha  occ. eigenvalues --  -19.21809 -19.21434 -19.21222 -19.21119 -19.18764
 Alpha  occ. eigenvalues --  -14.52356 -14.51753 -14.51678 -14.47531 -14.46429
 Alpha  occ. eigenvalues --  -14.44625 -14.43151 -14.41913 -10.48426 -10.42683
 Alpha  occ. eigenvalues --  -10.40314 -10.39753 -10.38896 -10.37570 -10.36024
 Alpha  occ. eigenvalues --  -10.35043 -10.34987 -10.33381 -10.33094 -10.31246
 Alpha  occ. eigenvalues --  -10.30986 -10.30936 -10.30774 -10.30752 -10.30489
 Alpha  occ. eigenvalues --  -10.30419 -10.30301 -10.30247 -10.30202 -10.30174
 Alpha  occ. eigenvalues --  -10.29938 -10.29563 -10.29403  -1.21124  -1.18493
 Alpha  occ. eigenvalues --   -1.16909  -1.15088  -1.13979  -1.12862  -1.12115
 Alpha  occ. eigenvalues --   -1.10733  -1.09565  -1.08994  -1.08705  -1.06083
 Alpha  occ. eigenvalues --   -1.05015  -1.04153  -1.02248  -1.01929  -0.99873
 Alpha  occ. eigenvalues --   -0.99277  -0.96814  -0.92027  -0.89176  -0.88975
 Alpha  occ. eigenvalues --   -0.86975  -0.85775  -0.85467  -0.83065  -0.81990
 Alpha  occ. eigenvalues --   -0.81637  -0.78820  -0.77843  -0.75447  -0.74349
 Alpha  occ. eigenvalues --   -0.73291  -0.73261  -0.71770  -0.71671  -0.70718
 Alpha  occ. eigenvalues --   -0.70502  -0.70065  -0.69498  -0.68074  -0.67563
 Alpha  occ. eigenvalues --   -0.67136  -0.65997  -0.65396  -0.65245  -0.64102
 Alpha  occ. eigenvalues --   -0.62613  -0.62203  -0.61402  -0.61214  -0.60684
 Alpha  occ. eigenvalues --   -0.59808  -0.59411  -0.59231  -0.58388  -0.57990
 Alpha  occ. eigenvalues --   -0.57767  -0.57365  -0.57148  -0.56776  -0.56340
 Alpha  occ. eigenvalues --   -0.56007  -0.55950  -0.55613  -0.55414  -0.55184
 Alpha  occ. eigenvalues --   -0.54363  -0.53986  -0.53509  -0.53451  -0.53027
 Alpha  occ. eigenvalues --   -0.52121  -0.51981  -0.51621  -0.51420  -0.50794
 Alpha  occ. eigenvalues --   -0.50670  -0.50245  -0.49623  -0.49298  -0.48853
 Alpha  occ. eigenvalues --   -0.48319  -0.48211  -0.48042  -0.47674  -0.47346
 Alpha  occ. eigenvalues --   -0.47170  -0.46925  -0.46599  -0.46451  -0.46046
 Alpha  occ. eigenvalues --   -0.45724  -0.45355  -0.45269  -0.44915  -0.44363
 Alpha  occ. eigenvalues --   -0.43768  -0.43314  -0.42167  -0.40732  -0.40544
 Alpha  occ. eigenvalues --   -0.40053  -0.39640  -0.39023  -0.37769  -0.37474
 Alpha  occ. eigenvalues --   -0.36882  -0.36662  -0.36416  -0.36128  -0.35643
 Alpha  occ. eigenvalues --   -0.35306  -0.35075  -0.34392  -0.34036  -0.33949
 Alpha  occ. eigenvalues --   -0.31822  -0.31394
 Alpha virt. eigenvalues --   -0.12638  -0.12102  -0.11892  -0.09786  -0.09141
 Alpha virt. eigenvalues --   -0.09053  -0.07810  -0.07674  -0.06198  -0.05120
 Alpha virt. eigenvalues --   -0.04276  -0.04078  -0.02766  -0.02358  -0.01726

 Mulliken charges:
               1
     1  N   -0.716223
     2  H    0.319662
     3  H    0.313930
     4  C   -0.077177
     5  H    0.137396
     6  C    0.642868
     7  C   -0.352973
     8  H    0.187758
     9  H    0.147463
    10  O   -0.520544
    11  C    0.084114
    12  C   -0.193324
    13  H    0.152548
    14  C   -0.209401
    15  H    0.179182
    16  C   -0.123705
    17  H    0.164214
    18  C   -0.162666
    19  H    0.164297
    20  C   -0.139589
    21  H    0.163843
    22  N   -0.627151
    23  H    0.340574
    24  C   -0.097349
    25  H    0.197834
    26  C    0.622272
    27  C   -0.037350
    28  H    0.181360
    29  H    0.146156
    30  O   -0.524693
    31  O   -0.603366
    32  H    0.388687
    33  N   -0.628407
    34  H    0.373118
    35  C   -0.057607
    36  H    0.197837
    37  C    0.608655
    38  C   -0.047634
    39  H    0.117479
    40  H    0.188415
    41  O   -0.541557
    42  O   -0.647318
    43  H    0.434034
    44  N   -0.589473
    45  H    0.353831
    46  C   -0.069985
    47  H    0.205359
    48  C    0.657276
    49  C   -0.387303
    50  H    0.199303
    51  H    0.204290
    52  O   -0.559248
    53  C    0.596866
    54  O   -0.446409
    55  O   -0.553979
    56  N   -0.595560
    57  H    0.350844
    58  C   -0.063975
    59  H    0.225669
    60  C    0.594231
    61  C   -0.287610
    62  H    0.159129
    63  H    0.140403
    64  O   -0.460512
    65  C   -0.291609
    66  H    0.223760
    67  H    0.161877
    68  C   -0.208974
    69  H    0.235472
    70  H    0.172407
    71  N   -0.601311
    72  H    0.384004
    73  N   -0.759240
    74  H    0.380353
    75  H    0.392685
    76  N   -0.781687
    77  H    0.399941
    78  H    0.373315
    79  C    0.803457
    80  O   -0.557926
    81  H    0.429795
    82  H    0.424871
 Sum of Mulliken charges =   1.00000

 Dipole moment (field-independent basis, Debye):
    X=              4.3227    Y=             -8.3751    Z=             19.3172  Tot=             21.4937
 Quadrupole moment (field-independent basis, Debye-Ang):
   XX=           -172.8693   YY=           -197.6749   ZZ=           -165.7114
   XY=             36.1856   XZ=             12.2133   YZ=            -61.9922

 Normal termination of Gaussian 16 at Wed Jun 29 02:13:49 2022.
