 Gaussian 16, Revision C.01,
 Gaussian 16:  ES64L-G16RevC.01  3-Jul-2019

 ----------------------------------------------------------------------
 # B3LYP/6-31G* empiricaldispersion=gd3bj guess=read geom=check nosymm
 integral(ultrafinegrid)
 ----------------------------------------------------------------------

 ------------------------------------------------------
 Candidate Structure: Conf:217 Charge calc in gas phase
 ------------------------------------------------------
 Structure from the checkpoint file:  "conf-217.chk"
 Charge =  1 Multiplicity = 1

                          Input orientation:
 ---------------------------------------------------------------------
 Center     Atomic      Atomic             Coordinates (Angstroms)
 Number     Number       Type             X           Y           Z
 ---------------------------------------------------------------------
      1          7           0       -4.145078    0.429884   -5.236381
      2          1           0       -3.827268    1.216420   -5.801572
      3          1           0       -3.559471   -0.355582   -5.522930
      4          6           0       -3.864568    0.699235   -3.833884
      5          1           0       -4.282695    1.679713   -3.578566
      6          6           0       -2.361573    0.692055   -3.517616
      7          6           0       -4.564868   -0.372324   -2.953807
      8          1           0       -5.618997   -0.373579   -3.249226
      9          1           0       -4.146389   -1.352356   -3.210085
     10          8           0       -1.577665    0.011713   -4.188653
     11          6           0       -4.396916   -0.107240   -1.476955
     12          6           0       -3.546356   -0.900088   -0.697602
     13          1           0       -3.063940   -1.763854   -1.145881
     14          6           0       -5.008081    1.009249   -0.886991
     15          1           0       -5.685454    1.623507   -1.476339
     16          6           0       -3.290716   -0.568313    0.633554
     17          1           0       -2.607298   -1.178820    1.215551
     18          6           0       -4.753846    1.341698    0.444304
     19          1           0       -5.235710    2.209731    0.885861
     20          6           0       -3.885689    0.556156    1.205810
     21          1           0       -3.681279    0.817701    2.240376
     22          7           0       -1.952410    1.437615   -2.454652
     23          1           0       -2.664604    1.762475   -1.809901
     24          6           0       -0.581765    1.359847   -1.962482
     25          1           0        0.072176    1.359730   -2.839194
     26          6           0       -0.320304    0.061088   -1.182668
     27          6           0       -0.219672    2.558876   -1.081596
     28          1           0       -0.906455    2.601787   -0.222930
     29          1           0       -0.335992    3.477096   -1.663983
     30          8           0       -0.134977    0.068095    0.046278
     31          8           0        1.131930    2.488862   -0.669552
     32          1           0        1.192740    1.769987   -0.014462
     33          7           0       -0.242169   -1.050871   -1.933518
     34          1           0       -0.496354   -0.968569   -2.919587
     35          6           0        0.111702   -2.353595   -1.374853
     36          1           0       -0.346082   -2.430517   -0.382949
     37          6           0        1.650430   -2.397915   -1.256072
     38          6           0       -0.399789   -3.469194   -2.270262
     39          1           0       -0.078293   -4.431376   -1.850619
     40          1           0        0.054719   -3.375433   -3.265233
     41          8           0        2.354045   -3.078547   -1.991733
     42          8           0       -1.817294   -3.355021   -2.320467
     43          1           0       -2.151254   -4.008384   -2.952701
     44          7           0        2.143954   -1.540300   -0.315175
     45          1           0        1.479749   -0.910951    0.140511
     46          6           0        3.508621   -1.074053   -0.388043
     47          1           0        4.197390   -1.922274   -0.360778
     48          6           0        3.754263   -0.107155    0.763432
     49          6           0        3.769057   -0.259478   -1.701557
     50          1           0        3.663117   -0.952358   -2.539786
     51          1           0        3.034241    0.546089   -1.769671
     52          8           0        2.869215    0.634276    1.186901
     53          6           0        5.147835    0.353984   -1.674559
     54          8           0        5.391520    1.532624   -1.526771
     55          8           0        6.112939   -0.596528   -1.717225
     56          7           0        5.042996   -0.045890    1.209928
     57          1           0        5.735380   -0.613902    0.729593
     58          6           0        5.568446    1.201369    1.746432
     59          1           0        4.955593    2.025095    1.362244
     60          6           0        6.977480    1.384776    1.193314
     61          6           0        5.568064    1.258402    3.288164
     62          1           0        6.031386    2.201981    3.596956
     63          1           0        6.188238    0.440625    3.676699
     64          8           0        7.580225    0.551029    0.549864
     65          6           0        4.146334    1.155504    3.842065
     66          1           0        3.707961    0.199479    3.538070
     67          1           0        3.521465    1.937638    3.398777
     68          6           0        4.096511    1.268261    5.362670
     69          1           0        4.689951    0.471230    5.829876
     70          1           0        4.484039    2.237456    5.697700
     71          7           0        2.690419    1.153594    5.793174
     72          1           0        2.031841    0.826261    5.096213
     73          7           0        3.076948    1.650188    8.021674
     74          1           0        2.759894    2.048656    8.893723
     75          1           0        4.065981    1.475929    7.920886
     76          7           0        0.905503    1.478034    7.238335
     77          1           0        0.242544    1.470349    6.476135
     78          1           0        0.531915    1.442262    8.176013
     79          6           0        2.228081    1.421249    7.010362
     80          8           0        7.483818    2.578898    1.528539
     81          1           0        8.371834    2.643065    1.126858
     82          1           0        6.961256   -0.145949   -1.533537
 ---------------------------------------------------------------------

 SCF Done:  E(RB3LYP) =  -2166.45651919     A.U. after    2 cycles

 Alpha  occ. eigenvalues --  -19.29853 -19.26150 -19.24445 -19.21687 -19.21674
 Alpha  occ. eigenvalues --  -19.20644 -19.19379 -19.19242 -19.18579 -19.18418
 Alpha  occ. eigenvalues --  -14.54987 -14.54745 -14.54713 -14.45405 -14.42903
 Alpha  occ. eigenvalues --  -14.42759 -14.41866 -14.36494 -10.51188 -10.42557
 Alpha  occ. eigenvalues --  -10.38865 -10.38322 -10.37939 -10.35691 -10.35338
 Alpha  occ. eigenvalues --  -10.34873 -10.34068 -10.31844 -10.31363 -10.30648
 Alpha  occ. eigenvalues --  -10.30095 -10.30049 -10.29416 -10.29225 -10.28158
 Alpha  occ. eigenvalues --  -10.26978 -10.25184 -10.24976 -10.24764 -10.24594
 Alpha  occ. eigenvalues --  -10.24582 -10.24402 -10.23766  -1.21029  -1.19704
 Alpha  occ. eigenvalues --   -1.17113  -1.13586  -1.12055  -1.11426  -1.10264
 Alpha  occ. eigenvalues --   -1.09921  -1.08832  -1.08804  -1.08076  -1.07871
 Alpha  occ. eigenvalues --   -1.06739  -1.02509  -0.99849  -0.99380  -0.98715
 Alpha  occ. eigenvalues --   -0.94301  -0.93300  -0.91128  -0.88588  -0.86139
 Alpha  occ. eigenvalues --   -0.84297  -0.83359  -0.82664  -0.81138  -0.80359
 Alpha  occ. eigenvalues --   -0.80005  -0.77493  -0.76941  -0.76672  -0.73969
 Alpha  occ. eigenvalues --   -0.72464  -0.72194  -0.71362  -0.70218  -0.68763
 Alpha  occ. eigenvalues --   -0.68317  -0.67870  -0.67535  -0.67017  -0.66240
 Alpha  occ. eigenvalues --   -0.65380  -0.64721  -0.64581  -0.63899  -0.63387
 Alpha  occ. eigenvalues --   -0.62711  -0.61992  -0.60434  -0.59676  -0.59566
 Alpha  occ. eigenvalues --   -0.58577  -0.57853  -0.57558  -0.57136  -0.56773
 Alpha  occ. eigenvalues --   -0.56605  -0.56197  -0.55808  -0.55478  -0.54962
 Alpha  occ. eigenvalues --   -0.54474  -0.53888  -0.53816  -0.53174  -0.52468
 Alpha  occ. eigenvalues --   -0.52370  -0.51865  -0.51372  -0.50651  -0.50485
 Alpha  occ. eigenvalues --   -0.50062  -0.49591  -0.49467  -0.49319  -0.48728
 Alpha  occ. eigenvalues --   -0.48215  -0.47801  -0.47677  -0.47601  -0.47175
 Alpha  occ. eigenvalues --   -0.46716  -0.46365  -0.46184  -0.45969  -0.45907
 Alpha  occ. eigenvalues --   -0.45479  -0.45470  -0.45124  -0.44955  -0.44384
 Alpha  occ. eigenvalues --   -0.44151  -0.43506  -0.43171  -0.42889  -0.41944
 Alpha  occ. eigenvalues --   -0.41472  -0.40824  -0.40367  -0.39137  -0.38991
 Alpha  occ. eigenvalues --   -0.38954  -0.38743  -0.38029  -0.36075  -0.35442
 Alpha  occ. eigenvalues --   -0.35198  -0.34375  -0.34276  -0.33912  -0.32983
 Alpha  occ. eigenvalues --   -0.32653  -0.32058  -0.31044  -0.30823  -0.30622
 Alpha  occ. eigenvalues --   -0.29979  -0.28965
 Alpha virt. eigenvalues --   -0.14787  -0.10819  -0.09469  -0.08045  -0.07121
 Alpha virt. eigenvalues --   -0.06927  -0.06226  -0.06111  -0.06008  -0.05890
 Alpha virt. eigenvalues --   -0.05465  -0.04537  -0.03388  -0.02593  -0.01570

 Mulliken charges:
               1
     1  N   -0.690834
     2  H    0.306633
     3  H    0.313917
     4  C   -0.085428
     5  H    0.147936
     6  C    0.606524
     7  C   -0.338187
     8  H    0.178649
     9  H    0.157824
    10  O   -0.554311
    11  C    0.132291
    12  C   -0.211324
    13  H    0.188653
    14  C   -0.209849
    15  H    0.137588
    16  C   -0.118152
    17  H    0.128460
    18  C   -0.132625
    19  H    0.135147
    20  C   -0.132043
    21  H    0.114622
    22  N   -0.593963
    23  H    0.349237
    24  C   -0.078011
    25  H    0.193855
    26  C    0.638882
    27  C   -0.041684
    28  H    0.131775
    29  H    0.158369
    30  O   -0.585174
    31  O   -0.643954
    32  H    0.428073
    33  N   -0.609772
    34  H    0.393739
    35  C   -0.076301
    36  H    0.183812
    37  C    0.625767
    38  C   -0.051011
    39  H    0.155480
    40  H    0.160804
    41  O   -0.519125
    42  O   -0.618201
    43  H    0.410079
    44  N   -0.652251
    45  H    0.394502
    46  C   -0.030269
    47  H    0.193129
    48  C    0.588925
    49  C   -0.353888
    50  H    0.218843
    51  H    0.198097
    52  O   -0.540140
    53  C    0.553273
    54  O   -0.465533
    55  O   -0.566393
    56  N   -0.609837
    57  H    0.366352
    58  C   -0.045799
    59  H    0.223403
    60  C    0.610489
    61  C   -0.277430
    62  H    0.174664
    63  H    0.158676
    64  O   -0.482462
    65  C   -0.313588
    66  H    0.183137
    67  H    0.190679
    68  C   -0.143717
    69  H    0.183766
    70  H    0.187711
    71  N   -0.610464
    72  H    0.378287
    73  N   -0.756922
    74  H    0.389669
    75  H    0.396800
    76  N   -0.762429
    77  H    0.390948
    78  H    0.388615
    79  C    0.843651
    80  O   -0.556247
    81  H    0.433291
    82  H    0.432297
 Sum of Mulliken charges =   1.00000

 Dipole moment (field-independent basis, Debye):
    X=             11.4302    Y=              6.1912    Z=             29.8755  Tot=             32.5811
 Quadrupole moment (field-independent basis, Debye-Ang):
   XX=           -166.6130   YY=           -232.2075   ZZ=            -14.2459
   XY=             20.2957   XZ=             85.2896   YZ=             50.1611

 Normal termination of Gaussian 16 at Wed Jun 29 02:14:17 2022.
