 Gaussian 16, Revision C.01,
 Gaussian 16:  ES64L-G16RevC.01  3-Jul-2019

 ----------------------------------------------------------------------
 # B3LYP/6-31G* empiricaldispersion=gd3bj guess=read geom=check nosymm
 integral(ultrafinegrid)
 ----------------------------------------------------------------------

 ------------------------------------------------------
 Candidate Structure: Conf:641 Charge calc in gas phase
 ------------------------------------------------------
 Structure from the checkpoint file:  "conf-641.chk"
 Charge =  1 Multiplicity = 1

                          Input orientation:
 ---------------------------------------------------------------------
 Center     Atomic      Atomic             Coordinates (Angstroms)
 Number     Number       Type             X           Y           Z
 ---------------------------------------------------------------------
      1          7           0       -2.257082   -4.462723   -3.223090
      2          1           0       -2.336182   -4.455802   -4.239595
      3          1           0       -1.289310   -4.190911   -3.042012
      4          6           0       -3.108126   -3.413952   -2.677337
      5          1           0       -4.112126   -3.523483   -3.104109
      6          6           0       -2.577566   -2.004352   -3.005186
      7          6           0       -3.224067   -3.599069   -1.137795
      8          1           0       -3.502047   -4.645921   -0.980081
      9          1           0       -2.231185   -3.451587   -0.696250
     10          8           0       -1.400337   -1.825801   -3.317574
     11          6           0       -4.224124   -2.661203   -0.505960
     12          6           0       -3.796458   -1.516663    0.178075
     13          1           0       -2.730547   -1.357052    0.305954
     14          6           0       -5.599373   -2.851329   -0.701345
     15          1           0       -5.947737   -3.738082   -1.226212
     16          6           0       -4.714521   -0.567660    0.628992
     17          1           0       -4.364553    0.336079    1.118439
     18          6           0       -6.521855   -1.909707   -0.242263
     19          1           0       -7.583800   -2.070055   -0.405265
     20          6           0       -6.080728   -0.759902    0.416488
     21          1           0       -6.796549   -0.018194    0.757976
     22          7           0       -3.477617   -0.981139   -2.922600
     23          1           0       -4.323934   -1.160747   -2.392686
     24          6           0       -3.076845    0.423751   -3.042156
     25          1           0       -2.360168    0.468918   -3.867830
     26          6           0       -2.395391    0.967617   -1.771830
     27          6           0       -4.312742    1.247146   -3.404133
     28          1           0       -4.047419    2.303930   -3.461882
     29          1           0       -5.063005    1.144145   -2.603812
     30          8           0       -2.903917    1.850668   -1.081155
     31          8           0       -4.825985    0.874483   -4.670151
     32          1           0       -4.905048   -0.093385   -4.669536
     33          7           0       -1.184377    0.423723   -1.495467
     34          1           0       -0.783248   -0.289884   -2.104298
     35          6           0       -0.362553    0.953861   -0.433167
     36          1           0       -0.385979    2.051448   -0.480831
     37          6           0        1.073542    0.472720   -0.671458
     38          6           0       -0.858400    0.571486    0.966985
     39          1           0       -1.918885    0.836096    1.023634
     40          1           0       -0.320678    1.165598    1.724013
     41          8           0        1.370280   -0.290597   -1.582459
     42          8           0       -0.633845   -0.820122    1.160668
     43          1           0       -1.169780   -1.110021    1.914026
     44          7           0        2.007804    0.978260    0.181301
     45          1           0        1.746558    1.461746    1.032824
     46          6           0        3.358601    0.463759    0.158652
     47          1           0        3.323792   -0.627268    0.033401
     48          6           0        3.986675    0.786764    1.518055
     49          6           0        4.151048    1.031225   -1.034674
     50          1           0        5.100056    0.496478   -1.177287
     51          1           0        3.569616    0.861337   -1.942514
     52          8           0        3.337479    1.276308    2.435522
     53          6           0        4.472236    2.500718   -0.870440
     54          8           0        4.639858    3.064156    0.192804
     55          8           0        4.589742    3.122103   -2.056980
     56          7           0        5.308982    0.455995    1.655807
     57          1           0        5.807642    0.209377    0.811799
     58          6           0        6.095313    1.172331    2.648605
     59          1           0        5.523071    2.068636    2.920518
     60          6           0        7.420346    1.678666    2.089757
     61          6           0        6.362492    0.360286    3.926695
     62          1           0        7.017944    0.966871    4.560965
     63          1           0        6.922321   -0.548242    3.669232
     64          8           0        8.277057    2.182825    2.778352
     65          6           0        5.074390   -0.018706    4.661610
     66          1           0        4.495611   -0.729332    4.064962
     67          1           0        4.422029    0.855029    4.778342
     68          6           0        5.339391   -0.654536    6.025029
     69          1           0        4.403538   -1.010996    6.471856
     70          1           0        6.028490   -1.500758    5.926553
     71          7           0        5.966303    0.333227    6.925443
     72          1           0        5.783176    1.308899    6.724030
     73          7           0        6.758250   -1.190534    8.482148
     74          1           0        7.468427   -1.465390    9.145679
     75          1           0        6.091433   -1.891625    8.194083
     76          7           0        7.416165    1.026132    8.595488
     77          1           0        7.588410    1.909406    8.136183
     78          1           0        7.784543    0.908410    9.528598
     79          6           0        6.705076    0.056997    7.996118
     80          8           0        7.541066    1.505297    0.756034
     81          1           0        8.407052    1.874592    0.496662
     82          1           0        4.818779    4.053070   -1.871160
 ---------------------------------------------------------------------

 SCF Done:  E(RB3LYP) =  -2166.43268112     A.U. after    2 cycles

 Alpha  occ. eigenvalues --  -19.30399 -19.27373 -19.24154 -19.21955 -19.21642
 Alpha  occ. eigenvalues --  -19.21638 -19.18354 -19.17756 -19.16883 -19.15940
 Alpha  occ. eigenvalues --  -14.55189 -14.54960 -14.54906 -14.45511 -14.42697
 Alpha  occ. eigenvalues --  -14.41143 -14.39695 -14.35371 -10.51379 -10.42573
 Alpha  occ. eigenvalues --  -10.40168 -10.38544 -10.38057 -10.35427 -10.34312
 Alpha  occ. eigenvalues --  -10.33259 -10.32932 -10.32249 -10.31514 -10.30648
 Alpha  occ. eigenvalues --  -10.29926 -10.29215 -10.28403 -10.27354 -10.27024
 Alpha  occ. eigenvalues --  -10.26826 -10.24377 -10.23880 -10.23736 -10.23705
 Alpha  occ. eigenvalues --  -10.23628 -10.23618 -10.23231  -1.21118  -1.19876
 Alpha  occ. eigenvalues --   -1.18456  -1.13736  -1.12051  -1.10655  -1.09391
 Alpha  occ. eigenvalues --   -1.09029  -1.08849  -1.08697  -1.08019  -1.07554
 Alpha  occ. eigenvalues --   -1.05357  -1.02760  -0.99809  -0.97389  -0.96541
 Alpha  occ. eigenvalues --   -0.93373  -0.93155  -0.90270  -0.88775  -0.86490
 Alpha  occ. eigenvalues --   -0.83087  -0.82817  -0.82347  -0.80746  -0.79712
 Alpha  occ. eigenvalues --   -0.79172  -0.77522  -0.77154  -0.75609  -0.75017
 Alpha  occ. eigenvalues --   -0.72606  -0.71665  -0.70573  -0.69637  -0.69138
 Alpha  occ. eigenvalues --   -0.68699  -0.68489  -0.68052  -0.66321  -0.65314
 Alpha  occ. eigenvalues --   -0.65021  -0.64155  -0.63578  -0.63200  -0.62511
 Alpha  occ. eigenvalues --   -0.62320  -0.61726  -0.60342  -0.58903  -0.58603
 Alpha  occ. eigenvalues --   -0.58305  -0.57978  -0.57545  -0.57176  -0.56396
 Alpha  occ. eigenvalues --   -0.56246  -0.56008  -0.54931  -0.54709  -0.54257
 Alpha  occ. eigenvalues --   -0.53517  -0.53387  -0.53324  -0.52681  -0.52275
 Alpha  occ. eigenvalues --   -0.51795  -0.51291  -0.50906  -0.50338  -0.50294
 Alpha  occ. eigenvalues --   -0.49755  -0.49463  -0.49186  -0.48649  -0.48216
 Alpha  occ. eigenvalues --   -0.48180  -0.47519  -0.47078  -0.46758  -0.46573
 Alpha  occ. eigenvalues --   -0.46537  -0.46280  -0.46066  -0.45836  -0.45340
 Alpha  occ. eigenvalues --   -0.45147  -0.44984  -0.44305  -0.44029  -0.43521
 Alpha  occ. eigenvalues --   -0.43454  -0.42767  -0.42124  -0.42004  -0.41254
 Alpha  occ. eigenvalues --   -0.40661  -0.40211  -0.39667  -0.39109  -0.38584
 Alpha  occ. eigenvalues --   -0.38556  -0.38196  -0.36903  -0.35946  -0.35568
 Alpha  occ. eigenvalues --   -0.35137  -0.34065  -0.33042  -0.32908  -0.32020
 Alpha  occ. eigenvalues --   -0.31027  -0.30593  -0.29940  -0.29858  -0.29289
 Alpha  occ. eigenvalues --   -0.28135  -0.27994
 Alpha virt. eigenvalues --   -0.15203  -0.10979  -0.09367  -0.07786  -0.07347
 Alpha virt. eigenvalues --   -0.06661  -0.06375  -0.05571  -0.05280  -0.05179
 Alpha virt. eigenvalues --   -0.04420  -0.03583  -0.02928  -0.02484  -0.01958

 Mulliken charges:
               1
     1  N   -0.693337
     2  H    0.305262
     3  H    0.314273
     4  C   -0.088314
     5  H    0.148969
     6  C    0.593875
     7  C   -0.337168
     8  H    0.174391
     9  H    0.156477
    10  O   -0.531649
    11  C    0.118686
    12  C   -0.218826
    13  H    0.157589
    14  C   -0.196394
    15  H    0.137231
    16  C   -0.135863
    17  H    0.143832
    18  C   -0.130187
    19  H    0.142613
    20  C   -0.136384
    21  H    0.142012
    22  N   -0.618488
    23  H    0.352256
    24  C   -0.095934
    25  H    0.193089
    26  C    0.630817
    27  C   -0.032555
    28  H    0.170937
    29  H    0.138389
    30  O   -0.547248
    31  O   -0.616900
    32  H    0.392708
    33  N   -0.637910
    34  H    0.402007
    35  C   -0.044891
    36  H    0.182808
    37  C    0.629658
    38  C   -0.066822
    39  H    0.185084
    40  H    0.124345
    41  O   -0.515862
    42  O   -0.606237
    43  H    0.404106
    44  N   -0.627716
    45  H    0.361130
    46  C   -0.044880
    47  H    0.199505
    48  C    0.633040
    49  C   -0.389904
    50  H    0.177830
    51  H    0.237475
    52  O   -0.535834
    53  C    0.605389
    54  O   -0.475558
    55  O   -0.550271
    56  N   -0.613425
    57  H    0.354836
    58  C   -0.056784
    59  H    0.219483
    60  C    0.605554
    61  C   -0.264467
    62  H    0.152246
    63  H    0.156060
    64  O   -0.458603
    65  C   -0.314971
    66  H    0.197122
    67  H    0.185544
    68  C   -0.159095
    69  H    0.194546
    70  H    0.182528
    71  N   -0.594250
    72  H    0.371067
    73  N   -0.752674
    74  H    0.390093
    75  H    0.396766
    76  N   -0.760077
    77  H    0.391454
    78  H    0.389197
    79  C    0.833293
    80  O   -0.577726
    81  H    0.432231
    82  H    0.419402
 Sum of Mulliken charges =   1.00000

 Dipole moment (field-independent basis, Debye):
    X=             31.6050    Y=             -0.8134    Z=             34.6239  Tot=             46.8866
 Quadrupole moment (field-independent basis, Debye-Ang):
   XX=             -4.4719   YY=           -238.8622   ZZ=             27.8931
   XY=             18.1248   XZ=            218.4687   YZ=             -6.3922

 Normal termination of Gaussian 16 at Wed Jun 29 02:14:05 2022.
