 Gaussian 16, Revision C.01,
 Gaussian 16:  ES64L-G16RevC.01  3-Jul-2019

 ----------------------------------------------------------------------
 # B3LYP/6-31G* empiricaldispersion=gd3bj guess=read geom=check nosymm
 integral(ultrafinegrid)
 ----------------------------------------------------------------------

 ------------------------------------------------------
 Candidate Structure: Conf:472 Charge calc in gas phase
 ------------------------------------------------------
 Structure from the checkpoint file:  "conf-472.chk"
 Charge =  1 Multiplicity = 1

                          Input orientation:
 ---------------------------------------------------------------------
 Center     Atomic      Atomic             Coordinates (Angstroms)
 Number     Number       Type             X           Y           Z
 ---------------------------------------------------------------------
      1          7           0       -5.218140   -1.439947   -1.626022
      2          1           0       -5.430451   -1.925231   -2.496272
      3          1           0       -4.674148   -2.101428   -1.071326
      4          6           0       -4.381384   -0.283162   -1.898222
      5          1           0       -4.828188    0.282321   -2.723557
      6          6           0       -2.941378   -0.669377   -2.280441
      7          6           0       -4.358253    0.636207   -0.645172
      8          1           0       -5.402341    0.872150   -0.417810
      9          1           0       -3.966705    0.054162    0.198218
     10          8           0       -2.432791   -1.711651   -1.851499
     11          6           0       -3.533066    1.882179   -0.854217
     12          6           0       -2.277349    2.027232   -0.254227
     13          1           0       -1.944817    1.271037    0.452569
     14          6           0       -3.957821    2.869768   -1.755414
     15          1           0       -4.939343    2.786443   -2.216425
     16          6           0       -1.447840    3.103422   -0.571485
     17          1           0       -0.456569    3.178919   -0.135002
     18          6           0       -3.134047    3.951553   -2.072145
     19          1           0       -3.478532    4.704698   -2.774623
     20          6           0       -1.869874    4.064826   -1.489760
     21          1           0       -1.219797    4.894145   -1.749533
     22          7           0       -2.271833    0.197062   -3.090076
     23          1           0       -2.643942    1.139973   -3.154337
     24          6           0       -0.859029    0.028624   -3.452789
     25          1           0       -0.722274   -1.024369   -3.717131
     26          6           0        0.047100    0.370660   -2.263075
     27          6           0       -0.548224    0.891079   -4.677379
     28          1           0        0.521155    0.841377   -4.891364
     29          1           0       -0.784360    1.942967   -4.451345
     30          8           0        0.702138    1.415117   -2.203281
     31          8           0       -1.216596    0.418846   -5.827676
     32          1           0       -2.169632    0.423681   -5.646000
     33          7           0        0.050452   -0.569890   -1.283398
     34          1           0       -0.636374   -1.320418   -1.397906
     35          6           0        0.507776   -0.275082    0.065889
     36          1           0        0.236517    0.763590    0.296697
     37          6           0        2.037711   -0.352511    0.257143
     38          6           0       -0.213080   -1.211221    1.045317
     39          1           0       -0.019710   -2.255911    0.773177
     40          1           0       -1.291159   -1.040002    0.993556
     41          8           0        2.533466   -1.049517    1.164146
     42          8           0        0.208930   -0.971608    2.386752
     43          1           0        1.177824   -1.154812    2.351127
     44          7           0        2.751036    0.447722   -0.545105
     45          1           0        2.221857    1.028707   -1.203375
     46          6           0        4.178113    0.715713   -0.336975
     47          1           0        4.673246   -0.220563   -0.073093
     48          6           0        4.272760    1.715047    0.837194
     49          6           0        4.788772    1.305270   -1.598967
     50          1           0        4.597133    0.659533   -2.462955
     51          1           0        4.354567    2.287286   -1.811744
     52          8           0        4.295561    2.927154    0.663065
     53          6           0        6.282153    1.468310   -1.421298
     54          8           0        6.903880    1.094448   -0.451074
     55          8           0        6.844423    2.074463   -2.483662
     56          7           0        4.195257    1.121284    2.057956
     57          1           0        4.048918    0.118152    2.076448
     58          6           0        3.923557    1.877410    3.260276
     59          1           0        4.228443    2.908871    3.042701
     60          6           0        4.764475    1.412755    4.449184
     61          6           0        2.429196    1.842975    3.627756
     62          1           0        2.322760    2.194814    4.657288
     63          1           0        2.102071    0.794912    3.614903
     64          8           0        4.420603    1.546288    5.604215
     65          6           0        1.558207    2.672759    2.680097
     66          1           0        1.808099    2.463182    1.634380
     67          1           0        1.764970    3.740738    2.824802
     68          6           0        0.061275    2.397233    2.853877
     69          1           0       -0.541439    3.083942    2.252014
     70          1           0       -0.171458    1.385931    2.523273
     71          7           0       -0.379415    2.526190    4.250888
     72          1           0       -0.261237    3.440224    4.669264
     73          7           0       -0.759948    0.260696    4.693418
     74          1           0       -1.191235   -0.424260    5.297613
     75          1           0       -0.401110   -0.090973    3.794041
     76          7           0       -1.161001    1.850719    6.318631
     77          1           0       -1.191501    2.809886    6.631682
     78          1           0       -1.192489    1.143000    7.038060
     79          6           0       -0.748051    1.538333    5.070915
     80          8           0        5.932110    0.866276    4.075575
     81          1           0        6.414403    0.644672    4.895367
     82          1           0        7.800119    2.143137   -2.296525
 ---------------------------------------------------------------------

 SCF Done:  E(RB3LYP) =  -2166.47721198     A.U. after    3 cycles

 Alpha  occ. eigenvalues --  -19.28133 -19.27479 -19.26489 -19.23761 -19.23126
 Alpha  occ. eigenvalues --  -19.22632 -19.22566 -19.22499 -19.21012 -19.20070
 Alpha  occ. eigenvalues --  -14.52712 -14.52442 -14.51046 -14.46757 -14.46484
 Alpha  occ. eigenvalues --  -14.46431 -14.44416 -14.39814 -10.48761 -10.40802
 Alpha  occ. eigenvalues --  -10.40166 -10.39563 -10.39390 -10.38789 -10.37221
 Alpha  occ. eigenvalues --  -10.35856 -10.35497 -10.34962 -10.33122 -10.32988
 Alpha  occ. eigenvalues --  -10.32642 -10.31941 -10.31860 -10.30414 -10.29507
 Alpha  occ. eigenvalues --  -10.29362 -10.28827 -10.28770 -10.28526 -10.28458
 Alpha  occ. eigenvalues --  -10.28366 -10.28359 -10.28247  -1.19262  -1.17560
 Alpha  occ. eigenvalues --   -1.17128  -1.16084  -1.14890  -1.13919  -1.13603
 Alpha  occ. eigenvalues --   -1.12078  -1.10200  -1.10190  -1.08629  -1.06646
 Alpha  occ. eigenvalues --   -1.04804  -1.03942  -1.03122  -1.02518  -1.01651
 Alpha  occ. eigenvalues --   -0.97800  -0.95144  -0.91686  -0.89408  -0.87781
 Alpha  occ. eigenvalues --   -0.87103  -0.86217  -0.84820  -0.84121  -0.81336
 Alpha  occ. eigenvalues --   -0.80462  -0.78877  -0.78294  -0.75747  -0.74754
 Alpha  occ. eigenvalues --   -0.74530  -0.73248  -0.73021  -0.70652  -0.70353
 Alpha  occ. eigenvalues --   -0.70110  -0.69241  -0.68652  -0.68301  -0.67513
 Alpha  occ. eigenvalues --   -0.67299  -0.66654  -0.65890  -0.65102  -0.64230
 Alpha  occ. eigenvalues --   -0.63086  -0.62483  -0.61944  -0.61090  -0.60794
 Alpha  occ. eigenvalues --   -0.60642  -0.60119  -0.59390  -0.59271  -0.58894
 Alpha  occ. eigenvalues --   -0.58604  -0.57538  -0.56915  -0.56584  -0.56252
 Alpha  occ. eigenvalues --   -0.55957  -0.55343  -0.55241  -0.54854  -0.54778
 Alpha  occ. eigenvalues --   -0.54531  -0.54165  -0.53682  -0.53322  -0.53156
 Alpha  occ. eigenvalues --   -0.52451  -0.52263  -0.51795  -0.51634  -0.51382
 Alpha  occ. eigenvalues --   -0.50575  -0.50096  -0.49865  -0.49188  -0.49111
 Alpha  occ. eigenvalues --   -0.48748  -0.48386  -0.48266  -0.48102  -0.47836
 Alpha  occ. eigenvalues --   -0.47384  -0.47045  -0.46851  -0.46073  -0.45842
 Alpha  occ. eigenvalues --   -0.45346  -0.45244  -0.44959  -0.44782  -0.44201
 Alpha  occ. eigenvalues --   -0.43349  -0.43056  -0.42992  -0.41609  -0.40894
 Alpha  occ. eigenvalues --   -0.40253  -0.40159  -0.39350  -0.38867  -0.38733
 Alpha  occ. eigenvalues --   -0.37860  -0.37038  -0.36695  -0.36215  -0.35522
 Alpha  occ. eigenvalues --   -0.34840  -0.34746  -0.34390  -0.33802  -0.33677
 Alpha  occ. eigenvalues --   -0.32963  -0.32401
 Alpha virt. eigenvalues --   -0.12194  -0.10526  -0.10274  -0.09851  -0.09585
 Alpha virt. eigenvalues --   -0.08973  -0.08197  -0.07916  -0.05940  -0.05753
 Alpha virt. eigenvalues --   -0.05141  -0.04836  -0.03573  -0.02674  -0.02055

 Mulliken charges:
               1
     1  N   -0.689836
     2  H    0.315355
     3  H    0.315801
     4  C   -0.082898
     5  H    0.154857
     6  C    0.602715
     7  C   -0.338577
     8  H    0.188906
     9  H    0.142676
    10  O   -0.552060
    11  C    0.148266
    12  C   -0.196392
    13  H    0.109702
    14  C   -0.216507
    15  H    0.150486
    16  C   -0.122938
    17  H    0.138572
    18  C   -0.130375
    19  H    0.158812
    20  C   -0.133437
    21  H    0.156934
    22  N   -0.608692
    23  H    0.352537
    24  C   -0.097665
    25  H    0.204047
    26  C    0.646169
    27  C   -0.041136
    28  H    0.178750
    29  H    0.146452
    30  O   -0.550464
    31  O   -0.600240
    32  H    0.396125
    33  N   -0.627935
    34  H    0.395748
    35  C   -0.088133
    36  H    0.179249
    37  C    0.651200
    38  C   -0.078741
    39  H    0.182870
    40  H    0.175504
    41  O   -0.581959
    42  O   -0.675580
    43  H    0.449913
    44  N   -0.629624
    45  H    0.399934
    46  C   -0.052131
    47  H    0.200711
    48  C    0.651809
    49  C   -0.389318
    50  H    0.196405
    51  H    0.212944
    52  O   -0.534498
    53  C    0.610257
    54  O   -0.458164
    55  O   -0.563979
    56  N   -0.597648
    57  H    0.362629
    58  C   -0.068829
    59  H    0.222494
    60  C    0.588355
    61  C   -0.270435
    62  H    0.169170
    63  H    0.129085
    64  O   -0.467816
    65  C   -0.291622
    66  H    0.183054
    67  H    0.167198
    68  C   -0.191834
    69  H    0.195602
    70  H    0.178900
    71  N   -0.593725
    72  H    0.358876
    73  N   -0.802871
    74  H    0.371280
    75  H    0.458637
    76  N   -0.764205
    77  H    0.378389
    78  H    0.381653
    79  C    0.823927
    80  O   -0.539989
    81  H    0.425061
    82  H    0.422235
 Sum of Mulliken charges =   1.00000

 Dipole moment (field-independent basis, Debye):
    X=             -4.4081    Y=              6.7153    Z=             13.4199  Tot=             15.6404
 Quadrupole moment (field-independent basis, Debye-Ang):
   XX=           -212.8328   YY=           -224.6031   ZZ=           -137.0361
   XY=            -11.7747   XZ=             -4.7632   YZ=             21.4597

 Normal termination of Gaussian 16 at Wed Jun 29 02:14:48 2022.
