 Gaussian 16, Revision C.01,
 Gaussian 16:  ES64L-G16RevC.01  3-Jul-2019

 ----------------------------------------------------------------------
 # B3LYP/6-31G* empiricaldispersion=gd3bj guess=read geom=check nosymm
 integral(ultrafinegrid)
 ----------------------------------------------------------------------

 ------------------------------------------------------
 Candidate Structure: Conf:234 Charge calc in gas phase
 ------------------------------------------------------
 Structure from the checkpoint file:  "conf-234.chk"
 Charge =  1 Multiplicity = 1

                          Input orientation:
 ---------------------------------------------------------------------
 Center     Atomic      Atomic             Coordinates (Angstroms)
 Number     Number       Type             X           Y           Z
 ---------------------------------------------------------------------
      1          7           0       -6.380000   -1.688488   -2.901160
      2          1           0       -6.808853   -0.779363   -3.069743
      3          1           0       -6.144166   -2.058202   -3.823330
      4          6           0       -5.133652   -1.514085   -2.167505
      5          1           0       -5.335099   -0.907976   -1.275546
      6          6           0       -4.021708   -0.863367   -2.996483
      7          6           0       -4.621163   -2.908347   -1.717925
      8          1           0       -5.369673   -3.330845   -1.041178
      9          1           0       -4.586454   -3.544956   -2.608507
     10          8           0       -3.810017   -1.197670   -4.160914
     11          6           0       -3.257286   -2.856970   -1.072885
     12          6           0       -2.101245   -3.081013   -1.833777
     13          1           0       -2.202204   -3.328501   -2.886615
     14          6           0       -3.112117   -2.517221    0.277056
     15          1           0       -3.998373   -2.338797    0.881065
     16          6           0       -0.834726   -2.979748   -1.259916
     17          1           0        0.048599   -3.172988   -1.862472
     18          6           0       -1.846841   -2.410749    0.854142
     19          1           0       -1.771934   -2.141883    1.905761
     20          6           0       -0.703279   -2.647845    0.089930
     21          1           0        0.285286   -2.594926    0.537150
     22          7           0       -3.247996    0.044714   -2.344713
     23          1           0       -3.360623    0.197114   -1.350072
     24          6           0       -1.974250    0.444405   -2.893034
     25          1           0       -1.585822   -0.382391   -3.501970
     26          6           0       -1.025247    0.711672   -1.727942
     27          6           0       -2.083785    1.675445   -3.801787
     28          1           0       -2.871340    1.468992   -4.536444
     29          1           0       -1.135404    1.813577   -4.347138
     30          8           0       -1.435953    0.764736   -0.558370
     31          8           0       -2.379276    2.788744   -2.977578
     32          1           0       -2.677289    3.518318   -3.540472
     33          7           0        0.268468    0.904423   -2.045951
     34          1           0        0.618857    0.742702   -2.983806
     35          6           0        1.242710    1.346181   -1.069549
     36          1           0        0.880182    2.257642   -0.578550
     37          6           0        2.568745    1.603240   -1.789931
     38          6           0        1.514606    0.290131    0.031252
     39          1           0        2.514507    0.444370    0.447960
     40          1           0        1.476294   -0.704511   -0.428608
     41          8           0        2.908848    0.927558   -2.753708
     42          8           0        0.601108    0.400496    1.122161
     43          1           0       -0.289801    0.559629    0.701291
     44          7           0        3.332489    2.551482   -1.195172
     45          1           0        2.979043    3.037057   -0.374645
     46          6           0        4.787898    2.532390   -1.239601
     47          1           0        5.109023    1.551183   -1.597231
     48          6           0        5.201472    2.732829    0.234215
     49          6           0        5.366597    3.601819   -2.176764
     50          1           0        4.831417    3.565077   -3.131827
     51          1           0        5.222302    4.610760   -1.774126
     52          8           0        4.457533    3.365578    0.990182
     53          6           0        6.836216    3.364573   -2.445138
     54          8           0        7.490114    2.451772   -1.976456
     55          8           0        7.345601    4.276006   -3.286008
     56          7           0        6.326566    2.116840    0.649326
     57          1           0        7.015771    1.825106   -0.043727
     58          6           0        6.738567    2.218079    2.039480
     59          1           0        6.392266    3.178815    2.434405
     60          6           0        8.258372    2.183438    2.087054
     61          6           0        6.150492    1.084863    2.920383
     62          1           0        6.429210    1.291906    3.959232
     63          1           0        6.622728    0.134347    2.639276
     64          8           0        8.968517    1.955769    1.135633
     65          6           0        4.629853    0.957382    2.778493
     66          1           0        4.397233    0.674732    1.746114
     67          1           0        4.151340    1.924134    2.961131
     68          6           0        4.038360   -0.102443    3.705485
     69          1           0        4.557952   -1.058142    3.568274
     70          1           0        4.147919    0.199550    4.755289
     71          7           0        2.618275   -0.302635    3.381353
     72          1           0        2.132428    0.411068    2.844791
     73          7           0        2.443895   -2.367995    4.426484
     74          1           0        1.957860   -3.241285    4.568624
     75          1           0        3.171382   -2.137443    5.086659
     76          7           0        0.755393   -1.605322    3.013864
     77          1           0        0.493061   -0.966968    2.242870
     78          1           0        0.159313   -2.385586    3.246589
     79          6           0        1.930197   -1.423849    3.615229
     80          8           0        8.711053    2.411739    3.334375
     81          1           0        9.685919    2.363282    3.299882
     82          1           0        8.287378    4.053265   -3.419652
 ---------------------------------------------------------------------

 SCF Done:  E(RB3LYP) =  -2166.47616801     A.U. after    1 cycles

 Alpha  occ. eigenvalues --  -19.29377 -19.28534 -19.26633 -19.23810 -19.23445
 Alpha  occ. eigenvalues --  -19.23014 -19.22313 -19.22302 -19.22270 -19.17926
 Alpha  occ. eigenvalues --  -14.52357 -14.51581 -14.50243 -14.46523 -14.45952
 Alpha  occ. eigenvalues --  -14.45896 -14.42549 -14.37219 -10.47921 -10.41888
 Alpha  occ. eigenvalues --  -10.41627 -10.39445 -10.39371 -10.39219 -10.36325
 Alpha  occ. eigenvalues --  -10.35143 -10.34494 -10.34344 -10.34124 -10.33824
 Alpha  occ. eigenvalues --  -10.31636 -10.31470 -10.30851 -10.30516 -10.29876
 Alpha  occ. eigenvalues --  -10.28755 -10.27693 -10.27456 -10.27198 -10.27071
 Alpha  occ. eigenvalues --  -10.26748 -10.26343 -10.25459  -1.20406  -1.19796
 Alpha  occ. eigenvalues --   -1.16625  -1.15339  -1.14663  -1.13787  -1.12971
 Alpha  occ. eigenvalues --   -1.11576  -1.10814  -1.10079  -1.09535  -1.05893
 Alpha  occ. eigenvalues --   -1.04485  -1.03235  -1.03209  -1.02683  -0.99420
 Alpha  occ. eigenvalues --   -0.95042  -0.93321  -0.92256  -0.89903  -0.87464
 Alpha  occ. eigenvalues --   -0.86686  -0.85440  -0.83616  -0.82431  -0.81210
 Alpha  occ. eigenvalues --   -0.79294  -0.78427  -0.78239  -0.76541  -0.74259
 Alpha  occ. eigenvalues --   -0.73303  -0.72201  -0.71708  -0.70759  -0.70424
 Alpha  occ. eigenvalues --   -0.69495  -0.69035  -0.68661  -0.68523  -0.67327
 Alpha  occ. eigenvalues --   -0.66324  -0.65475  -0.65221  -0.64834  -0.64164
 Alpha  occ. eigenvalues --   -0.62575  -0.62177  -0.61544  -0.60489  -0.60199
 Alpha  occ. eigenvalues --   -0.59743  -0.59604  -0.59398  -0.58844  -0.58519
 Alpha  occ. eigenvalues --   -0.57700  -0.57270  -0.57227  -0.56629  -0.56131
 Alpha  occ. eigenvalues --   -0.55733  -0.55200  -0.55116  -0.54523  -0.54412
 Alpha  occ. eigenvalues --   -0.53924  -0.53556  -0.53321  -0.53262  -0.52598
 Alpha  occ. eigenvalues --   -0.52429  -0.51792  -0.51430  -0.50932  -0.50697
 Alpha  occ. eigenvalues --   -0.50345  -0.50110  -0.50026  -0.49418  -0.49039
 Alpha  occ. eigenvalues --   -0.48296  -0.47768  -0.47670  -0.47533  -0.47248
 Alpha  occ. eigenvalues --   -0.47082  -0.46820  -0.46491  -0.46451  -0.45861
 Alpha  occ. eigenvalues --   -0.45565  -0.44867  -0.43576  -0.43308  -0.43027
 Alpha  occ. eigenvalues --   -0.42183  -0.41896  -0.41510  -0.41269  -0.40973
 Alpha  occ. eigenvalues --   -0.40616  -0.40303  -0.39836  -0.37757  -0.37461
 Alpha  occ. eigenvalues --   -0.37355  -0.36847  -0.36588  -0.36103  -0.35398
 Alpha  occ. eigenvalues --   -0.35103  -0.34860  -0.33077  -0.32974  -0.32579
 Alpha  occ. eigenvalues --   -0.31830  -0.29288
 Alpha virt. eigenvalues --   -0.11809  -0.09773  -0.08834  -0.08733  -0.08337
 Alpha virt. eigenvalues --   -0.08329  -0.07959  -0.07716  -0.07105  -0.04604
 Alpha virt. eigenvalues --   -0.04130  -0.04051  -0.02749  -0.01642  -0.01115

 Mulliken charges:
               1
     1  N   -0.695795
     2  H    0.306298
     3  H    0.317469
     4  C   -0.069596
     5  H    0.135188
     6  C    0.594958
     7  C   -0.340964
     8  H    0.173325
     9  H    0.168079
    10  O   -0.544364
    11  C    0.151398
    12  C   -0.179187
    13  H    0.161442
    14  C   -0.183470
    15  H    0.140690
    16  C   -0.143250
    17  H    0.140535
    18  C   -0.128732
    19  H    0.097361
    20  C   -0.139367
    21  H    0.104815
    22  N   -0.587969
    23  H    0.357490
    24  C   -0.071325
    25  H    0.189291
    26  C    0.680711
    27  C   -0.028844
    28  H    0.176685
    29  H    0.122610
    30  O   -0.578428
    31  O   -0.615814
    32  H    0.410001
    33  N   -0.622296
    34  H    0.364821
    35  C   -0.053388
    36  H    0.191677
    37  C    0.567723
    38  C   -0.038316
    39  H    0.145433
    40  H    0.168409
    41  O   -0.509150
    42  O   -0.690977
    43  H    0.462739
    44  N   -0.606922
    45  H    0.360514
    46  C   -0.050186
    47  H    0.199464
    48  C    0.591731
    49  C   -0.367399
    50  H    0.220617
    51  H    0.206206
    52  O   -0.541390
    53  C    0.602954
    54  O   -0.470988
    55  O   -0.550096
    56  N   -0.621177
    57  H    0.401770
    58  C   -0.042015
    59  H    0.211347
    60  C    0.581423
    61  C   -0.274814
    62  H    0.178005
    63  H    0.157048
    64  O   -0.442666
    65  C   -0.321417
    66  H    0.168340
    67  H    0.196006
    68  C   -0.139497
    69  H    0.176393
    70  H    0.182194
    71  N   -0.627158
    72  H    0.391207
    73  N   -0.758701
    74  H    0.379910
    75  H    0.385343
    76  N   -0.807783
    77  H    0.438686
    78  H    0.369935
    79  C    0.819758
    80  O   -0.563067
    81  H    0.430293
    82  H    0.428214
 Sum of Mulliken charges =   1.00000

 Dipole moment (field-independent basis, Debye):
    X=             14.2130    Y=              0.2822    Z=             10.8210  Tot=             17.8657
 Quadrupole moment (field-independent basis, Debye-Ang):
   XX=           -151.1000   YY=           -215.7032   ZZ=           -173.5721
   XY=             14.0837   XZ=             43.2056   YZ=            -43.7336

 Normal termination of Gaussian 16 at Wed Jun 29 02:13:52 2022.
