 Gaussian 16, Revision C.01,
 Gaussian 16:  ES64L-G16RevC.01  3-Jul-2019

 ----------------------------------------------------------------------
 # B3LYP/6-31G* empiricaldispersion=gd3bj guess=read geom=check nosymm
 integral(ultrafinegrid)
 ----------------------------------------------------------------------

 ------------------------------------------------------
 Candidate Structure: Conf:420 Charge calc in gas phase
 ------------------------------------------------------
 Structure from the checkpoint file:  "conf-420.chk"
 Charge =  1 Multiplicity = 1

                          Input orientation:
 ---------------------------------------------------------------------
 Center     Atomic      Atomic             Coordinates (Angstroms)
 Number     Number       Type             X           Y           Z
 ---------------------------------------------------------------------
      1          7           0       -4.565355   -0.585619   -3.732720
      2          1           0       -4.356685   -0.139657   -4.623764
      3          1           0       -4.061893   -1.472761   -3.729683
      4          6           0       -4.074056    0.223713   -2.630915
      5          1           0       -4.392483    1.260771   -2.790363
      6          6           0       -2.551330    0.168970   -2.495169
      7          6           0       -4.683324   -0.270695   -1.287689
      8          1           0       -4.542905   -1.357845   -1.248511
      9          1           0       -4.108570    0.152655   -0.453905
     10          8           0       -1.910033   -0.850413   -2.768822
     11          6           0       -6.137235    0.102796   -1.135948
     12          6           0       -6.501934    1.172666   -0.310532
     13          1           0       -5.733345    1.706771    0.245461
     14          6           0       -7.138941   -0.582747   -1.834680
     15          1           0       -6.863406   -1.402386   -2.488813
     16          6           0       -7.837381    1.554667   -0.181514
     17          1           0       -8.103611    2.383229    0.468676
     18          6           0       -8.474132   -0.202687   -1.707654
     19          1           0       -9.241286   -0.744116   -2.253680
     20          6           0       -8.827770    0.866172   -0.881900
     21          1           0       -9.869296    1.157238   -0.781772
     22          7           0       -1.937450    1.282604   -1.999774
     23          1           0       -2.500564    2.069047   -1.702892
     24          6           0       -0.496489    1.321008   -1.789388
     25          1           0       -0.039736    0.773142   -2.620054
     26          6           0       -0.099658    0.593840   -0.489777
     27          6           0        0.029366    2.756014   -1.810497
     28          1           0       -0.412911    3.317023   -0.971241
     29          1           0       -0.299603    3.234224   -2.736530
     30          8           0        0.343455    1.211576    0.506782
     31          8           0        1.446086    2.830788   -1.805414
     32          1           0        1.832726    2.222705   -1.146918
     33          7           0       -0.198440   -0.735879   -0.542787
     34          1           0       -0.604845   -1.123370   -1.400444
     35          6           0        0.289813   -1.644891    0.493109
     36          1           0        0.139439   -1.172690    1.468667
     37          6           0        1.806373   -1.888544    0.286236
     38          6           0       -0.484533   -2.970780    0.450840
     39          1           0       -0.377490   -3.419164   -0.549287
     40          1           0       -1.546334   -2.766077    0.616955
     41          8           0        2.289223   -3.014332    0.176092
     42          8           0       -0.050121   -3.833282    1.471112
     43          1           0        0.854534   -4.094330    1.220360
     44          7           0        2.531472   -0.750511    0.204515
     45          1           0        2.081783    0.146677    0.354419
     46          6           0        3.951635   -0.692560   -0.075617
     47          1           0        4.504917   -1.290823    0.655788
     48          6           0        4.328733    0.789361    0.093756
     49          6           0        4.280571   -1.238616   -1.479561
     50          1           0        3.734289   -2.176890   -1.617917
     51          1           0        3.947822   -0.552145   -2.266367
     52          8           0        3.453456    1.674755    0.064234
     53          6           0        5.752257   -1.536401   -1.651439
     54          8           0        6.611192   -1.339841   -0.811123
     55          8           0        6.012640   -2.072225   -2.851257
     56          7           0        5.618321    1.062204    0.324501
     57          1           0        6.320160    0.324525    0.237650
     58          6           0        6.037148    2.414731    0.644428
     59          1           0        5.555562    3.112366   -0.049493
     60          6           0        7.543378    2.495489    0.464520
     61          6           0        5.604066    2.772050    2.087980
     62          1           0        6.236997    2.224340    2.794487
     63          1           0        4.597995    2.361351    2.189751
     64          8           0        8.260375    1.546413    0.254547
     65          6           0        5.581169    4.275789    2.424891
     66          1           0        5.702858    4.880700    1.518975
     67          1           0        6.419032    4.545449    3.074987
     68          6           0        4.275408    4.688717    3.115941
     69          1           0        4.057281    4.032762    3.963300
     70          1           0        4.346550    5.702684    3.518974
     71          7           0        3.132150    4.679506    2.190818
     72          1           0        3.093886    5.449224    1.534609
     73          7           0        2.056034    2.695621    2.828080
     74          1           0        1.473426    1.917113    2.543912
     75          1           0        2.407567    2.717772    3.772250
     76          7           0        1.436560    3.781819    0.898100
     77          1           0        1.821230    4.137674    0.027824
     78          1           0        0.835895    2.965365    0.742022
     79          6           0        2.234237    3.710569    1.971168
     80          8           0        7.981533    3.762839    0.601630
     81          1           0        8.953137    3.744082    0.501040
     82          1           0        6.971978   -2.253890   -2.887441
 ---------------------------------------------------------------------

 SCF Done:  E(RB3LYP) =  -2166.47956399     A.U. after    1 cycles

 Alpha  occ. eigenvalues --  -19.30514 -19.29155 -19.25662 -19.25643 -19.24858
 Alpha  occ. eigenvalues --  -19.24344 -19.24124 -19.22615 -19.22095 -19.21122
 Alpha  occ. eigenvalues --  -14.51951 -14.51338 -14.48785 -14.47855 -14.47767
 Alpha  occ. eigenvalues --  -14.47292 -14.45767 -14.39242 -10.47328 -10.42942
 Alpha  occ. eigenvalues --  -10.42327 -10.41518 -10.40922 -10.38996 -10.38880
 Alpha  occ. eigenvalues --  -10.36631 -10.35362 -10.35063 -10.35028 -10.34674
 Alpha  occ. eigenvalues --  -10.33264 -10.31736 -10.31118 -10.31087 -10.30861
 Alpha  occ. eigenvalues --  -10.30495 -10.26829 -10.25258 -10.24520 -10.24220
 Alpha  occ. eigenvalues --  -10.23987 -10.23909 -10.23764  -1.21469  -1.20469
 Alpha  occ. eigenvalues --   -1.16899  -1.16032  -1.15861  -1.14355  -1.13866
 Alpha  occ. eigenvalues --   -1.12793  -1.12662  -1.11481  -1.09029  -1.05949
 Alpha  occ. eigenvalues --   -1.04889  -1.04384  -1.03679  -1.03295  -1.02704
 Alpha  occ. eigenvalues --   -0.97126  -0.92638  -0.90830  -0.90162  -0.88511
 Alpha  occ. eigenvalues --   -0.87354  -0.85319  -0.84098  -0.81875  -0.80115
 Alpha  occ. eigenvalues --   -0.79550  -0.78739  -0.77762  -0.76510  -0.74717
 Alpha  occ. eigenvalues --   -0.73686  -0.73101  -0.72741  -0.72081  -0.70605
 Alpha  occ. eigenvalues --   -0.70192  -0.69497  -0.68903  -0.68554  -0.67506
 Alpha  occ. eigenvalues --   -0.65833  -0.65595  -0.65216  -0.64238  -0.63862
 Alpha  occ. eigenvalues --   -0.63262  -0.62509  -0.62050  -0.61630  -0.61139
 Alpha  occ. eigenvalues --   -0.60327  -0.60010  -0.59709  -0.59596  -0.59077
 Alpha  occ. eigenvalues --   -0.58350  -0.58054  -0.57596  -0.57273  -0.56976
 Alpha  occ. eigenvalues --   -0.56297  -0.56183  -0.55676  -0.55283  -0.54916
 Alpha  occ. eigenvalues --   -0.54887  -0.54454  -0.53818  -0.53375  -0.52826
 Alpha  occ. eigenvalues --   -0.52424  -0.52194  -0.51695  -0.51373  -0.51284
 Alpha  occ. eigenvalues --   -0.51053  -0.50747  -0.50147  -0.49770  -0.49435
 Alpha  occ. eigenvalues --   -0.49152  -0.49003  -0.48359  -0.48072  -0.47970
 Alpha  occ. eigenvalues --   -0.47618  -0.47145  -0.46990  -0.46323  -0.45824
 Alpha  occ. eigenvalues --   -0.45701  -0.44783  -0.44430  -0.44076  -0.42651
 Alpha  occ. eigenvalues --   -0.42440  -0.41671  -0.41486  -0.40818  -0.40631
 Alpha  occ. eigenvalues --   -0.40203  -0.39698  -0.39550  -0.39234  -0.38771
 Alpha  occ. eigenvalues --   -0.38544  -0.38187  -0.37902  -0.37666  -0.36788
 Alpha  occ. eigenvalues --   -0.36152  -0.35516  -0.35087  -0.33782  -0.31936
 Alpha  occ. eigenvalues --   -0.30027  -0.29618
 Alpha virt. eigenvalues --   -0.12095  -0.11738  -0.10515  -0.09612  -0.08903
 Alpha virt. eigenvalues --   -0.08640  -0.07346  -0.07005  -0.05421  -0.05296
 Alpha virt. eigenvalues --   -0.05150  -0.02978  -0.02414  -0.02313  -0.01141

 Mulliken charges:
               1
     1  N   -0.685900
     2  H    0.312772
     3  H    0.320257
     4  C   -0.076165
     5  H    0.152754
     6  C    0.613532
     7  C   -0.354546
     8  H    0.166344
     9  H    0.132927
    10  O   -0.546534
    11  C    0.170264
    12  C   -0.187921
    13  H    0.103323
    14  C   -0.152500
    15  H    0.145976
    16  C   -0.127816
    17  H    0.133684
    18  C   -0.132812
    19  H    0.141250
    20  C   -0.127102
    21  H    0.140347
    22  N   -0.606782
    23  H    0.345669
    24  C   -0.083948
    25  H    0.207276
    26  C    0.622726
    27  C   -0.048833
    28  H    0.128035
    29  H    0.181278
    30  O   -0.599698
    31  O   -0.658427
    32  H    0.432213
    33  N   -0.601209
    34  H    0.401449
    35  C   -0.096553
    36  H    0.191656
    37  C    0.638505
    38  C   -0.037646
    39  H    0.146300
    40  H    0.162570
    41  O   -0.533390
    42  O   -0.618374
    43  H    0.422511
    44  N   -0.677924
    45  H    0.390638
    46  C   -0.007577
    47  H    0.203855
    48  C    0.602587
    49  C   -0.384745
    50  H    0.239417
    51  H    0.195820
    52  O   -0.587009
    53  C    0.608157
    54  O   -0.474483
    55  O   -0.548251
    56  N   -0.626977
    57  H    0.413216
    58  C   -0.030545
    59  H    0.190823
    60  C    0.583942
    61  C   -0.295340
    62  H    0.174814
    63  H    0.169019
    64  O   -0.435314
    65  C   -0.258256
    66  H    0.166364
    67  H    0.181836
    68  C   -0.182394
    69  H    0.168370
    70  H    0.198627
    71  N   -0.587683
    72  H    0.363848
    73  N   -0.762521
    74  H    0.398268
    75  H    0.375245
    76  N   -0.791542
    77  H    0.371042
    78  H    0.412160
    79  C    0.809861
    80  O   -0.567552
    81  H    0.432662
    82  H    0.430080
 Sum of Mulliken charges =   1.00000

 Dipole moment (field-independent basis, Debye):
    X=             12.3553    Y=             15.7462    Z=              3.1886  Tot=             20.2673
 Quadrupole moment (field-independent basis, Debye-Ang):
   XX=           -143.9150   YY=           -190.3595   ZZ=           -212.2349
   XY=             45.3974   XZ=             27.0428   YZ=             35.7065

 Normal termination of Gaussian 16 at Wed Jun 29 02:13:52 2022.
