 Gaussian 16, Revision C.01,
 Gaussian 16:  ES64L-G16RevC.01  3-Jul-2019

 ----------------------------------------------------------------------
 # B3LYP/6-31G* empiricaldispersion=gd3bj guess=read geom=check nosymm
 integral(ultrafinegrid)
 ----------------------------------------------------------------------

 ------------------------------------------------------
 Candidate Structure: Conf:684 Charge calc in gas phase
 ------------------------------------------------------
 Structure from the checkpoint file:  "conf-684.chk"
 Charge =  1 Multiplicity = 1

                          Input orientation:
 ---------------------------------------------------------------------
 Center     Atomic      Atomic             Coordinates (Angstroms)
 Number     Number       Type             X           Y           Z
 ---------------------------------------------------------------------
      1          7           0       -5.083397    0.941862   -5.742438
      2          1           0       -5.480217    1.874719   -5.830815
      3          1           0       -4.528520    0.767479   -6.577173
      4          6           0       -4.261463    0.865553   -4.545021
      5          1           0       -3.494513    1.658984   -4.467983
      6          6           0       -3.552354   -0.486337   -4.465402
      7          6           0       -5.187617    0.967549   -3.299584
      8          1           0       -5.658155    1.958377   -3.311941
      9          1           0       -5.976986    0.224671   -3.443712
     10          8           0       -4.086442   -1.550791   -4.746642
     11          6           0       -4.472175    0.742076   -1.987657
     12          6           0       -4.428288   -0.536393   -1.413389
     13          1           0       -4.948660   -1.353154   -1.906671
     14          6           0       -3.795333    1.785212   -1.343696
     15          1           0       -3.825390    2.784707   -1.771647
     16          6           0       -3.721655   -0.769891   -0.232543
     17          1           0       -3.681690   -1.769239    0.191365
     18          6           0       -3.095598    1.560669   -0.158161
     19          1           0       -2.583559    2.384961    0.330334
     20          6           0       -3.057364    0.282686    0.400068
     21          1           0       -2.523268    0.109578    1.330969
     22          7           0       -2.279857   -0.431112   -3.949163
     23          1           0       -1.974083    0.436766   -3.519772
     24          6           0       -1.790757   -1.611042   -3.271857
     25          1           0       -2.648503   -2.147383   -2.844119
     26          6           0       -0.902063   -1.166209   -2.116693
     27          6           0       -1.086202   -2.610819   -4.209916
     28          1           0       -0.086930   -2.260634   -4.483251
     29          1           0       -1.688971   -2.705139   -5.117135
     30          8           0       -0.653811    0.030193   -1.906885
     31          8           0       -0.919621   -3.873300   -3.556072
     32          1           0       -1.756653   -4.355916   -3.646972
     33          7           0       -0.421660   -2.165277   -1.347349
     34          1           0       -0.662950   -3.110710   -1.634017
     35          6           0        0.062543   -1.947175    0.010754
     36          1           0       -0.544097   -1.142730    0.446576
     37          6           0        1.531493   -1.487997    0.051375
     38          6           0       -0.140081   -3.221581    0.823055
     39          1           0        0.132021   -3.019378    1.867809
     40          1           0        0.530499   -4.007164    0.444943
     41          8           0        2.412673   -2.083221    0.695431
     42          8           0       -1.505856   -3.582582    0.690692
     43          1           0       -1.646517   -4.425407    1.147200
     44          7           0        1.779557   -0.391455   -0.672860
     45          1           0        0.969381    0.061520   -1.112851
     46          6           0        3.076162    0.244614   -0.693797
     47          1           0        3.843749   -0.524754   -0.829686
     48          6           0        3.351906    0.920585    0.673933
     49          6           0        3.115156    1.218879   -1.887310
     50          1           0        2.507290    0.814423   -2.703260
     51          1           0        2.670230    2.188187   -1.630646
     52          8           0        2.534612    0.843511    1.602587
     53          6           0        4.507818    1.458014   -2.425873
     54          8           0        5.539265    1.128347   -1.872093
     55          8           0        4.476676    2.085394   -3.609245
     56          7           0        4.516628    1.578717    0.770351
     57          1           0        5.181465    1.559288   -0.006385
     58          6           0        4.891736    2.343634    1.949511
     59          1           0        4.119335    3.099484    2.143335
     60          6           0        6.161132    3.107026    1.593148
     61          6           0        5.058955    1.477945    3.229982
     62          1           0        5.991816    1.741699    3.734959
     63          1           0        5.161893    0.438535    2.903258
     64          8           0        6.742445    3.023366    0.536260
     65          6           0        3.885678    1.627104    4.218787
     66          1           0        2.989653    1.962546    3.690551
     67          1           0        4.119042    2.383203    4.975127
     68          6           0        3.554833    0.323032    4.939772
     69          1           0        4.454503   -0.075998    5.425775
     70          1           0        2.796997    0.504985    5.713653
     71          7           0        3.058593   -0.669748    3.977999
     72          1           0        2.781527   -0.320647    3.051897
     73          7           0        3.264875   -2.421811    5.482123
     74          1           0        3.125262   -3.393634    5.714729
     75          1           0        3.335343   -1.782188    6.258401
     76          7           0        2.547037   -2.832004    3.312716
     77          1           0        2.488167   -2.559817    2.314975
     78          1           0        2.548671   -3.820504    3.517547
     79          6           0        2.952127   -1.967593    4.247852
     80          8           0        6.545927    3.902708    2.608074
     81          1           0        7.353734    4.368540    2.318572
     82          1           0        5.402396    2.225108   -3.888897
 ---------------------------------------------------------------------

 SCF Done:  E(RB3LYP) =  -2166.47677867     A.U. after    2 cycles

 Alpha  occ. eigenvalues --  -19.29614 -19.29478 -19.24767 -19.24337 -19.24131
 Alpha  occ. eigenvalues --  -19.23636 -19.22930 -19.22637 -19.21826 -19.17595
 Alpha  occ. eigenvalues --  -14.50982 -14.49490 -14.48778 -14.46076 -14.45471
 Alpha  occ. eigenvalues --  -14.44994 -14.41836 -14.37029 -10.46405 -10.42600
 Alpha  occ. eigenvalues --  -10.42200 -10.39594 -10.39440 -10.38105 -10.35067
 Alpha  occ. eigenvalues --  -10.34506 -10.34284 -10.34247 -10.33825 -10.33341
 Alpha  occ. eigenvalues --  -10.31156 -10.31148 -10.30519 -10.29670 -10.29644
 Alpha  occ. eigenvalues --  -10.28442 -10.25543 -10.25082 -10.25019 -10.24921
 Alpha  occ. eigenvalues --  -10.24793 -10.24676 -10.24585  -1.20783  -1.20705
 Alpha  occ. eigenvalues --   -1.15242  -1.14778  -1.13938  -1.13307  -1.12109
 Alpha  occ. eigenvalues --   -1.11913  -1.11778  -1.10521  -1.09541  -1.04322
 Alpha  occ. eigenvalues --   -1.03370  -1.03068  -1.02813  -1.01746  -0.98805
 Alpha  occ. eigenvalues --   -0.94616  -0.91540  -0.91383  -0.89902  -0.87038
 Alpha  occ. eigenvalues --   -0.86373  -0.84043  -0.82401  -0.80665  -0.80308
 Alpha  occ. eigenvalues --   -0.79566  -0.77205  -0.77050  -0.74578  -0.73342
 Alpha  occ. eigenvalues --   -0.73142  -0.72186  -0.71694  -0.70540  -0.69899
 Alpha  occ. eigenvalues --   -0.68501  -0.68348  -0.67764  -0.67372  -0.66505
 Alpha  occ. eigenvalues --   -0.64686  -0.64320  -0.64185  -0.63709  -0.63147
 Alpha  occ. eigenvalues --   -0.62985  -0.61398  -0.60677  -0.60057  -0.59552
 Alpha  occ. eigenvalues --   -0.58882  -0.58523  -0.58362  -0.58149  -0.57817
 Alpha  occ. eigenvalues --   -0.57536  -0.56959  -0.56866  -0.56221  -0.56066
 Alpha  occ. eigenvalues --   -0.55731  -0.55275  -0.54947  -0.54213  -0.53862
 Alpha  occ. eigenvalues --   -0.53386  -0.53345  -0.52819  -0.52560  -0.51913
 Alpha  occ. eigenvalues --   -0.51535  -0.51303  -0.50678  -0.50608  -0.50410
 Alpha  occ. eigenvalues --   -0.50029  -0.49747  -0.49373  -0.48666  -0.48444
 Alpha  occ. eigenvalues --   -0.48091  -0.47711  -0.47309  -0.47100  -0.46655
 Alpha  occ. eigenvalues --   -0.45976  -0.45840  -0.45593  -0.45439  -0.44941
 Alpha  occ. eigenvalues --   -0.44803  -0.43666  -0.42803  -0.42504  -0.41925
 Alpha  occ. eigenvalues --   -0.41724  -0.41637  -0.41401  -0.40618  -0.39633
 Alpha  occ. eigenvalues --   -0.39564  -0.38898  -0.38487  -0.38203  -0.37817
 Alpha  occ. eigenvalues --   -0.37403  -0.37071  -0.36797  -0.36204  -0.35563
 Alpha  occ. eigenvalues --   -0.35505  -0.34413  -0.32149  -0.31105  -0.30878
 Alpha  occ. eigenvalues --   -0.30101  -0.29043
 Alpha virt. eigenvalues --   -0.10260  -0.09807  -0.09364  -0.08726  -0.08295
 Alpha virt. eigenvalues --   -0.07639  -0.06603  -0.06374  -0.06085  -0.04119
 Alpha virt. eigenvalues --   -0.03576  -0.02304  -0.01784  -0.00866  -0.00643

 Mulliken charges:
               1
     1  N   -0.705974
     2  H    0.305110
     3  H    0.309380
     4  C   -0.041603
     5  H    0.113812
     6  C    0.589906
     7  C   -0.351986
     8  H    0.151146
     9  H    0.189646
    10  O   -0.516205
    11  C    0.150560
    12  C   -0.194716
    13  H    0.151953
    14  C   -0.187224
    15  H    0.128343
    16  C   -0.145365
    17  H    0.145002
    18  C   -0.111001
    19  H    0.128949
    20  C   -0.134854
    21  H    0.118575
    22  N   -0.608603
    23  H    0.355812
    24  C   -0.052035
    25  H    0.180057
    26  C    0.629738
    27  C   -0.058279
    28  H    0.159637
    29  H    0.190117
    30  O   -0.570463
    31  O   -0.620139
    32  H    0.414567
    33  N   -0.597756
    34  H    0.372954
    35  C   -0.080158
    36  H    0.206597
    37  C    0.665929
    38  C   -0.065746
    39  H    0.137093
    40  H    0.151292
    41  O   -0.594383
    42  O   -0.615063
    43  H    0.410582
    44  N   -0.626854
    45  H    0.405066
    46  C   -0.039455
    47  H    0.213010
    48  C    0.624548
    49  C   -0.404947
    50  H    0.216310
    51  H    0.212225
    52  O   -0.566726
    53  C    0.606006
    54  O   -0.463835
    55  O   -0.549653
    56  N   -0.645848
    57  H    0.419411
    58  C   -0.004570
    59  H    0.200709
    60  C    0.561926
    61  C   -0.291457
    62  H    0.184504
    63  H    0.167011
    64  O   -0.443174
    65  C   -0.310185
    66  H    0.193097
    67  H    0.174745
    68  C   -0.164467
    69  H    0.173222
    70  H    0.177558
    71  N   -0.633204
    72  H    0.420138
    73  N   -0.763700
    74  H    0.371886
    75  H    0.382014
    76  N   -0.809233
    77  H    0.447193
    78  H    0.356218
    79  C    0.803833
    80  O   -0.562569
    81  H    0.432034
    82  H    0.432012
 Sum of Mulliken charges =   1.00000

 Dipole moment (field-independent basis, Debye):
    X=             13.6179    Y=             -2.9001    Z=             12.1701  Tot=             18.4924
 Quadrupole moment (field-independent basis, Debye-Ang):
   XX=           -195.9538   YY=           -183.2232   ZZ=           -143.9553
   XY=              7.5998   XZ=             46.3764   YZ=            -40.9481

 Normal termination of Gaussian 16 at Wed Jun 29 02:14:14 2022.
