 Gaussian 16, Revision C.01,
 Gaussian 16:  ES64L-G16RevC.01  3-Jul-2019

 ----------------------------------------------------------------------
 # B3LYP/6-31G* empiricaldispersion=gd3bj guess=read geom=check nosymm
 integral(ultrafinegrid)
 ----------------------------------------------------------------------

 ------------------------------------------------------
 Candidate Structure: Conf:962 Charge calc in gas phase
 ------------------------------------------------------
 Structure from the checkpoint file:  "conf-962.chk"
 Charge =  1 Multiplicity = 1

                          Input orientation:
 ---------------------------------------------------------------------
 Center     Atomic      Atomic             Coordinates (Angstroms)
 Number     Number       Type             X           Y           Z
 ---------------------------------------------------------------------
      1          7           0       -0.560678   -5.383448    0.754553
      2          1           0        0.342200   -5.715369    0.422238
      3          1           0       -0.377834   -4.675509    1.460741
      4          6           0       -1.321333   -4.800306   -0.336408
      5          1           0       -1.491179   -5.588005   -1.081033
      6          6           0       -0.623136   -3.631213   -1.047359
      7          6           0       -2.723669   -4.352940    0.165888
      8          1           0       -3.279012   -3.930337   -0.677421
      9          1           0       -3.241921   -5.260796    0.487273
     10          8           0        0.214253   -2.897576   -0.485619
     11          6           0       -2.685781   -3.358330    1.303969
     12          6           0       -2.663505   -3.805690    2.632957
     13          1           0       -2.686626   -4.873060    2.832960
     14          6           0       -2.666152   -1.977560    1.054880
     15          1           0       -2.683781   -1.614602    0.030077
     16          6           0       -2.629993   -2.896290    3.693618
     17          1           0       -2.659710   -3.260695    4.718011
     18          6           0       -2.625292   -1.064549    2.112247
     19          1           0       -2.603364    0.001624    1.907922
     20          6           0       -2.608554   -1.520395    3.436116
     21          1           0       -2.603965   -0.807765    4.255965
     22          7           0       -1.000491   -3.404854   -2.312520
     23          1           0       -1.553482   -4.086813   -2.818831
     24          6           0       -0.500342   -2.289102   -3.104704
     25          1           0        0.569443   -2.430697   -3.299099
     26          6           0       -0.761988   -0.964582   -2.359319
     27          6           0       -1.274208   -2.269541   -4.423776
     28          1           0       -0.797570   -1.552114   -5.105017
     29          1           0       -2.298097   -1.933487   -4.216637
     30          8           0       -1.909099   -0.634054   -2.069180
     31          8           0       -1.247829   -3.595774   -4.940138
     32          1           0       -1.818315   -3.630940   -5.722803
     33          7           0        0.339129   -0.221086   -2.119750
     34          1           0        1.255861   -0.652485   -2.188993
     35          6           0        0.332892    0.987392   -1.317434
     36          1           0       -0.246925    1.777187   -1.806185
     37          6           0        1.785400    1.390753   -1.126348
     38          6           0       -0.282487    0.731481    0.097485
     39          1           0        0.254628   -0.115216    0.544860
     40          1           0       -1.318531    0.440641   -0.064590
     41          8           0        2.704181    0.575549   -1.256389
     42          8           0       -0.272870    1.871072    0.923723
     43          1           0        0.598425    1.909803    1.369131
     44          7           0        1.994526    2.650831   -0.680151
     45          1           0        1.194328    3.250380   -0.505747
     46          6           0        3.226827    2.946381    0.028958
     47          1           0        4.073543    2.838412   -0.656259
     48          6           0        3.354708    1.957727    1.205067
     49          6           0        3.182773    4.374474    0.610124
     50          1           0        2.443417    4.398958    1.416260
     51          1           0        4.163086    4.630038    1.017178
     52          8           0        2.379258    1.714388    1.924288
     53          6           0        2.749500    5.381635   -0.435200
     54          8           0        1.604990    5.505462   -0.815152
     55          8           0        3.780798    6.099831   -0.915561
     56          7           0        4.569218    1.415805    1.419980
     57          1           0        5.326831    1.610716    0.779852
     58          6           0        4.797398    0.490098    2.518591
     59          1           0        4.012551    0.699342    3.250780
     60          6           0        6.131402    0.714656    3.215536
     61          6           0        4.687972   -0.997378    2.110022
     62          1           0        4.736121   -1.573274    3.041384
     63          1           0        5.567229   -1.285212    1.518887
     64          8           0        6.467039    0.101687    4.200864
     65          6           0        3.410247   -1.308273    1.322135
     66          1           0        3.507352   -0.961242    0.290205
     67          1           0        2.565157   -0.751610    1.738201
     68          6           0        3.059595   -2.798164    1.311872
     69          1           0        2.349908   -3.025817    0.513241
     70          1           0        3.942275   -3.420839    1.142907
     71          7           0        2.483204   -3.244347    2.597868
     72          1           0        3.076218   -3.737773    3.249667
     73          7           0        0.385886   -2.345793    2.191947
     74          1           0       -0.482175   -1.964901    2.556203
     75          1           0        0.403345   -2.537153    1.175024
     76          7           0        0.945366   -3.013896    4.330092
     77          1           0        1.647153   -3.097994    5.050147
     78          1           0       -0.017038   -2.883708    4.612992
     79          6           0        1.273150   -2.861638    3.031557
     80          8           0        6.907585    1.629587    2.595072
     81          1           0        7.742675    1.681866    3.099273
     82          1           0        3.417679    6.708719   -1.588004
 ---------------------------------------------------------------------

 SCF Done:  E(RB3LYP) =  -2166.49507145     A.U. after    3 cycles

 Alpha  occ. eigenvalues --  -19.29832 -19.28397 -19.24419 -19.23599 -19.23371
 Alpha  occ. eigenvalues --  -19.22984 -19.22635 -19.21866 -19.21416 -19.20240
 Alpha  occ. eigenvalues --  -14.50600 -14.50505 -14.47837 -14.47454 -14.46606
 Alpha  occ. eigenvalues --  -14.45401 -14.44631 -14.41385 -10.46186 -10.42037
 Alpha  occ. eigenvalues --  -10.41087 -10.39892 -10.39264 -10.38323 -10.37653
 Alpha  occ. eigenvalues --  -10.34660 -10.34330 -10.34100 -10.32946 -10.32887
 Alpha  occ. eigenvalues --  -10.32643 -10.31787 -10.31034 -10.30246 -10.29661
 Alpha  occ. eigenvalues --  -10.29360 -10.29125 -10.28957 -10.28628 -10.28613
 Alpha  occ. eigenvalues --  -10.28501 -10.28361 -10.28113  -1.20561  -1.19300
 Alpha  occ. eigenvalues --   -1.15192  -1.15040  -1.14655  -1.13563  -1.12180
 Alpha  occ. eigenvalues --   -1.11563  -1.11538  -1.10333  -1.09069  -1.04515
 Alpha  occ. eigenvalues --   -1.03889  -1.03004  -1.02627  -1.02239  -1.01248
 Alpha  occ. eigenvalues --   -0.99120  -0.95175  -0.91085  -0.89345  -0.87943
 Alpha  occ. eigenvalues --   -0.86790  -0.86227  -0.84051  -0.83676  -0.81261
 Alpha  occ. eigenvalues --   -0.80579  -0.78479  -0.76647  -0.75196  -0.74185
 Alpha  occ. eigenvalues --   -0.72807  -0.72308  -0.72047  -0.70769  -0.70312
 Alpha  occ. eigenvalues --   -0.70046  -0.69969  -0.68991  -0.68502  -0.67743
 Alpha  occ. eigenvalues --   -0.67174  -0.66067  -0.64460  -0.63603  -0.63100
 Alpha  occ. eigenvalues --   -0.62514  -0.61972  -0.61250  -0.61083  -0.60495
 Alpha  occ. eigenvalues --   -0.60158  -0.60078  -0.59761  -0.58768  -0.58598
 Alpha  occ. eigenvalues --   -0.58308  -0.57344  -0.56898  -0.56635  -0.56308
 Alpha  occ. eigenvalues --   -0.55725  -0.55689  -0.55165  -0.54683  -0.54550
 Alpha  occ. eigenvalues --   -0.53674  -0.53525  -0.53112  -0.53072  -0.52723
 Alpha  occ. eigenvalues --   -0.52561  -0.52114  -0.51487  -0.51456  -0.51178
 Alpha  occ. eigenvalues --   -0.51042  -0.50717  -0.50040  -0.49347  -0.48898
 Alpha  occ. eigenvalues --   -0.48496  -0.48400  -0.48279  -0.48051  -0.47653
 Alpha  occ. eigenvalues --   -0.47219  -0.47150  -0.46979  -0.46690  -0.46035
 Alpha  occ. eigenvalues --   -0.45138  -0.44926  -0.44662  -0.44483  -0.43428
 Alpha  occ. eigenvalues --   -0.43162  -0.42744  -0.41570  -0.41150  -0.40731
 Alpha  occ. eigenvalues --   -0.40441  -0.39112  -0.38497  -0.37840  -0.37603
 Alpha  occ. eigenvalues --   -0.37127  -0.37046  -0.36778  -0.36226  -0.36108
 Alpha  occ. eigenvalues --   -0.35605  -0.35000  -0.34704  -0.34560  -0.33944
 Alpha  occ. eigenvalues --   -0.33478  -0.32429
 Alpha virt. eigenvalues --   -0.10993  -0.10746  -0.10265  -0.09887  -0.08970
 Alpha virt. eigenvalues --   -0.08811  -0.08424  -0.07307  -0.06765  -0.06471
 Alpha virt. eigenvalues --   -0.03110  -0.02510  -0.01929  -0.01232  -0.00689

 Mulliken charges:
               1
     1  N   -0.705596
     2  H    0.309680
     3  H    0.307201
     4  C   -0.092104
     5  H    0.163628
     6  C    0.631659
     7  C   -0.342829
     8  H    0.172348
     9  H    0.183458
    10  O   -0.584892
    11  C    0.133107
    12  C   -0.179087
    13  H    0.162301
    14  C   -0.201807
    15  H    0.196770
    16  C   -0.171020
    17  H    0.150197
    18  C   -0.164452
    19  H    0.181708
    20  C   -0.173690
    21  H    0.157815
    22  N   -0.583043
    23  H    0.362841
    24  C   -0.033846
    25  H    0.169075
    26  C    0.642170
    27  C   -0.072946
    28  H    0.161641
    29  H    0.175621
    30  O   -0.536432
    31  O   -0.630769
    32  H    0.417658
    33  N   -0.618925
    34  H    0.356742
    35  C   -0.039167
    36  H    0.191566
    37  C    0.604210
    38  C   -0.071587
    39  H    0.134406
    40  H    0.192544
    41  O   -0.553684
    42  O   -0.653707
    43  H    0.435310
    44  N   -0.604380
    45  H    0.373036
    46  C   -0.041037
    47  H    0.183070
    48  C    0.660865
    49  C   -0.382103
    50  H    0.209842
    51  H    0.195929
    52  O   -0.563082
    53  C    0.588709
    54  O   -0.448827
    55  O   -0.553200
    56  N   -0.590576
    57  H    0.356767
    58  C   -0.070051
    59  H    0.214987
    60  C    0.599254
    61  C   -0.270570
    62  H    0.153780
    63  H    0.157314
    64  O   -0.448901
    65  C   -0.304294
    66  H    0.208304
    67  H    0.180698
    68  C   -0.196933
    69  H    0.209150
    70  H    0.176088
    71  N   -0.594189
    72  H    0.356189
    73  N   -0.806891
    74  H    0.384448
    75  H    0.443272
    76  N   -0.771573
    77  H    0.371104
    78  H    0.376637
    79  C    0.779710
    80  O   -0.572762
    81  H    0.430521
    82  H    0.425620
 Sum of Mulliken charges =   1.00000

 Dipole moment (field-independent basis, Debye):
    X=              9.7724    Y=             -8.4096    Z=              4.9992  Tot=             13.8279
 Quadrupole moment (field-independent basis, Debye-Ang):
   XX=           -184.5770   YY=           -179.0811   ZZ=           -176.9385
   XY=             26.3411   XZ=             22.2834   YZ=            -16.3010

 Normal termination of Gaussian 16 at Wed Jun 29 02:14:36 2022.
