 Gaussian 16, Revision C.01,
 Gaussian 16:  ES64L-G16RevC.01  3-Jul-2019

 ----------------------------------------------------------------------
 # B3LYP/6-31G* empiricaldispersion=gd3 guess=read geom=check nosymm in
 tegral(ultrafinegrid)
 ----------------------------------------------------------------------

 ------------------------------------------------------
 Candidate Structure: Conf:197 Charge calc in gas phase
 ------------------------------------------------------
 Structure from the checkpoint file:  "conf-197.chk"
 Charge =  1 Multiplicity = 1

                          Input orientation:
 ---------------------------------------------------------------------
 Center     Atomic      Atomic             Coordinates (Angstroms)
 Number     Number       Type             X           Y           Z
 ---------------------------------------------------------------------
      1          7           0       -4.971689    0.578347    3.619316
      2          1           0       -5.511613    0.994754    2.861320
      3          1           0       -4.943628   -0.426299    3.438977
      4          6           0       -3.598996    1.087355    3.604689
      5          1           0       -3.642652    2.178932    3.582282
      6          6           0       -2.828962    0.587834    2.372649
      7          6           0       -2.901035    0.641354    4.908447
      8          1           0       -3.298065    1.253943    5.723954
      9          1           0       -3.202982   -0.392181    5.112679
     10          8           0       -2.734798   -0.611393    2.106284
     11          6           0       -1.370421    0.655720    4.892805
     12          1           0       -0.984946   -0.117492    4.216680
     13          1           0       -0.973855    0.385560    5.879652
     14          6           0       -0.721534    1.951724    4.479571
     15          8           0       -1.261280    2.956012    4.062679
     16          8           0        0.638687    1.876322    4.587957
     17          7           0       -2.288477    1.555987    1.571976
     18          1           0       -2.178441    2.487287    1.954957
     19          6           0       -1.619923    1.213303    0.325765
     20          1           0       -1.962650    0.199598    0.111562
     21          6           0       -0.092378    1.118737    0.527466
     22          6           0       -1.975694    2.169890   -0.830313
     23          1           0       -1.218117    2.959280   -0.868405
     24          1           0       -2.932890    2.654105   -0.602248
     25          8           0        0.695916    1.962012    0.084585
     26          6           0       -2.034896    1.508324   -2.183473
     27          6           0       -2.382042    0.215791   -2.494887
     28          1           0       -2.674412   -0.602492   -1.851377
     29          6           0       -1.799490    2.172113   -3.443952
     30          6           0       -2.032670    1.220860   -4.481322
     31          6           0       -1.433139    3.484310   -3.797449
     32          1           0       -1.257227    4.232081   -3.029030
     33          7           0       -2.364543    0.031784   -3.869251
     34          1           0       -2.671647   -0.805898   -4.341152
     35          6           0       -1.575867    2.862418   -6.155373
     36          1           0       -1.532771    3.165802   -7.199291
     37          6           0       -1.922238    1.549613   -5.838036
     38          1           0       -2.146783    0.821148   -6.613723
     39          6           0       -1.324322    3.818460   -5.145397
     40          1           0       -1.063893    4.834486   -5.427995
     41          7           0        0.306458    0.031031    1.234303
     42          1           0       -0.394580   -0.616161    1.587570
     43          6           0        1.720303   -0.271952    1.485445
     44          1           0        2.224856    0.665146    1.751817
     45          6           0        2.300143   -0.821904    0.165400
     46          6           0        1.878871   -1.298589    2.622908
     47          1           0        1.491080   -2.255600    2.260822
     48          8           0        2.308413   -2.013899   -0.116461
     49          6           0        3.348607   -1.466867    3.009508
     50          1           0        3.944373   -1.820588    2.160824
     51          1           0        3.429583   -2.198696    3.817531
     52          1           0        3.771853   -0.517034    3.362835
     53          8           0        1.068842   -0.954645    3.737699
     54          1           0        1.347027   -0.081239    4.070231
     55          7           0        2.730239    0.158443   -0.689459
     56          1           0        2.430305    1.100526   -0.445662
     57          6           0        2.785994   -0.141512   -2.106663
     58          1           0        3.057967   -1.197145   -2.214997
     59          6           0        3.867764    0.657127   -2.810442
     60          6           0        1.369695    0.078698   -2.719650
     61          1           0        1.035427    1.083216   -2.434976
     62          1           0        0.711068   -0.612696   -2.185433
     63          8           0        4.212453    0.467137   -3.970510
     64          6           0        1.211801   -0.129347   -4.235116
     65          1           0        1.916241   -0.890316   -4.593927
     66          1           0        0.206191   -0.509767   -4.439692
     67          6           0        1.403745    1.174035   -5.027297
     68          1           0        0.615396    1.892200   -4.792537
     69          1           0        2.356679    1.656595   -4.796956
     70          7           0        1.343740    0.954254   -6.477595
     71          1           0        0.414735    1.015416   -6.879456
     72          7           0        3.492002    0.083159   -6.689080
     73          1           0        4.294180   -0.046969   -7.288696
     74          1           0        3.681717    0.110415   -5.682748
     75          7           0        2.150462    0.328431   -8.553745
     76          1           0        1.366086    0.756388   -9.021450
     77          1           0        2.783056   -0.218825   -9.117925
     78          6           0        2.328069    0.453417   -7.221673
     79          8           0        4.418304    1.609043   -2.055207
     80          1           0        5.108000    2.053108   -2.587917
     81          1           0        0.992782    2.736622    4.289836
 ---------------------------------------------------------------------

 SCF Done:  E(RB3LYP) =  -2054.07276345     A.U. after    1 cycles

 Alpha  occ. eigenvalues --  -19.31537 -19.27729 -19.26327 -19.22001 -19.21449
 Alpha  occ. eigenvalues --  -19.21119 -19.20100 -19.19175 -14.52028 -14.51527
 Alpha  occ. eigenvalues --  -14.50815 -14.47566 -14.44919 -14.43945 -14.43904
 Alpha  occ. eigenvalues --  -14.37617 -10.48036 -10.44269 -10.39975 -10.37684
 Alpha  occ. eigenvalues --  -10.36993 -10.35595 -10.34287 -10.33885 -10.31799
 Alpha  occ. eigenvalues --  -10.31655 -10.31405 -10.31129 -10.31121 -10.29887
 Alpha  occ. eigenvalues --  -10.29402 -10.29225 -10.28720 -10.28415 -10.28265
 Alpha  occ. eigenvalues --  -10.27987 -10.27760 -10.27675 -10.27576 -10.26298
 Alpha  occ. eigenvalues --  -10.25057 -10.24331  -1.22807  -1.18240  -1.16542
 Alpha  occ. eigenvalues --   -1.13474  -1.12938  -1.11807  -1.10913  -1.09374
 Alpha  occ. eigenvalues --   -1.08965  -1.07372  -1.05818  -1.04460  -1.01687
 Alpha  occ. eigenvalues --   -1.01116  -0.99902  -0.94905  -0.93578  -0.90892
 Alpha  occ. eigenvalues --   -0.89597  -0.86978  -0.85905  -0.85227  -0.84117
 Alpha  occ. eigenvalues --   -0.83069  -0.81336  -0.81070  -0.78249  -0.78002
 Alpha  occ. eigenvalues --   -0.77613  -0.74658  -0.74118  -0.73698  -0.71857
 Alpha  occ. eigenvalues --   -0.71103  -0.70612  -0.69983  -0.69403  -0.68726
 Alpha  occ. eigenvalues --   -0.67144  -0.66437  -0.66126  -0.65432  -0.65335
 Alpha  occ. eigenvalues --   -0.64846  -0.64120  -0.63159  -0.63095  -0.61286
 Alpha  occ. eigenvalues --   -0.60341  -0.59714  -0.58884  -0.58509  -0.58457
 Alpha  occ. eigenvalues --   -0.58193  -0.57766  -0.57473  -0.56840  -0.56688
 Alpha  occ. eigenvalues --   -0.56133  -0.55499  -0.55072  -0.54667  -0.54430
 Alpha  occ. eigenvalues --   -0.53860  -0.53323  -0.52895  -0.52559  -0.52363
 Alpha  occ. eigenvalues --   -0.51770  -0.51727  -0.51334  -0.50518  -0.50224
 Alpha  occ. eigenvalues --   -0.49992  -0.49709  -0.49274  -0.49035  -0.48823
 Alpha  occ. eigenvalues --   -0.48667  -0.48319  -0.47756  -0.47314  -0.46465
 Alpha  occ. eigenvalues --   -0.46204  -0.45939  -0.45488  -0.45311  -0.44912
 Alpha  occ. eigenvalues --   -0.44823  -0.44310  -0.43891  -0.43531  -0.43400
 Alpha  occ. eigenvalues --   -0.43093  -0.42797  -0.42702  -0.42450  -0.41409
 Alpha  occ. eigenvalues --   -0.40793  -0.40580  -0.40093  -0.39761  -0.39149
 Alpha  occ. eigenvalues --   -0.36983  -0.36529  -0.36277  -0.35170  -0.34303
 Alpha  occ. eigenvalues --   -0.34247  -0.33824  -0.32583  -0.32014  -0.31937
 Alpha  occ. eigenvalues --   -0.29854  -0.29483
 Alpha virt. eigenvalues --   -0.12034  -0.11406  -0.10888  -0.08437  -0.08117
 Alpha virt. eigenvalues --   -0.07312  -0.07096  -0.06217  -0.04811  -0.03831
 Alpha virt. eigenvalues --   -0.03362  -0.03180  -0.03020  -0.01595  -0.01194

 Mulliken charges:
               1
     1  N   -0.698930
     2  H    0.303133
     3  H    0.314203
     4  C   -0.064770
     5  H    0.159016
     6  C    0.585034
     7  C   -0.241402
     8  H    0.172635
     9  H    0.163651
    10  O   -0.552517
    11  C   -0.413878
    12  H    0.230603
    13  H    0.194633
    14  C    0.594533
    15  O   -0.478075
    16  O   -0.581818
    17  N   -0.608558
    18  H    0.360751
    19  C   -0.066314
    20  H    0.188769
    21  C    0.635937
    22  C   -0.365628
    23  H    0.182063
    24  H    0.173557
    25  O   -0.557199
    26  C    0.079596
    27  C   -0.013692
    28  H    0.181693
    29  C    0.062747
    30  C    0.321334
    31  C   -0.209665
    32  H    0.152457
    33  N   -0.692714
    34  H    0.339954
    35  C   -0.166433
    36  H    0.135832
    37  C   -0.218289
    38  H    0.132673
    39  C   -0.145176
    40  H    0.146729
    41  N   -0.611977
    42  H    0.375753
    43  C   -0.075248
    44  H    0.158008
    45  C    0.623872
    46  C    0.117802
    47  H    0.175360
    48  O   -0.521605
    49  C   -0.473987
    50  H    0.170159
    51  H    0.180042
    52  H    0.137727
    53  O   -0.636457
    54  H    0.412836
    55  N   -0.594915
    56  H    0.371922
    57  C   -0.079224
    58  H    0.221836
    59  C    0.617975
    60  C   -0.296850
    61  H    0.180022
    62  H    0.182818
    63  O   -0.516822
    64  C   -0.277503
    65  H    0.151717
    66  H    0.161498
    67  C   -0.196214
    68  H    0.216802
    69  H    0.179705
    70  N   -0.593416
    71  H    0.352486
    72  N   -0.794184
    73  H    0.370312
    74  H    0.449789
    75  N   -0.774235
    76  H    0.379143
    77  H    0.380292
    78  C    0.820330
    79  O   -0.527342
    80  H    0.427222
    81  H    0.418078
 Sum of Mulliken charges =   1.00000

 Dipole moment (field-independent basis, Debye):
    X=              7.8375    Y=              4.9649    Z=            -25.6500  Tot=             27.2764
 Quadrupole moment (field-independent basis, Debye-Ang):
   XX=           -196.6705   YY=           -237.5707   ZZ=            -17.2123
   XY=             12.9154   XZ=            -43.6196   YZ=             -4.3348

 Normal termination of Gaussian 16 at Thu May 12 23:07:34 2022.
