 Gaussian 16, Revision C.01,
 Gaussian 16:  ES64L-G16RevC.01  3-Jul-2019

 ----------------------------------------------------------------------
 # B3LYP/6-31G* empiricaldispersion=gd3 guess=read geom=check nosymm in
 tegral(ultrafinegrid)
 ----------------------------------------------------------------------

 ------------------------------------------------------
 Candidate Structure: Conf:123 Charge calc in gas phase
 ------------------------------------------------------
 Structure from the checkpoint file:  "conf-123.chk"
 Charge =  1 Multiplicity = 1

                          Input orientation:
 ---------------------------------------------------------------------
 Center     Atomic      Atomic             Coordinates (Angstroms)
 Number     Number       Type             X           Y           Z
 ---------------------------------------------------------------------
      1          7           0       -5.805538   -0.931508    1.085581
      2          1           0       -6.578018   -0.434789    0.642918
      3          1           0       -5.536709   -1.650556    0.412234
      4          6           0       -4.688710   -0.006239    1.228505
      5          1           0       -5.096784    0.912445    1.665150
      6          6           0       -4.064203    0.419909   -0.115021
      7          6           0       -3.623452   -0.582486    2.201566
      8          1           0       -3.729698   -1.671579    2.212591
      9          1           0       -2.604111   -0.361047    1.874649
     10          8           0       -4.358634   -0.097136   -1.184114
     11          6           0       -3.816655   -0.055757    3.625024
     12          1           0       -3.182040   -0.598552    4.339621
     13          1           0       -4.849970   -0.193558    3.961129
     14          6           0       -3.456004    1.405870    3.765653
     15          8           0       -2.751506    2.056428    3.001019
     16          8           0       -3.978028    1.958342    4.871161
     17          7           0       -3.147580    1.439375    0.007931
     18          1           0       -3.084544    1.871354    0.925861
     19          6           0       -2.715671    2.242112   -1.122661
     20          1           0       -2.869874    1.617052   -2.009220
     21          6           0       -1.221948    2.577174   -0.993525
     22          6           0       -3.549403    3.550239   -1.279113
     23          1           0       -3.309786    3.993936   -2.249875
     24          1           0       -3.215950    4.273065   -0.525059
     25          8           0       -0.745852    3.597923   -1.510715
     26          6           0       -5.014569    3.278989   -1.124397
     27          6           0       -5.888583    2.834166   -2.084243
     28          1           0       -5.732438    2.690699   -3.144497
     29          6           0       -5.728243    3.229524    0.127671
     30          6           0       -7.029437    2.723127   -0.145869
     31          6           0       -5.382095    3.528364    1.457258
     32          1           0       -4.394164    3.911530    1.698119
     33          7           0       -7.101005    2.510332   -1.506520
     34          1           0       -7.901145    2.146412   -1.999778
     35          6           0       -7.588442    2.772916    2.173063
     36          1           0       -8.289864    2.593497    2.982436
     37          6           0       -7.968102    2.489056    0.865584
     38          1           0       -8.954871    2.093775    0.639923
     39          6           0       -6.309600    3.293627    2.465914
     40          1           0       -6.048363    3.501842    3.499609
     41          7           0       -0.496278    1.698871   -0.262689
     42          1           0       -1.025964    0.965963    0.203117
     43          6           0        0.739148    2.046151    0.436668
     44          1           0        0.653312    3.091534    0.773150
     45          6           0        1.997558    1.996125   -0.453532
     46          6           0        0.903192    1.104107    1.669180
     47          1           0        1.429168    0.207304    1.332775
     48          8           0        3.037926    1.440633   -0.112820
     49          6           0        1.708427    1.778352    2.773683
     50          1           0        2.688487    2.081276    2.394576
     51          1           0        1.849192    1.085842    3.608571
     52          1           0        1.184273    2.668961    3.145629
     53          8           0       -0.357460    0.626646    2.137216
     54          1           0       -0.883251    1.355309    2.516495
     55          7           0        1.879532    2.657575   -1.636514
     56          1           0        1.044775    3.236207   -1.773853
     57          6           0        3.050214    2.829010   -2.459668
     58          1           0        3.490717    1.849741   -2.675723
     59          6           0        4.112228    3.656288   -1.718890
     60          6           0        2.642800    3.529963   -3.768968
     61          1           0        2.288422    4.541301   -3.528883
     62          1           0        1.789694    2.979611   -4.184771
     63          8           0        3.880183    4.533818   -0.924899
     64          6           0        3.772838    3.596796   -4.802886
     65          1           0        4.632504    4.139864   -4.396242
     66          1           0        4.115358    2.578659   -5.033411
     67          6           0        3.302910    4.279505   -6.087144
     68          1           0        2.455158    3.732994   -6.521307
     69          1           0        2.984624    5.306751   -5.874644
     70          7           0        4.407367    4.332053   -7.065660
     71          1           0        5.182149    3.697883   -6.912182
     72          7           0        3.327956    5.731520   -8.568430
     73          1           0        3.375007    6.462227   -9.264545
     74          1           0        2.424176    5.536228   -8.162597
     75          7           0        5.557668    5.195939   -8.887650
     76          1           0        6.447921    4.887075   -8.523125
     77          1           0        5.545223    5.551215   -9.833408
     78          6           0        4.427941    5.077976   -8.168710
     79          8           0        5.365504    3.323460   -2.123712
     80          1           0        5.979731    3.870213   -1.596790
     81          1           0       -3.672103    2.885145    4.905209
 ---------------------------------------------------------------------

 SCF Done:  E(RB3LYP) =  -2054.04654417     A.U. after    2 cycles

 Alpha  occ. eigenvalues --  -19.27529 -19.26951 -19.21927 -19.21456 -19.20349
 Alpha  occ. eigenvalues --  -19.18705 -19.17958 -19.16249 -14.55287 -14.55146
 Alpha  occ. eigenvalues --  -14.55067 -14.42864 -14.41741 -14.41511 -14.40231
 Alpha  occ. eigenvalues --  -14.35210 -10.51568 -10.39778 -10.39432 -10.38263
 Alpha  occ. eigenvalues --  -10.35167 -10.34761 -10.32685 -10.32097 -10.32052
 Alpha  occ. eigenvalues --  -10.30313 -10.29573 -10.29400 -10.28829 -10.26804
 Alpha  occ. eigenvalues --  -10.26721 -10.26177 -10.25749 -10.24537 -10.23880
 Alpha  occ. eigenvalues --  -10.23634 -10.23516 -10.23327 -10.23181 -10.23103
 Alpha  occ. eigenvalues --  -10.22874 -10.22616  -1.19949  -1.18118  -1.18107
 Alpha  occ. eigenvalues --   -1.10506  -1.09710  -1.09119  -1.09069  -1.08859
 Alpha  occ. eigenvalues --   -1.08116  -1.07900  -1.07654  -1.02720  -0.99425
 Alpha  occ. eigenvalues --   -0.98974  -0.96769  -0.93308  -0.92766  -0.88724
 Alpha  occ. eigenvalues --   -0.87033  -0.85366  -0.84654  -0.83684  -0.82261
 Alpha  occ. eigenvalues --   -0.80953  -0.79540  -0.78420  -0.77501  -0.77070
 Alpha  occ. eigenvalues --   -0.75889  -0.75463  -0.74097  -0.73050  -0.71665
 Alpha  occ. eigenvalues --   -0.69364  -0.68935  -0.68715  -0.67755  -0.67108
 Alpha  occ. eigenvalues --   -0.66365  -0.64657  -0.64328  -0.64266  -0.63638
 Alpha  occ. eigenvalues --   -0.63202  -0.62845  -0.62211  -0.60892  -0.60143
 Alpha  occ. eigenvalues --   -0.59426  -0.58644  -0.58346  -0.58003  -0.57096
 Alpha  occ. eigenvalues --   -0.55878  -0.55699  -0.55185  -0.54718  -0.54520
 Alpha  occ. eigenvalues --   -0.54055  -0.53601  -0.53304  -0.52210  -0.52154
 Alpha  occ. eigenvalues --   -0.51944  -0.51566  -0.51100  -0.50883  -0.49654
 Alpha  occ. eigenvalues --   -0.49256  -0.48717  -0.48539  -0.48368  -0.48043
 Alpha  occ. eigenvalues --   -0.47990  -0.47558  -0.47023  -0.46563  -0.46402
 Alpha  occ. eigenvalues --   -0.46261  -0.46199  -0.45819  -0.45634  -0.45403
 Alpha  occ. eigenvalues --   -0.44963  -0.44773  -0.43849  -0.43794  -0.43217
 Alpha  occ. eigenvalues --   -0.43046  -0.42750  -0.42270  -0.41977  -0.41561
 Alpha  occ. eigenvalues --   -0.41271  -0.40397  -0.39966  -0.39420  -0.39327
 Alpha  occ. eigenvalues --   -0.38942  -0.38107  -0.37422  -0.37356  -0.35398
 Alpha  occ. eigenvalues --   -0.35293  -0.34156  -0.33543  -0.33069  -0.32143
 Alpha  occ. eigenvalues --   -0.32069  -0.30591  -0.30383  -0.29940  -0.27750
 Alpha  occ. eigenvalues --   -0.27135  -0.24894
 Alpha virt. eigenvalues --   -0.15276  -0.11086  -0.07439  -0.07067  -0.07050
 Alpha virt. eigenvalues --   -0.06464  -0.06240  -0.05765  -0.04923  -0.04045
 Alpha virt. eigenvalues --   -0.02798  -0.02386  -0.02024  -0.01635  -0.00102

 Mulliken charges:
               1
     1  N   -0.705147
     2  H    0.305963
     3  H    0.307146
     4  C   -0.102992
     5  H    0.179033
     6  C    0.584134
     7  C   -0.282674
     8  H    0.164134
     9  H    0.184915
    10  O   -0.522830
    11  C   -0.365842
    12  H    0.195554
    13  H    0.205847
    14  C    0.609154
    15  O   -0.516744
    16  O   -0.539742
    17  N   -0.661109
    18  H    0.371486
    19  C   -0.039614
    20  H    0.198748
    21  C    0.614614
    22  C   -0.353852
    23  H    0.159595
    24  H    0.153788
    25  O   -0.568896
    26  C    0.064242
    27  C    0.026970
    28  H    0.152171
    29  C    0.077228
    30  C    0.316541
    31  C   -0.233784
    32  H    0.125928
    33  N   -0.687667
    34  H    0.333804
    35  C   -0.148805
    36  H    0.137298
    37  C   -0.169496
    38  H    0.134926
    39  C   -0.149407
    40  H    0.117720
    41  N   -0.612352
    42  H    0.381724
    43  C   -0.107645
    44  H    0.177329
    45  C    0.649610
    46  C    0.134816
    47  H    0.173799
    48  O   -0.530321
    49  C   -0.477198
    50  H    0.182121
    51  H    0.166807
    52  H    0.136102
    53  O   -0.657141
    54  H    0.415712
    55  N   -0.648666
    56  H    0.388245
    57  C    0.008110
    58  H    0.185769
    59  C    0.592108
    60  C   -0.318175
    61  H    0.175155
    62  H    0.174579
    63  O   -0.450171
    64  C   -0.316378
    65  H    0.184043
    66  H    0.169089
    67  C   -0.144435
    68  H    0.188491
    69  H    0.192402
    70  N   -0.609793
    71  H    0.372104
    72  N   -0.755248
    73  H    0.390846
    74  H    0.398272
    75  N   -0.761952
    76  H    0.390035
    77  H    0.389981
    78  C    0.841395
    79  O   -0.577225
    80  H    0.417442
    81  H    0.418276
 Sum of Mulliken charges =   1.00000

 Dipole moment (field-independent basis, Debye):
    X=             14.5089    Y=             23.9450    Z=            -33.9363  Tot=             43.9949
 Quadrupole moment (field-independent basis, Debye-Ang):
   XX=           -104.4648   YY=           -132.3741   ZZ=             87.5716
   XY=             87.9819   XZ=           -165.5199   YZ=           -183.7754

 Normal termination of Gaussian 16 at Thu May 12 23:07:50 2022.
