 Gaussian 16, Revision C.01,
 Gaussian 16:  ES64L-G16RevC.01  3-Jul-2019

 ----------------------------------------------------------------------
 # B3LYP/6-31G* empiricaldispersion=gd3 guess=read geom=check nosymm in
 tegral(ultrafinegrid)
 ----------------------------------------------------------------------

 ------------------------------------------------------
 Candidate Structure: Conf:879 Charge calc in gas phase
 ------------------------------------------------------
 Structure from the checkpoint file:  "conf-879.chk"
 Charge =  1 Multiplicity = 1

                          Input orientation:
 ---------------------------------------------------------------------
 Center     Atomic      Atomic             Coordinates (Angstroms)
 Number     Number       Type             X           Y           Z
 ---------------------------------------------------------------------
      1          7           0       -4.291467    1.814987    4.302129
      2          1           0       -4.902679    1.023332    4.103653
      3          1           0       -3.517564    1.409345    4.830054
      4          6           0       -3.765617    2.337530    3.049766
      5          1           0       -4.623685    2.580001    2.410527
      6          6           0       -2.922580    1.326918    2.248903
      7          6           0       -2.966683    3.641010    3.320091
      8          1           0       -2.618893    3.613610    4.357646
      9          1           0       -2.075641    3.705287    2.687948
     10          8           0       -2.575109    0.235028    2.687674
     11          6           0       -3.818852    4.891424    3.116569
     12          1           0       -3.327683    5.791067    3.508435
     13          1           0       -4.767177    4.809218    3.664074
     14          6           0       -4.137712    5.155804    1.661999
     15          8           0       -3.782800    4.477373    0.706784
     16          8           0       -4.888025    6.258965    1.509742
     17          7           0       -2.624306    1.735078    0.977848
     18          1           0       -2.856651    2.680441    0.686358
     19          6           0       -1.881052    0.874237    0.093051
     20          1           0       -2.217865   -0.152493    0.270670
     21          6           0       -0.366627    0.982078    0.326131
     22          6           0       -2.104390    1.289575   -1.376489
     23          1           0       -1.481860    0.628573   -1.995344
     24          1           0       -1.686312    2.297880   -1.485557
     25          8           0        0.226106    2.041395    0.096226
     26          6           0       -3.526379    1.249858   -1.844282
     27          6           0       -4.417995    2.301971   -1.871810
     28          1           0       -4.275741    3.329141   -1.560372
     29          6           0       -4.251847    0.088080   -2.299693
     30          6           0       -5.575684    0.511213   -2.607755
     31          6           0       -3.912310   -1.268622   -2.474014
     32          1           0       -2.918969   -1.625883   -2.213749
     33          7           0       -5.644484    1.860924   -2.324582
     34          1           0       -6.459332    2.442462   -2.452322
     35          6           0       -6.172951   -1.695306   -3.286549
     36          1           0       -6.902246   -2.403757   -3.667182
     37          6           0       -6.543414   -0.367159   -3.106255
     38          1           0       -7.548425   -0.027305   -3.339160
     39          6           0       -4.872164   -2.143858   -2.972403
     40          1           0       -4.626746   -3.193789   -3.102825
     41          7           0        0.271138   -0.154945    0.699491
     42          1           0       -0.269450   -1.010009    0.763009
     43          6           0        1.738114   -0.269957    0.709979
     44          1           0        2.119686    0.702597    1.034603
     45          6           0        2.194194   -0.557479   -0.739059
     46          6           0        2.175659   -1.326600    1.738879
     47          1           0        1.743870   -2.298353    1.442575
     48          8           0        2.600675   -1.643071   -1.132088
     49          6           0        3.690304   -1.457253    1.821498
     50          1           0        4.099997   -1.835939    0.883135
     51          1           0        3.942796   -2.149331    2.629229
     52          1           0        4.140726   -0.486012    2.055165
     53          8           0        1.728638   -0.938719    3.030726
     54          1           0        0.768905   -0.791647    3.005078
     55          7           0        2.019829    0.520496   -1.563381
     56          1           0        1.616808    1.360936   -1.151619
     57          6           0        2.205644    0.427383   -3.006920
     58          1           0        3.236367    0.104211   -3.205915
     59          6           0        2.044841    1.852204   -3.546052
     60          6           0        1.228826   -0.543943   -3.689746
     61          1           0        0.218087   -0.150523   -3.541495
     62          1           0        1.288990   -1.495650   -3.158901
     63          8           0        1.118979    2.249642   -4.240537
     64          6           0        1.536148   -0.746090   -5.189932
     65          1           0        2.138697    0.085573   -5.578968
     66          1           0        2.141041   -1.647406   -5.338191
     67          6           0        0.276343   -0.860059   -6.062606
     68          1           0        0.540775   -1.043578   -7.107734
     69          1           0       -0.350243   -1.689936   -5.725325
     70          7           0       -0.513277    0.387783   -5.985657
     71          1           0        0.063878    1.223596   -5.991054
     72          7           0       -2.537469   -0.452898   -5.193789
     73          1           0       -3.225883   -0.504491   -4.446058
     74          1           0       -2.504239   -1.211502   -5.859077
     75          7           0       -1.818641    1.666327   -4.563946
     76          1           0       -0.988950    2.182935   -4.281380
     77          1           0       -2.653744    1.783801   -3.995035
     78          6           0       -1.623627    0.522948   -5.235984
     79          8           0        3.032465    2.647854   -3.137783
     80          1           0        2.863380    3.551004   -3.471889
     81          1           0       -5.048160    6.381881    0.554897
 ---------------------------------------------------------------------

 SCF Done:  E(RB3LYP) =  -2054.06864501     A.U. after    1 cycles

 Alpha  occ. eigenvalues --  -19.32278 -19.28944 -19.27636 -19.24182 -19.21669
 Alpha  occ. eigenvalues --  -19.21088 -19.20896 -19.19232 -14.50913 -14.50603
 Alpha  occ. eigenvalues --  -14.50331 -14.48808 -14.46642 -14.45475 -14.43295
 Alpha  occ. eigenvalues --  -14.38106 -10.47217 -10.45366 -10.41851 -10.38490
 Alpha  occ. eigenvalues --  -10.38068 -10.35786 -10.35616 -10.35231 -10.32874
 Alpha  occ. eigenvalues --  -10.32833 -10.32765 -10.31808 -10.31337 -10.30995
 Alpha  occ. eigenvalues --  -10.30377 -10.29981 -10.29645 -10.29566 -10.29502
 Alpha  occ. eigenvalues --  -10.29464 -10.29327 -10.28929 -10.28826 -10.28253
 Alpha  occ. eigenvalues --  -10.26753 -10.23394  -1.23684  -1.20138  -1.15827
 Alpha  occ. eigenvalues --   -1.14501  -1.13847  -1.12748  -1.11064  -1.10867
 Alpha  occ. eigenvalues --   -1.08710  -1.08702  -1.05084  -1.03906  -1.02755
 Alpha  occ. eigenvalues --   -1.01963  -1.00512  -0.95810  -0.94694  -0.91778
 Alpha  occ. eigenvalues --   -0.91104  -0.87825  -0.87372  -0.86255  -0.84807
 Alpha  occ. eigenvalues --   -0.84197  -0.82447  -0.81339  -0.79155  -0.78656
 Alpha  occ. eigenvalues --   -0.77897  -0.75577  -0.74517  -0.73014  -0.72518
 Alpha  occ. eigenvalues --   -0.72210  -0.71127  -0.69934  -0.69174  -0.69083
 Alpha  occ. eigenvalues --   -0.67964  -0.67202  -0.66966  -0.66209  -0.65552
 Alpha  occ. eigenvalues --   -0.64954  -0.64555  -0.64270  -0.64067  -0.62006
 Alpha  occ. eigenvalues --   -0.61182  -0.60407  -0.59839  -0.59491  -0.59284
 Alpha  occ. eigenvalues --   -0.58882  -0.58507  -0.58405  -0.57673  -0.57527
 Alpha  occ. eigenvalues --   -0.57171  -0.56914  -0.56264  -0.56073  -0.55832
 Alpha  occ. eigenvalues --   -0.54768  -0.54268  -0.54018  -0.53968  -0.53696
 Alpha  occ. eigenvalues --   -0.53035  -0.52455  -0.52158  -0.51560  -0.51218
 Alpha  occ. eigenvalues --   -0.51021  -0.50678  -0.49953  -0.49816  -0.49236
 Alpha  occ. eigenvalues --   -0.48901  -0.48533  -0.48300  -0.48023  -0.47247
 Alpha  occ. eigenvalues --   -0.46874  -0.46683  -0.46426  -0.46040  -0.45704
 Alpha  occ. eigenvalues --   -0.45668  -0.45394  -0.44681  -0.44222  -0.44125
 Alpha  occ. eigenvalues --   -0.43974  -0.43788  -0.43341  -0.42805  -0.42381
 Alpha  occ. eigenvalues --   -0.41526  -0.41211  -0.41146  -0.39915  -0.39717
 Alpha  occ. eigenvalues --   -0.38406  -0.37681  -0.37527  -0.36248  -0.35191
 Alpha  occ. eigenvalues --   -0.34647  -0.33599  -0.33280  -0.32818  -0.32570
 Alpha  occ. eigenvalues --   -0.31312  -0.30679
 Alpha virt. eigenvalues --   -0.12991  -0.12656  -0.12016  -0.09263  -0.08592
 Alpha virt. eigenvalues --   -0.08419  -0.06643  -0.05793  -0.05123  -0.04811
 Alpha virt. eigenvalues --   -0.03748  -0.03188  -0.02212  -0.01907  -0.01627

 Mulliken charges:
               1
     1  N   -0.696057
     2  H    0.309410
     3  H    0.312735
     4  C   -0.080291
     5  H    0.154038
     6  C    0.568604
     7  C   -0.266871
     8  H    0.171940
     9  H    0.164013
    10  O   -0.533647
    11  C   -0.366897
    12  H    0.198270
    13  H    0.213673
    14  C    0.591774
    15  O   -0.497695
    16  O   -0.539852
    17  N   -0.621188
    18  H    0.385930
    19  C   -0.022114
    20  H    0.164548
    21  C    0.653879
    22  C   -0.411687
    23  H    0.143762
    24  H    0.174198
    25  O   -0.556675
    26  C    0.012116
    27  C    0.005924
    28  H    0.192838
    29  C    0.068177
    30  C    0.322493
    31  C   -0.280878
    32  H    0.135180
    33  N   -0.681546
    34  H    0.346891
    35  C   -0.150442
    36  H    0.157879
    37  C   -0.153910
    38  H    0.155589
    39  C   -0.136784
    40  H    0.150545
    41  N   -0.618874
    42  H    0.347435
    43  C   -0.089264
    44  H    0.200943
    45  C    0.636793
    46  C    0.136499
    47  H    0.128147
    48  O   -0.518533
    49  C   -0.467083
    50  H    0.177202
    51  H    0.176979
    52  H    0.154990
    53  O   -0.619923
    54  H    0.402193
    55  N   -0.659155
    56  H    0.382795
    57  C    0.019125
    58  H    0.204507
    59  C    0.558820
    60  C   -0.291443
    61  H    0.135254
    62  H    0.203264
    63  O   -0.509918
    64  C   -0.295568
    65  H    0.156859
    66  H    0.188537
    67  C   -0.175445
    68  H    0.196773
    69  H    0.168493
    70  N   -0.566631
    71  H    0.374315
    72  N   -0.756002
    73  H    0.401455
    74  H    0.376926
    75  N   -0.763651
    76  H    0.400965
    77  H    0.375547
    78  C    0.741186
    79  O   -0.519805
    80  H    0.433093
    81  H    0.414331
 Sum of Mulliken charges =   1.00000

 Dipole moment (field-independent basis, Debye):
    X=            -11.3236    Y=              7.0181    Z=            -19.3958  Tot=             23.5303
 Quadrupole moment (field-independent basis, Debye-Ang):
   XX=           -167.7441   YY=           -195.0130   ZZ=           -151.2108
   XY=            -17.6439   XZ=             22.6748   YZ=              0.9244

 Normal termination of Gaussian 16 at Thu May 12 23:07:33 2022.
