 Gaussian 16, Revision C.01,
 Gaussian 16:  ES64L-G16RevC.01  3-Jul-2019

 ----------------------------------------------------------------------
 # B3LYP/6-31G* empiricaldispersion=gd3 guess=read geom=check nosymm in
 tegral(ultrafinegrid)
 ----------------------------------------------------------------------

 ------------------------------------------------------
 Candidate Structure: Conf:234 Charge calc in gas phase
 ------------------------------------------------------
 Structure from the checkpoint file:  "conf-234.chk"
 Charge =  1 Multiplicity = 1

                          Input orientation:
 ---------------------------------------------------------------------
 Center     Atomic      Atomic             Coordinates (Angstroms)
 Number     Number       Type             X           Y           Z
 ---------------------------------------------------------------------
      1          7           0       -3.261004   -1.830731    0.013859
      2          1           0       -2.325170   -2.191254    0.201877
      3          1           0       -3.896853   -2.426891    0.541085
      4          6           0       -3.351418   -0.464927    0.549300
      5          1           0       -4.413896   -0.222056    0.672589
      6          6           0       -2.756822    0.504367   -0.476175
      7          6           0       -2.638153   -0.309656    1.921375
      8          1           0       -3.041625   -1.095760    2.571015
      9          1           0       -1.570832   -0.526359    1.793587
     10          8           0       -1.888717    0.125102   -1.300184
     11          6           0       -2.817546    1.053029    2.604961
     12          1           0       -3.873176    1.324305    2.683588
     13          1           0       -2.322337    1.843198    2.027841
     14          6           0       -2.243031    1.125329    4.003425
     15          8           0       -2.791570    1.633695    4.952114
     16          8           0       -1.001976    0.577037    4.065299
     17          7           0       -3.143370    1.780266   -0.407227
     18          1           0       -3.901257    2.026828    0.223361
     19          6           0       -2.626290    2.859088   -1.268811
     20          1           0       -2.682380    2.497492   -2.301439
     21          6           0       -1.143542    3.135809   -0.881487
     22          6           0       -3.467818    4.151806   -1.103975
     23          1           0       -3.303758    4.759442   -1.999836
     24          1           0       -3.042030    4.713279   -0.266626
     25          8           0       -0.840806    3.934042   -0.009264
     26          6           0       -4.927818    3.914498   -0.863008
     27          6           0       -5.947035    3.795494   -1.776201
     28          1           0       -5.928469    3.913303   -2.851224
     29          6           0       -5.513806    3.673346    0.434991
     30          6           0       -6.894092    3.399732    0.232359
     31          6           0       -4.995744    3.655741    1.744733
     32          1           0       -3.950838    3.894346    1.928774
     33          7           0       -7.125451    3.484622   -1.125952
     34          1           0       -8.029511    3.413068   -1.567634
     35          6           0       -7.210908    3.071202    2.573717
     36          1           0       -7.853384    2.839971    3.418034
     37          6           0       -7.755270    3.101946    1.293739
     38          1           0       -8.809561    2.900321    1.126446
     39          6           0       -5.845284    3.345901    2.800780
     40          1           0       -5.451200    3.317300    3.812673
     41          7           0       -0.241916    2.391274   -1.595936
     42          1           0       -0.644460    1.563132   -2.023264
     43          6           0        1.159873    2.265306   -1.207072
     44          1           0        1.452396    3.187616   -0.698279
     45          6           0        2.078932    2.059418   -2.421605
     46          6           0        1.380514    1.059907   -0.248834
     47          1           0        2.456715    0.887473   -0.194294
     48          8           0        3.266403    1.798374   -2.259578
     49          6           0        0.803254    1.283140    1.142339
     50          1           0        1.260477    2.154061    1.620599
     51          1           0        0.975880    0.404078    1.769407
     52          1           0       -0.273961    1.469122    1.098557
     53          8           0        0.825476   -0.138215   -0.837627
     54          1           0       -0.143303   -0.097448   -0.718352
     55          7           0        1.472842    2.075191   -3.639005
     56          1           0        0.547484    2.474706   -3.711276
     57          6           0        2.171183    1.707694   -4.860754
     58          1           0        3.241004    1.878986   -4.693155
     59          6           0        1.773458    2.571079   -6.053984
     60          6           0        1.937787    0.215729   -5.194852
     61          1           0        2.253086    0.031114   -6.226254
     62          1           0        0.854713    0.037516   -5.149320
     63          8           0        2.174865    2.373596   -7.175636
     64          6           0        2.674536   -0.736814   -4.231388
     65          1           0        3.670406   -0.962652   -4.627886
     66          1           0        2.847650   -0.267786   -3.259319
     67          6           0        1.938706   -2.061216   -4.017989
     68          1           0        1.614926   -2.466575   -4.983919
     69          1           0        2.605741   -2.792842   -3.542832
     70          7           0        0.748134   -1.859368   -3.174225
     71          1           0        0.828814   -1.159687   -2.422749
     72          7           0       -0.289042   -3.823737   -3.868002
     73          1           0       -1.122786   -4.383513   -3.964781
     74          1           0        0.573417   -4.218922   -4.209452
     75          7           0       -1.382340   -2.389158   -2.415123
     76          1           0       -1.569699   -1.455616   -2.028551
     77          1           0       -2.131591   -3.055549   -2.296899
     78          6           0       -0.300220   -2.683951   -3.144120
     79          8           0        0.914035    3.566766   -5.730988
     80          1           0        0.738306    4.062221   -6.554076
     81          1           0       -0.689900    0.692395    4.983342
 ---------------------------------------------------------------------

 SCF Done:  E(RB3LYP) =  -2054.08082144     A.U. after    3 cycles

 Alpha  occ. eigenvalues --  -19.29055 -19.27754 -19.25815 -19.25412 -19.22763
 Alpha  occ. eigenvalues --  -19.21956 -19.21855 -19.20325 -14.51046 -14.49479
 Alpha  occ. eigenvalues --  -14.48910 -14.48860 -14.46411 -14.45874 -14.45393
 Alpha  occ. eigenvalues --  -14.43710 -10.46545 -10.41837 -10.41212 -10.40243
 Alpha  occ. eigenvalues --  -10.38940 -10.37891 -10.34637 -10.34517 -10.34482
 Alpha  occ. eigenvalues --  -10.33467 -10.33264 -10.32462 -10.30539 -10.30166
 Alpha  occ. eigenvalues --  -10.30140 -10.29139 -10.28871 -10.28758 -10.28650
 Alpha  occ. eigenvalues --  -10.26940 -10.26886 -10.26818 -10.26730 -10.26523
 Alpha  occ. eigenvalues --  -10.26246 -10.25904  -1.19703  -1.18389  -1.17063
 Alpha  occ. eigenvalues --   -1.14866  -1.13882  -1.12824  -1.11967  -1.10678
 Alpha  occ. eigenvalues --   -1.09495  -1.06283  -1.05155  -1.04140  -1.03170
 Alpha  occ. eigenvalues --   -1.02927  -1.01412  -1.00786  -0.92010  -0.90650
 Alpha  occ. eigenvalues --   -0.90237  -0.89080  -0.87547  -0.85654  -0.85221
 Alpha  occ. eigenvalues --   -0.81880  -0.81396  -0.80904  -0.79778  -0.79042
 Alpha  occ. eigenvalues --   -0.76844  -0.75969  -0.74302  -0.73007  -0.71696
 Alpha  occ. eigenvalues --   -0.71070  -0.70732  -0.70260  -0.69444  -0.69068
 Alpha  occ. eigenvalues --   -0.68516  -0.68087  -0.67638  -0.67044  -0.65144
 Alpha  occ. eigenvalues --   -0.64544  -0.64295  -0.63902  -0.62914  -0.62461
 Alpha  occ. eigenvalues --   -0.61822  -0.60421  -0.59667  -0.58993  -0.58783
 Alpha  occ. eigenvalues --   -0.58103  -0.57988  -0.57142  -0.56901  -0.56615
 Alpha  occ. eigenvalues --   -0.56495  -0.56332  -0.55446  -0.55197  -0.54916
 Alpha  occ. eigenvalues --   -0.54638  -0.54267  -0.53937  -0.53669  -0.53245
 Alpha  occ. eigenvalues --   -0.52857  -0.52782  -0.52128  -0.51716  -0.51267
 Alpha  occ. eigenvalues --   -0.50705  -0.50526  -0.50132  -0.49987  -0.49650
 Alpha  occ. eigenvalues --   -0.49271  -0.48783  -0.48685  -0.48322  -0.47889
 Alpha  occ. eigenvalues --   -0.47341  -0.46806  -0.46679  -0.46465  -0.46302
 Alpha  occ. eigenvalues --   -0.45939  -0.45319  -0.45109  -0.44741  -0.44511
 Alpha  occ. eigenvalues --   -0.44172  -0.43082  -0.42740  -0.41699  -0.41514
 Alpha  occ. eigenvalues --   -0.41296  -0.40676  -0.40172  -0.39824  -0.39497
 Alpha  occ. eigenvalues --   -0.38918  -0.38781  -0.37235  -0.36907  -0.36415
 Alpha  occ. eigenvalues --   -0.35761  -0.35189  -0.34843  -0.34118  -0.33238
 Alpha  occ. eigenvalues --   -0.30471  -0.28643
 Alpha virt. eigenvalues --   -0.11591  -0.10520  -0.09392  -0.08759  -0.08143
 Alpha virt. eigenvalues --   -0.07220  -0.06854  -0.06558  -0.05940  -0.04212
 Alpha virt. eigenvalues --   -0.02965  -0.02473  -0.01809  -0.01195  -0.00707

 Mulliken charges:
               1
     1  N   -0.728269
     2  H    0.307561
     3  H    0.325412
     4  C   -0.106755
     5  H    0.178287
     6  C    0.665631
     7  C   -0.289438
     8  H    0.168419
     9  H    0.170802
    10  O   -0.612447
    11  C   -0.392746
    12  H    0.194054
    13  H    0.195011
    14  C    0.580773
    15  O   -0.442704
    16  O   -0.565774
    17  N   -0.597225
    18  H    0.381398
    19  C   -0.041713
    20  H    0.166526
    21  C    0.619544
    22  C   -0.401359
    23  H    0.174400
    24  H    0.209917
    25  O   -0.499337
    26  C    0.051155
    27  C    0.008245
    28  H    0.163069
    29  C    0.034849
    30  C    0.321538
    31  C   -0.245046
    32  H    0.151596
    33  N   -0.686593
    34  H    0.342057
    35  C   -0.154573
    36  H    0.148571
    37  C   -0.158661
    38  H    0.143507
    39  C   -0.145139
    40  H    0.161906
    41  N   -0.645940
    42  H    0.348212
    43  C   -0.066449
    44  H    0.216458
    45  C    0.624201
    46  C    0.108129
    47  H    0.195867
    48  O   -0.522523
    49  C   -0.482172
    50  H    0.182260
    51  H    0.174714
    52  H    0.144203
    53  O   -0.690800
    54  H    0.427264
    55  N   -0.616682
    56  H    0.352026
    57  C   -0.061888
    58  H    0.226378
    59  C    0.588193
    60  C   -0.268191
    61  H    0.189545
    62  H    0.136283
    63  O   -0.442596
    64  C   -0.317831
    65  H    0.177896
    66  H    0.203762
    67  C   -0.164891
    68  H    0.169507
    69  H    0.180974
    70  N   -0.633896
    71  H    0.410839
    72  N   -0.765405
    73  H    0.373512
    74  H    0.383612
    75  N   -0.816423
    76  H    0.439289
    77  H    0.362457
    78  C    0.809668
    79  O   -0.575692
    80  H    0.427148
    81  H    0.422530
 Sum of Mulliken charges =   1.00000

 Dipole moment (field-independent basis, Debye):
    X=            -11.6664    Y=             -6.3990    Z=            -11.3776  Tot=             17.5072
 Quadrupole moment (field-independent basis, Debye-Ang):
   XX=           -172.1284   YY=           -193.4375   ZZ=           -192.1778
   XY=            -17.9549   XZ=             19.0395   YZ=              8.6230

 Normal termination of Gaussian 16 at Thu May 12 23:08:22 2022.
