 Gaussian 16, Revision C.01,
 Gaussian 16:  ES64L-G16RevC.01  3-Jul-2019

 ----------------------------------------------------------------------
 # B3LYP/6-31G* empiricaldispersion=gd3 guess=read geom=check nosymm in
 tegral(ultrafinegrid)
 ----------------------------------------------------------------------

 ------------------------------------------------------
 Candidate Structure: Conf:549 Charge calc in gas phase
 ------------------------------------------------------
 Structure from the checkpoint file:  "conf-549.chk"
 Charge =  1 Multiplicity = 1

                          Input orientation:
 ---------------------------------------------------------------------
 Center     Atomic      Atomic             Coordinates (Angstroms)
 Number     Number       Type             X           Y           Z
 ---------------------------------------------------------------------
      1          7           0       -4.205015   -0.975983    1.707939
      2          1           0       -4.818178   -0.355799    1.181104
      3          1           0       -3.936482   -1.736647    1.085367
      4          6           0       -3.002822   -0.271459    2.166403
      5          1           0       -3.339232    0.542615    2.824411
      6          6           0       -2.239713    0.319971    0.973533
      7          6           0       -2.092808   -1.214904    2.963562
      8          1           0       -1.622077   -1.917025    2.268613
      9          1           0       -1.291104   -0.622655    3.420059
     10          8           0       -1.531118   -0.376136    0.237714
     11          6           0       -2.850178   -1.992699    4.042759
     12          1           0       -3.547826   -1.356730    4.596469
     13          1           0       -2.142956   -2.399557    4.778579
     14          6           0       -3.608338   -3.178525    3.481900
     15          8           0       -3.329090   -3.783647    2.467683
     16          8           0       -4.623873   -3.549820    4.295666
     17          7           0       -2.463385    1.637014    0.715031
     18          1           0       -3.142663    2.128597    1.282388
     19          6           0       -2.216645    2.196506   -0.614944
     20          1           0       -2.289576    1.360581   -1.318808
     21          6           0       -0.776377    2.737689   -0.687126
     22          6           0       -3.260282    3.279469   -0.959527
     23          1           0       -3.225440    3.436936   -2.044744
     24          1           0       -2.948171    4.225340   -0.505567
     25          8           0       -0.511731    3.942420   -0.738107
     26          6           0       -4.638581    2.907029   -0.493830
     27          6           0       -5.423601    3.641015    0.362618
     28          1           0       -5.243597    4.620480    0.785125
     29          6           0       -5.349791    1.673491   -0.740103
     30          6           0       -6.560046    1.730738    0.006895
     31          6           0       -5.073095    0.514343   -1.488394
     32          1           0       -4.162263    0.437172   -2.074279
     33          7           0       -6.580497    2.946537    0.659666
     34          1           0       -7.330175    3.283401    1.243412
     35          6           0       -7.168502   -0.460257   -0.710727
     36          1           0       -7.855267   -1.301462   -0.707723
     37          6           0       -7.476579    0.673903    0.031891
     38          1           0       -8.390857    0.734342    0.615619
     39          6           0       -5.979453   -0.538517   -1.465784
     40          1           0       -5.770210   -1.439211   -2.035515
     41          7           0        0.169763    1.766286   -0.687093
     42          1           0       -0.115851    0.802535   -0.490960
     43          6           0        1.576289    2.109596   -0.645783
     44          1           0        1.710485    3.009442   -1.258718
     45          6           0        2.356375    0.939004   -1.228233
     46          6           0        2.077602    2.433834    0.798516
     47          1           0        2.071859    1.494832    1.367381
     48          8           0        2.073424   -0.229212   -0.989466
     49          6           0        3.493595    3.019075    0.787212
     50          1           0        4.235545    2.302275    0.418938
     51          1           0        3.766303    3.306685    1.806226
     52          1           0        3.529674    3.924812    0.166795
     53          8           0        1.178420    3.296965    1.463988
     54          1           0        0.807245    3.924602    0.816167
     55          7           0        3.422880    1.241503   -2.037499
     56          1           0        3.773018    2.188659   -2.085134
     57          6           0        4.225707    0.145593   -2.533758
     58          1           0        3.561940   -0.544013   -3.066443
     59          6           0        4.822701   -0.702198   -1.409618
     60          6           0        5.308800    0.653736   -3.512969
     61          1           0        6.091208    1.196239   -2.965534
     62          1           0        4.814290    1.386623   -4.159077
     63          8           0        5.145729   -1.875407   -1.546469
     64          6           0        5.918391   -0.446053   -4.407946
     65          1           0        5.153151   -1.202406   -4.619225
     66          1           0        6.190435   -0.011537   -5.376349
     67          6           0        7.166912   -1.136195   -3.827390
     68          1           0        8.037761   -0.478100   -3.886850
     69          1           0        7.044814   -1.400088   -2.776828
     70          7           0        7.513984   -2.363571   -4.561935
     71          1           0        8.059094   -2.251867   -5.407124
     72          7           0        5.941905   -3.718334   -3.493831
     73          1           0        5.633323   -4.651436   -3.257041
     74          1           0        5.578206   -2.962830   -2.896515
     75          7           0        7.294532   -4.587435   -5.164128
     76          1           0        8.162850   -4.561860   -5.679167
     77          1           0        6.831672   -5.482804   -5.101426
     78          6           0        6.909968   -3.550343   -4.391967
     79          8           0        5.040048   -0.032213   -0.280551
     80          1           0        5.390178   -0.656365    0.384500
     81          1           0       -5.033172   -4.332479    3.881118
 ---------------------------------------------------------------------

 SCF Done:  E(RB3LYP) =  -2054.04833025     A.U. after    3 cycles

 Alpha  occ. eigenvalues --  -19.32212 -19.27246 -19.22711 -19.21113 -19.18882
 Alpha  occ. eigenvalues --  -19.17715 -19.17021 -19.16851 -14.53598 -14.53397
 Alpha  occ. eigenvalues --  -14.52120 -14.46393 -14.43227 -14.41540 -14.41317
 Alpha  occ. eigenvalues --  -14.35833 -10.49677 -10.45087 -10.37966 -10.37208
 Alpha  occ. eigenvalues --  -10.35811 -10.35287 -10.34537 -10.33451 -10.32681
 Alpha  occ. eigenvalues --  -10.32619 -10.30462 -10.30330 -10.28927 -10.27339
 Alpha  occ. eigenvalues --  -10.27126 -10.26964 -10.24724 -10.24150 -10.23960
 Alpha  occ. eigenvalues --  -10.23710 -10.23671 -10.23666 -10.23591 -10.23427
 Alpha  occ. eigenvalues --  -10.23033 -10.22762  -1.23610  -1.17996  -1.14379
 Alpha  occ. eigenvalues --   -1.13533  -1.13397  -1.09760  -1.08578  -1.07486
 Alpha  occ. eigenvalues --   -1.06666  -1.05791  -1.04435  -1.03142  -1.03092
 Alpha  occ. eigenvalues --   -0.98481  -0.97728  -0.93426  -0.93191  -0.88912
 Alpha  occ. eigenvalues --   -0.88359  -0.85752  -0.84477  -0.82736  -0.82335
 Alpha  occ. eigenvalues --   -0.81208  -0.79746  -0.78598  -0.78066  -0.76918
 Alpha  occ. eigenvalues --   -0.75711  -0.75416  -0.75269  -0.72648  -0.71984
 Alpha  occ. eigenvalues --   -0.71398  -0.69120  -0.68076  -0.67315  -0.66899
 Alpha  occ. eigenvalues --   -0.66514  -0.66094  -0.64416  -0.64308  -0.64148
 Alpha  occ. eigenvalues --   -0.63697  -0.62301  -0.61435  -0.61112  -0.60776
 Alpha  occ. eigenvalues --   -0.60449  -0.59950  -0.59197  -0.58807  -0.57809
 Alpha  occ. eigenvalues --   -0.57408  -0.56290  -0.55621  -0.55408  -0.55036
 Alpha  occ. eigenvalues --   -0.54899  -0.53988  -0.53522  -0.52588  -0.52470
 Alpha  occ. eigenvalues --   -0.52399  -0.51845  -0.51544  -0.50818  -0.50694
 Alpha  occ. eigenvalues --   -0.50158  -0.49463  -0.49166  -0.48926  -0.48756
 Alpha  occ. eigenvalues --   -0.48160  -0.48025  -0.47610  -0.47526  -0.47113
 Alpha  occ. eigenvalues --   -0.46746  -0.46579  -0.46371  -0.45889  -0.44972
 Alpha  occ. eigenvalues --   -0.44553  -0.44379  -0.44165  -0.43932  -0.43531
 Alpha  occ. eigenvalues --   -0.43340  -0.43218  -0.42762  -0.42633  -0.42113
 Alpha  occ. eigenvalues --   -0.41575  -0.41265  -0.40365  -0.39986  -0.39034
 Alpha  occ. eigenvalues --   -0.38807  -0.38388  -0.37981  -0.37760  -0.35950
 Alpha  occ. eigenvalues --   -0.34958  -0.34825  -0.33471  -0.32767  -0.32254
 Alpha  occ. eigenvalues --   -0.31952  -0.30734  -0.30643  -0.29931  -0.27463
 Alpha  occ. eigenvalues --   -0.27430  -0.25584
 Alpha virt. eigenvalues --   -0.13334  -0.12138  -0.09724  -0.07282  -0.06255
 Alpha virt. eigenvalues --   -0.05809  -0.04810  -0.04263  -0.04200  -0.03007
 Alpha virt. eigenvalues --   -0.02613  -0.02477  -0.02083  -0.01845  -0.01014

 Mulliken charges:
               1
     1  N   -0.732459
     2  H    0.328410
     3  H    0.328014
     4  C   -0.053917
     5  H    0.131490
     6  C    0.620416
     7  C   -0.280064
     8  H    0.188439
     9  H    0.140445
    10  O   -0.553852
    11  C   -0.343850
    12  H    0.174413
    13  H    0.173929
    14  C    0.613229
    15  O   -0.485834
    16  O   -0.566717
    17  N   -0.593606
    18  H    0.337080
    19  C   -0.069791
    20  H    0.180240
    21  C    0.650723
    22  C   -0.376822
    23  H    0.167261
    24  H    0.179231
    25  O   -0.561893
    26  C    0.037046
    27  C   -0.008064
    28  H    0.162693
    29  C    0.077790
    30  C    0.306468
    31  C   -0.214960
    32  H    0.131903
    33  N   -0.683369
    34  H    0.336538
    35  C   -0.150180
    36  H    0.138356
    37  C   -0.161384
    38  H    0.136471
    39  C   -0.148494
    40  H    0.133426
    41  N   -0.621598
    42  H    0.395996
    43  C   -0.096343
    44  H    0.162942
    45  C    0.636436
    46  C    0.179066
    47  H    0.144629
    48  O   -0.518066
    49  C   -0.487180
    50  H    0.139490
    51  H    0.178845
    52  H    0.138311
    53  O   -0.637333
    54  H    0.416841
    55  N   -0.628977
    56  H    0.344901
    57  C   -0.004451
    58  H    0.204349
    59  C    0.636411
    60  C   -0.328160
    61  H    0.171363
    62  H    0.191526
    63  O   -0.515016
    64  C   -0.278523
    65  H    0.165290
    66  H    0.173010
    67  C   -0.192529
    68  H    0.196798
    69  H    0.201555
    70  N   -0.594908
    71  H    0.363886
    72  N   -0.786862
    73  H    0.376333
    74  H    0.444036
    75  N   -0.767082
    76  H    0.383003
    77  H    0.384654
    78  C    0.823316
    79  O   -0.527727
    80  H    0.435619
    81  H    0.407394
 Sum of Mulliken charges =   1.00000

 Dipole moment (field-independent basis, Debye):
    X=             27.1217    Y=             -8.7726    Z=            -17.6446  Tot=             33.5243
 Quadrupole moment (field-independent basis, Debye-Ang):
   XX=             33.8053   YY=           -178.0748   ZZ=           -142.7188
   XY=           -100.8596   XZ=           -153.4123   YZ=             60.8414

 Normal termination of Gaussian 16 at Thu May 12 23:08:03 2022.
