 Gaussian 16, Revision C.01,
 Gaussian 16:  ES64L-G16RevC.01  3-Jul-2019

 ----------------------------------------------------------------------
 # B3LYP/6-31G* empiricaldispersion=gd3 guess=read geom=check nosymm in
 tegral(ultrafinegrid)
 ----------------------------------------------------------------------

 ------------------------------------------------------
 Candidate Structure: Conf:367 Charge calc in gas phase
 ------------------------------------------------------
 Structure from the checkpoint file:  "conf-367.chk"
 Charge =  1 Multiplicity = 1

                          Input orientation:
 ---------------------------------------------------------------------
 Center     Atomic      Atomic             Coordinates (Angstroms)
 Number     Number       Type             X           Y           Z
 ---------------------------------------------------------------------
      1          7           0       -4.688835    2.828665    3.152550
      2          1           0       -5.153699    2.003845    3.529283
      3          1           0       -4.846862    3.596512    3.801948
      4          6           0       -3.262980    2.556045    3.020550
      5          1           0       -2.792226    3.408503    2.513645
      6          6           0       -3.113420    1.291187    2.171504
      7          6           0       -2.524669    2.296993    4.362080
      8          1           0       -2.677473    3.160878    5.019305
      9          1           0       -3.002713    1.433958    4.839784
     10          8           0       -3.647675    0.238616    2.539151
     11          6           0       -1.010557    2.036913    4.181573
     12          1           0       -0.509755    2.947881    3.842983
     13          1           0       -0.844102    1.253907    3.436793
     14          6           0       -0.373667    1.537242    5.451890
     15          8           0       -0.485513    0.392882    5.880889
     16          8           0        0.323523    2.473584    6.102069
     17          7           0       -2.331671    1.378953    1.066766
     18          1           0       -1.814071    2.241325    0.913311
     19          6           0       -1.795578    0.178427    0.420190
     20          1           0       -2.217614   -0.663024    0.967504
     21          6           0       -0.313410    0.184465    0.787005
     22          6           0       -2.202008    0.044561   -1.063061
     23          1           0       -1.473863   -0.604685   -1.569956
     24          1           0       -2.169444    1.021195   -1.561491
     25          8           0        0.017610   -0.174201    1.918633
     26          6           0       -3.571883   -0.558650   -1.133416
     27          6           0       -4.765589    0.037610   -1.452012
     28          1           0       -4.963514    1.035487   -1.817621
     29          6           0       -3.886089   -1.887711   -0.676551
     30          6           0       -5.297703   -2.032160   -0.738102
     31          6           0       -3.109062   -2.962452   -0.207993
     32          1           0       -2.022420   -2.892296   -0.204147
     33          7           0       -5.802971   -0.845378   -1.226468
     34          1           0       -6.778152   -0.649660   -1.393341
     35          6           0       -5.152869   -4.244991    0.143910
     36          1           0       -5.624988   -5.168342    0.465387
     37          6           0       -5.943101   -3.205626   -0.334072
     38          1           0       -7.023693   -3.302396   -0.387636
     39          6           0       -3.747107   -4.129824    0.202487
     40          1           0       -3.160372   -4.978825    0.544478
     41          7           0        0.586371    0.689800   -0.105310
     42          1           0        0.185841    1.138875   -0.919598
     43          6           0        1.795602    1.341531    0.424696
     44          1           0        2.379958    1.666075   -0.444726
     45          6           0        2.638138    0.332632    1.242203
     46          6           0        1.417920    2.566587    1.308020
     47          1           0        1.145564    2.181169    2.290097
     48          8           0        3.073134    0.613391    2.352290
     49          6           0        2.563597    3.557209    1.443179
     50          1           0        3.429747    3.062674    1.888783
     51          1           0        2.267899    4.392816    2.085168
     52          1           0        2.857289    3.957299    0.462433
     53          8           0        0.222972    3.195281    0.800782
     54          1           0        0.485230    3.910289    0.199355
     55          7           0        2.850476   -0.869789    0.641332
     56          1           0        2.408488   -1.074707   -0.246361
     57          6           0        3.248235   -2.011622    1.450090
     58          1           0        3.978015   -1.658638    2.182108
     59          6           0        3.882347   -3.054793    0.549845
     60          6           0        2.018416   -2.622625    2.189966
     61          1           0        1.603273   -3.446508    1.588321
     62          1           0        1.268022   -1.833118    2.224440
     63          8           0        3.743136   -3.104190   -0.651645
     64          6           0        2.286513   -3.093052    3.618900
     65          1           0        2.970427   -3.949421    3.637899
     66          1           0        2.774178   -2.280656    4.173770
     67          6           0        0.990946   -3.483265    4.347015
     68          1           0        0.503226   -4.334101    3.861517
     69          1           0        1.214869   -3.799118    5.371482
     70          7           0        0.017295   -2.385264    4.431808
     71          1           0        0.231587   -1.619081    5.062622
     72          7           0       -1.444988   -3.096078    2.749282
     73          1           0       -2.336172   -3.004970    2.272199
     74          1           0       -0.697269   -3.500661    2.206913
     75          7           0       -2.051713   -1.384299    4.187561
     76          1           0       -1.762673   -0.752471    4.934247
     77          1           0       -2.728721   -0.998027    3.523725
     78          6           0       -1.144205   -2.269888    3.772382
     79          8           0        4.558160   -3.970457    1.273573
     80          1           0        4.901664   -4.639091    0.649737
     81          1           0        0.683802    2.071896    6.917132
 ---------------------------------------------------------------------

 SCF Done:  E(RB3LYP) =  -2054.08550586     A.U. after    1 cycles

 Alpha  occ. eigenvalues --  -19.30614 -19.28995 -19.26338 -19.25451 -19.23881
 Alpha  occ. eigenvalues --  -19.23324 -19.22598 -19.20981 -14.48647 -14.48412
 Alpha  occ. eigenvalues --  -14.48013 -14.47099 -14.46146 -14.46089 -14.45107
 Alpha  occ. eigenvalues --  -14.40423 -10.44428 -10.43492 -10.41360 -10.40515
 Alpha  occ. eigenvalues --  -10.39382 -10.38594 -10.34143 -10.34097 -10.33974
 Alpha  occ. eigenvalues --  -10.33759 -10.33236 -10.32332 -10.30421 -10.30173
 Alpha  occ. eigenvalues --  -10.29848 -10.29833 -10.29527 -10.28972 -10.28768
 Alpha  occ. eigenvalues --  -10.27597 -10.27146 -10.27049 -10.26933 -10.26843
 Alpha  occ. eigenvalues --  -10.26789 -10.26630  -1.21712  -1.19846  -1.16153
 Alpha  occ. eigenvalues --   -1.14286  -1.13199  -1.12998  -1.12815  -1.12360
 Alpha  occ. eigenvalues --   -1.11007  -1.06113  -1.04303  -1.03368  -1.02650
 Alpha  occ. eigenvalues --   -1.01835  -1.00700  -0.98130  -0.92389  -0.90635
 Alpha  occ. eigenvalues --   -0.90157  -0.89414  -0.87988  -0.85275  -0.85236
 Alpha  occ. eigenvalues --   -0.82099  -0.81207  -0.80994  -0.79842  -0.78708
 Alpha  occ. eigenvalues --   -0.76787  -0.75349  -0.73596  -0.72861  -0.71860
 Alpha  occ. eigenvalues --   -0.71086  -0.70672  -0.70412  -0.69915  -0.68944
 Alpha  occ. eigenvalues --   -0.68368  -0.67719  -0.67623  -0.66292  -0.65118
 Alpha  occ. eigenvalues --   -0.64262  -0.62489  -0.62274  -0.61876  -0.61399
 Alpha  occ. eigenvalues --   -0.61264  -0.60570  -0.59884  -0.59062  -0.58919
 Alpha  occ. eigenvalues --   -0.58392  -0.58122  -0.57511  -0.57102  -0.56777
 Alpha  occ. eigenvalues --   -0.56588  -0.56269  -0.55887  -0.55556  -0.55374
 Alpha  occ. eigenvalues --   -0.55177  -0.54221  -0.54108  -0.53636  -0.53225
 Alpha  occ. eigenvalues --   -0.53117  -0.52959  -0.52651  -0.51669  -0.51428
 Alpha  occ. eigenvalues --   -0.51133  -0.50454  -0.50216  -0.49949  -0.49740
 Alpha  occ. eigenvalues --   -0.49618  -0.49222  -0.48820  -0.48581  -0.48228
 Alpha  occ. eigenvalues --   -0.47597  -0.47544  -0.47276  -0.46888  -0.46666
 Alpha  occ. eigenvalues --   -0.46185  -0.45441  -0.45254  -0.45109  -0.44428
 Alpha  occ. eigenvalues --   -0.44260  -0.43996  -0.43343  -0.42737  -0.42044
 Alpha  occ. eigenvalues --   -0.41570  -0.41104  -0.39661  -0.39514  -0.39000
 Alpha  occ. eigenvalues --   -0.38802  -0.38029  -0.37237  -0.36858  -0.36614
 Alpha  occ. eigenvalues --   -0.36174  -0.35104  -0.34696  -0.34373  -0.32481
 Alpha  occ. eigenvalues --   -0.30645  -0.28767
 Alpha virt. eigenvalues --   -0.12147  -0.10520  -0.09855  -0.09005  -0.08421
 Alpha virt. eigenvalues --   -0.07685  -0.07412  -0.06115  -0.04612  -0.04166
 Alpha virt. eigenvalues --   -0.02179  -0.02030  -0.01333  -0.01189  -0.00869

 Mulliken charges:
               1
     1  N   -0.708113
     2  H    0.321238
     3  H    0.313180
     4  C   -0.053215
     5  H    0.150051
     6  C    0.638331
     7  C   -0.294844
     8  H    0.165953
     9  H    0.159767
    10  O   -0.559074
    11  C   -0.399574
    12  H    0.188016
    13  H    0.217573
    14  C    0.598399
    15  O   -0.505202
    16  O   -0.527717
    17  N   -0.600827
    18  H    0.368782
    19  C   -0.059492
    20  H    0.193491
    21  C    0.597090
    22  C   -0.379550
    23  H    0.163684
    24  H    0.153380
    25  O   -0.523947
    26  C    0.060510
    27  C    0.018923
    28  H    0.167110
    29  C    0.103740
    30  C    0.322722
    31  C   -0.249962
    32  H    0.110936
    33  N   -0.689623
    34  H    0.343384
    35  C   -0.150035
    36  H    0.146961
    37  C   -0.151278
    38  H    0.147591
    39  C   -0.154239
    40  H    0.129632
    41  N   -0.582223
    42  H    0.345943
    43  C   -0.108622
    44  H    0.177198
    45  C    0.658682
    46  C    0.140203
    47  H    0.181525
    48  O   -0.527957
    49  C   -0.499737
    50  H    0.205947
    51  H    0.173114
    52  H    0.143563
    53  O   -0.660228
    54  H    0.405737
    55  N   -0.601383
    56  H    0.344883
    57  C   -0.025284
    58  H    0.211945
    59  C    0.577319
    60  C   -0.341253
    61  H    0.131299
    62  H    0.225687
    63  O   -0.456277
    64  C   -0.265279
    65  H    0.177630
    66  H    0.167299
    67  C   -0.177271
    68  H    0.173116
    69  H    0.191812
    70  N   -0.604957
    71  H    0.381380
    72  N   -0.773261
    73  H    0.384894
    74  H    0.364920
    75  N   -0.812975
    76  H    0.394375
    77  H    0.413232
    78  C    0.799776
    79  O   -0.562602
    80  H    0.426786
    81  H    0.427289
 Sum of Mulliken charges =   1.00000

 Dipole moment (field-independent basis, Debye):
    X=             -4.0120    Y=             -0.8514    Z=              9.6118  Tot=             10.4503
 Quadrupole moment (field-independent basis, Debye-Ang):
   XX=           -189.0286   YY=           -183.3486   ZZ=           -182.2885
   XY=             -8.5864   XZ=              4.1235   YZ=             -9.9393

 Normal termination of Gaussian 16 at Thu May 12 23:07:40 2022.
