 Gaussian 16, Revision C.01,
 Gaussian 16:  ES64L-G16RevC.01  3-Jul-2019

 ----------------------------------------------------------------------
 # B3LYP/6-31G* empiricaldispersion=gd3 guess=read geom=check nosymm in
 tegral(ultrafinegrid)
 ----------------------------------------------------------------------

 -----------------------------------------------------
 Candidate Structure: Conf:95 Charge calc in gas phase
 -----------------------------------------------------
 Structure from the checkpoint file:  "conf-95.chk"
 Charge =  1 Multiplicity = 1

                          Input orientation:
 ---------------------------------------------------------------------
 Center     Atomic      Atomic             Coordinates (Angstroms)
 Number     Number       Type             X           Y           Z
 ---------------------------------------------------------------------
      1          7           0       -5.805349    2.661352    2.139542
      2          1           0       -6.255338    2.334553    1.285168
      3          1           0       -5.765437    1.854475    2.763193
      4          6           0       -4.439888    3.059595    1.826179
      5          1           0       -4.470061    3.634713    0.898401
      6          6           0       -3.513872    1.839373    1.622814
      7          6           0       -3.918351    3.969553    2.958358
      8          1           0       -4.655490    4.767216    3.094149
      9          1           0       -3.887546    3.399490    3.894241
     10          8           0       -3.751754    0.764641    2.159586
     11          6           0       -2.515026    4.585582    2.725918
     12          1           0       -1.785319    3.778894    2.603988
     13          1           0       -2.241141    5.203151    3.585472
     14          6           0       -2.486196    5.418548    1.469710
     15          8           0       -2.491867    5.005495    0.325080
     16          8           0       -2.468421    6.757509    1.727106
     17          7           0       -2.394793    2.048185    0.841082
     18          1           0       -2.365802    2.910913    0.306224
     19          6           0       -1.699814    0.908333    0.278800
     20          1           0       -1.940315    0.057592    0.921881
     21          6           0       -0.195913    1.130832    0.233360
     22          6           0       -2.184177    0.588143   -1.177370
     23          1           0       -1.661497   -0.311103   -1.525112
     24          1           0       -1.870101    1.412667   -1.831002
     25          8           0        0.299635    2.259589   -0.002499
     26          6           0       -3.668047    0.408145   -1.232970
     27          6           0       -4.365176   -0.749862   -0.986206
     28          1           0       -3.997170   -1.749265   -0.798235
     29          6           0       -4.650103    1.451013   -1.392617
     30          6           0       -5.928653    0.852841   -1.212319
     31          6           0       -4.578470    2.829603   -1.660360
     32          1           0       -3.618104    3.316962   -1.808932
     33          7           0       -5.718269   -0.489656   -0.977230
     34          1           0       -6.441009   -1.176467   -0.824760
     35          6           0       -7.009964    2.958513   -1.507191
     36          1           0       -7.910439    3.564106   -1.545042
     37          6           0       -7.115813    1.592880   -1.264007
     38          1           0       -8.082867    1.119726   -1.118308
     39          6           0       -5.753518    3.569787   -1.709845
     40          1           0       -5.708412    4.637746   -1.903412
     41          7           0        0.552129    0.023280    0.312924
     42          1           0        0.118224   -0.832266    0.638256
     43          6           0        2.012605   -0.015495    0.163739
     44          1           0        2.431585    0.814179    0.744737
     45          6           0        2.383851    0.148725   -1.330145
     46          6           0        2.544986   -1.348306    0.702177
     47          1           0        2.243066   -2.136196   -0.002909
     48          8           0        2.633529   -0.803640   -2.054931
     49          6           0        4.066414   -1.333760    0.821549
     50          1           0        4.531580   -1.164452   -0.154105
     51          1           0        4.422962   -2.298459    1.199497
     52          1           0        4.386744   -0.552183    1.519172
     53          8           0        1.899469   -1.532667    1.965604
     54          1           0        2.200517   -2.378724    2.332322
     55          7           0        2.411114    1.448714   -1.742762
     56          1           0        1.846728    2.074629   -1.177718
     57          6           0        2.589252    1.779051   -3.147256
     58          1           0        1.705222    1.489026   -3.728773
     59          6           0        3.811326    1.031127   -3.695344
     60          6           0        2.876146    3.282599   -3.324520
     61          1           0        2.928118    3.468688   -4.402389
     62          1           0        3.878110    3.481175   -2.923958
     63          8           0        4.878341    0.975986   -3.132053
     64          6           0        1.853458    4.254443   -2.691176
     65          1           0        1.748521    5.133382   -3.339614
     66          1           0        0.858335    3.797256   -2.622300
     67          6           0        2.294765    4.737814   -1.300277
     68          1           0        2.329184    3.927724   -0.572644
     69          1           0        3.306580    5.157180   -1.359458
     70          7           0        1.407438    5.787841   -0.770805
     71          1           0        1.320260    6.619548   -1.342484
     72          7           0        0.629282    4.740093    1.160800
     73          1           0        0.370745    4.838333    2.132665
     74          1           0        0.472827    3.817966    0.721994
     75          7           0        0.463503    7.041486    0.928563
     76          1           0        0.899195    7.893990    0.606951
     77          1           0       -0.253692    7.111918    1.640936
     78          6           0        0.830514    5.840195    0.435772
     79          8           0        3.569954    0.553111   -4.930371
     80          1           0        4.396038    0.133308   -5.239066
     81          1           0       -2.590876    7.205390    0.866555
 ---------------------------------------------------------------------

 SCF Done:  E(RB3LYP) =  -2054.06243065     A.U. after    1 cycles

 Alpha  occ. eigenvalues --  -19.32379 -19.27112 -19.26577 -19.24611 -19.23603
 Alpha  occ. eigenvalues --  -19.21096 -19.21062 -19.19396 -14.52589 -14.52201
 Alpha  occ. eigenvalues --  -14.50656 -14.47965 -14.45358 -14.44708 -14.43824
 Alpha  occ. eigenvalues --  -14.37469 -10.48428 -10.44408 -10.40715 -10.39667
 Alpha  occ. eigenvalues --  -10.37924 -10.36043 -10.36028 -10.33232 -10.32971
 Alpha  occ. eigenvalues --  -10.32868 -10.32744 -10.31108 -10.30883 -10.29777
 Alpha  occ. eigenvalues --  -10.29408 -10.29395 -10.29206 -10.28694 -10.28334
 Alpha  occ. eigenvalues --  -10.26134 -10.25976 -10.25794 -10.25738 -10.25600
 Alpha  occ. eigenvalues --  -10.25522 -10.25383  -1.22953  -1.17990  -1.16757
 Alpha  occ. eigenvalues --   -1.15613  -1.13821  -1.12945  -1.11252  -1.11034
 Alpha  occ. eigenvalues --   -1.09023  -1.06289  -1.05278  -1.04582  -1.03835
 Alpha  occ. eigenvalues --   -1.01965  -1.00724  -0.95554  -0.91706  -0.91137
 Alpha  occ. eigenvalues --   -0.89600  -0.89029  -0.87753  -0.86091  -0.84140
 Alpha  occ. eigenvalues --   -0.80975  -0.80787  -0.79977  -0.79901  -0.78531
 Alpha  occ. eigenvalues --   -0.77595  -0.75358  -0.74294  -0.73213  -0.72459
 Alpha  occ. eigenvalues --   -0.72064  -0.70825  -0.69940  -0.69518  -0.68722
 Alpha  occ. eigenvalues --   -0.67600  -0.66720  -0.66490  -0.66223  -0.65840
 Alpha  occ. eigenvalues --   -0.64979  -0.63954  -0.63183  -0.62127  -0.61568
 Alpha  occ. eigenvalues --   -0.61254  -0.61082  -0.60443  -0.59415  -0.59103
 Alpha  occ. eigenvalues --   -0.58696  -0.58427  -0.57473  -0.56883  -0.56473
 Alpha  occ. eigenvalues --   -0.56118  -0.55777  -0.55443  -0.54849  -0.54758
 Alpha  occ. eigenvalues --   -0.54435  -0.53891  -0.53321  -0.53076  -0.52402
 Alpha  occ. eigenvalues --   -0.52109  -0.51865  -0.51450  -0.51174  -0.51103
 Alpha  occ. eigenvalues --   -0.50327  -0.50193  -0.49944  -0.49484  -0.49091
 Alpha  occ. eigenvalues --   -0.48597  -0.48384  -0.47973  -0.47417  -0.47369
 Alpha  occ. eigenvalues --   -0.46593  -0.46416  -0.46313  -0.46114  -0.45594
 Alpha  occ. eigenvalues --   -0.45248  -0.44915  -0.44897  -0.44699  -0.44599
 Alpha  occ. eigenvalues --   -0.44097  -0.43013  -0.42608  -0.42333  -0.41880
 Alpha  occ. eigenvalues --   -0.40950  -0.40854  -0.40507  -0.39337  -0.39113
 Alpha  occ. eigenvalues --   -0.38568  -0.38357  -0.36252  -0.35573  -0.34797
 Alpha  occ. eigenvalues --   -0.34633  -0.34094  -0.33513  -0.33354  -0.30429
 Alpha  occ. eigenvalues --   -0.29487  -0.27473
 Alpha virt. eigenvalues --   -0.13311  -0.11915  -0.10472  -0.08512  -0.08444
 Alpha virt. eigenvalues --   -0.07741  -0.06512  -0.05798  -0.04943  -0.04629
 Alpha virt. eigenvalues --   -0.04334  -0.02510  -0.02223  -0.01275  -0.00972

 Mulliken charges:
               1
     1  N   -0.714282
     2  H    0.323358
     3  H    0.314773
     4  C   -0.092431
     5  H    0.169945
     6  C    0.589975
     7  C   -0.266614
     8  H    0.183873
     9  H    0.174471
    10  O   -0.518279
    11  C   -0.372007
    12  H    0.179629
    13  H    0.176985
    14  C    0.580812
    15  O   -0.467797
    16  O   -0.568858
    17  N   -0.634699
    18  H    0.366871
    19  C   -0.064185
    20  H    0.195627
    21  C    0.651357
    22  C   -0.371409
    23  H    0.163154
    24  H    0.153995
    25  O   -0.618876
    26  C    0.068061
    27  C    0.030237
    28  H    0.161344
    29  C    0.081549
    30  C    0.318513
    31  C   -0.227807
    32  H    0.121679
    33  N   -0.683778
    34  H    0.341473
    35  C   -0.149391
    36  H    0.143957
    37  C   -0.177844
    38  H    0.143913
    39  C   -0.141544
    40  H    0.127271
    41  N   -0.581000
    42  H    0.367852
    43  C   -0.059900
    44  H    0.172593
    45  C    0.638174
    46  C    0.109470
    47  H    0.162141
    48  O   -0.503891
    49  C   -0.479975
    50  H    0.193873
    51  H    0.158708
    52  H    0.157862
    53  O   -0.645576
    54  H    0.410289
    55  N   -0.653556
    56  H    0.390991
    57  C   -0.008838
    58  H    0.176462
    59  C    0.603365
    60  C   -0.309771
    61  H    0.181473
    62  H    0.179946
    63  O   -0.460801
    64  C   -0.293536
    65  H    0.156961
    66  H    0.174035
    67  C   -0.158911
    68  H    0.191258
    69  H    0.192618
    70  N   -0.599822
    71  H    0.357002
    72  N   -0.778223
    73  H    0.368710
    74  H    0.446992
    75  N   -0.776699
    76  H    0.375148
    77  H    0.384502
    78  C    0.786334
    79  O   -0.561566
    80  H    0.423386
    81  H    0.418894
 Sum of Mulliken charges =   1.00000

 Dipole moment (field-independent basis, Debye):
    X=             -0.0332    Y=             20.8617    Z=             -0.0592  Tot=             20.8619
 Quadrupole moment (field-independent basis, Debye-Ang):
   XX=           -206.7516   YY=            -68.9015   ZZ=           -225.3395
   XY=             17.4724   XZ=              1.2711   YZ=             -1.9075

 Normal termination of Gaussian 16 at Thu May 12 23:07:57 2022.
