 Gaussian 16, Revision C.01,
 Gaussian 16:  ES64L-G16RevC.01  3-Jul-2019

 ----------------------------------------------------------------------
 # B3LYP/6-31G* empiricaldispersion=gd3 guess=read geom=check nosymm in
 tegral(ultrafinegrid)
 ----------------------------------------------------------------------

 ------------------------------------------------------
 Candidate Structure: Conf:584 Charge calc in gas phase
 ------------------------------------------------------
 Structure from the checkpoint file:  "conf-584.chk"
 Charge =  1 Multiplicity = 1

                          Input orientation:
 ---------------------------------------------------------------------
 Center     Atomic      Atomic             Coordinates (Angstroms)
 Number     Number       Type             X           Y           Z
 ---------------------------------------------------------------------
      1          7           0       -3.863857   -0.168073    4.538188
      2          1           0       -4.840527   -0.262600    4.796460
      3          1           0       -3.501350   -1.091992    4.311710
      4          6           0       -3.699489    0.717790    3.389259
      5          1           0       -4.672281    1.002089    2.963019
      6          6           0       -2.894924    0.015019    2.287151
      7          6           0       -2.984561    2.023615    3.824181
      8          1           0       -2.859185    2.682989    2.957689
      9          1           0       -3.655458    2.527653    4.525137
     10          8           0       -2.259405   -1.018850    2.512361
     11          6           0       -1.625251    1.763065    4.511119
     12          1           0       -1.566136    0.712251    4.823825
     13          1           0       -1.508623    2.345434    5.428587
     14          6           0       -0.445226    2.032391    3.616225
     15          8           0       -0.449275    1.987043    2.400132
     16          8           0        0.670276    2.329973    4.323270
     17          7           0       -2.942641    0.574096    1.045908
     18          1           0       -3.285493    1.519784    0.941201
     19          6           0       -2.224500   -0.034254   -0.069563
     20          1           0       -2.308855   -1.114677    0.081497
     21          6           0       -0.725086    0.334965   -0.016635
     22          6           0       -2.864042    0.319512   -1.410952
     23          1           0       -2.772665    1.404181   -1.573158
     24          1           0       -3.937085    0.099164   -1.349252
     25          8           0       -0.217556    1.240167   -0.688057
     26          6           0       -2.252578   -0.426693   -2.567889
     27          6           0       -1.168692   -1.279904   -2.561875
     28          1           0       -0.520545   -1.592201   -1.754722
     29          6           0       -2.664143   -0.306834   -3.947318
     30          6           0       -1.785247   -1.117442   -4.724122
     31          6           0       -3.651686    0.452163   -4.605448
     32          1           0       -4.336270    1.076964   -4.038085
     33          7           0       -0.894846   -1.694972   -3.846663
     34          1           0       -0.158071   -2.341371   -4.086525
     35          6           0       -2.867332   -0.440811   -6.740393
     36          1           0       -2.974004   -0.487564   -7.820065
     37          6           0       -1.880790   -1.198709   -6.117694
     38          1           0       -1.210408   -1.831122   -6.692895
     39          6           0       -3.742947    0.380077   -5.993529
     40          1           0       -4.507968    0.950533   -6.511898
     41          7           0       -0.028571   -0.466557    0.804327
     42          1           0       -0.533418   -1.156452    1.352213
     43          6           0        1.386929   -0.318160    1.021589
     44          1           0        1.585174    0.684080    1.418085
     45          6           0        2.149451   -0.531640   -0.289839
     46          6           0        1.851987   -1.394218    2.041635
     47          1           0        2.954410   -1.359775    2.065087
     48          8           0        1.834557   -1.406842   -1.101477
     49          6           0        1.305973   -1.140776    3.445076
     50          1           0        1.664147   -0.188162    3.848389
     51          1           0        1.636218   -1.945428    4.107531
     52          1           0        0.210883   -1.127922    3.445465
     53          8           0        1.389788   -2.675589    1.644583
     54          1           0        1.599030   -2.798819    0.701555
     55          7           0        3.244206    0.255518   -0.434151
     56          1           0        3.460726    0.917054    0.298285
     57          6           0        4.210582    0.114546   -1.505689
     58          1           0        3.944107   -0.804750   -2.040770
     59          6           0        5.639853   -0.086640   -0.993810
     60          6           0        4.144453    1.312418   -2.472158
     61          1           0        5.029205    1.301419   -3.114681
     62          1           0        4.200798    2.230107   -1.869188
     63          8           0        6.611696   -0.028616   -1.708882
     64          6           0        2.855542    1.305743   -3.309355
     65          1           0        2.986096    0.673395   -4.195310
     66          1           0        2.036504    0.866383   -2.731332
     67          6           0        2.480207    2.726772   -3.749315
     68          1           0        2.172743    3.328428   -2.883995
     69          1           0        3.347078    3.229957   -4.185928
     70          7           0        1.431481    2.768992   -4.779378
     71          1           0        1.663510    3.188909   -5.668662
     72          7           0       -0.327423    2.018890   -3.440731
     73          1           0       -1.109319    1.371175   -3.386363
     74          1           0        0.159900    2.113891   -2.555709
     75          7           0       -0.610427    2.214116   -5.722555
     76          1           0       -0.190160    2.056681   -6.627044
     77          1           0       -1.563047    1.873202   -5.620872
     78          6           0        0.175779    2.319032   -4.631094
     79          8           0        5.693364   -0.350183    0.330691
     80          1           0        6.634842   -0.493392    0.549322
     81          1           0        1.376507    2.510558    3.675868
 ---------------------------------------------------------------------

 SCF Done:  E(RB3LYP) =  -2054.08236991     A.U. after    1 cycles

 Alpha  occ. eigenvalues --  -19.29507 -19.27587 -19.23440 -19.22025 -19.22022
 Alpha  occ. eigenvalues --  -19.22008 -19.21059 -19.21049 -14.51323 -14.50172
 Alpha  occ. eigenvalues --  -14.49169 -14.47706 -14.46766 -14.45422 -14.44149
 Alpha  occ. eigenvalues --  -14.38175 -10.46787 -10.41799 -10.39931 -10.38927
 Alpha  occ. eigenvalues --  -10.37588 -10.37538 -10.35700 -10.34300 -10.32773
 Alpha  occ. eigenvalues --  -10.32544 -10.32121 -10.31944 -10.31274 -10.30468
 Alpha  occ. eigenvalues --  -10.30211 -10.29897 -10.29290 -10.28913 -10.28772
 Alpha  occ. eigenvalues --  -10.28553 -10.28380 -10.28207 -10.28129 -10.26925
 Alpha  occ. eigenvalues --  -10.26813 -10.24903  -1.20239  -1.18424  -1.15365
 Alpha  occ. eigenvalues --   -1.14032  -1.12963  -1.12041  -1.11274  -1.09773
 Alpha  occ. eigenvalues --   -1.09336  -1.07773  -1.04994  -1.03458  -1.02962
 Alpha  occ. eigenvalues --   -1.01906  -1.01069  -0.95980  -0.93850  -0.91659
 Alpha  occ. eigenvalues --   -0.90535  -0.87802  -0.86525  -0.85787  -0.84774
 Alpha  occ. eigenvalues --   -0.83394  -0.81410  -0.81136  -0.79407  -0.79023
 Alpha  occ. eigenvalues --   -0.76917  -0.75430  -0.73283  -0.72298  -0.72001
 Alpha  occ. eigenvalues --   -0.71955  -0.70336  -0.70086  -0.68922  -0.68645
 Alpha  occ. eigenvalues --   -0.68320  -0.67390  -0.67024  -0.66040  -0.64693
 Alpha  occ. eigenvalues --   -0.63820  -0.63531  -0.63297  -0.62905  -0.61826
 Alpha  occ. eigenvalues --   -0.60504  -0.59987  -0.59774  -0.59011  -0.58832
 Alpha  occ. eigenvalues --   -0.58630  -0.57692  -0.57375  -0.57198  -0.56797
 Alpha  occ. eigenvalues --   -0.56608  -0.56021  -0.55897  -0.55289  -0.54687
 Alpha  occ. eigenvalues --   -0.54096  -0.53504  -0.52988  -0.52787  -0.52662
 Alpha  occ. eigenvalues --   -0.52548  -0.52249  -0.51848  -0.51663  -0.50949
 Alpha  occ. eigenvalues --   -0.50892  -0.50409  -0.50201  -0.49590  -0.49272
 Alpha  occ. eigenvalues --   -0.48389  -0.48056  -0.47784  -0.47318  -0.47053
 Alpha  occ. eigenvalues --   -0.46761  -0.46395  -0.46213  -0.46008  -0.45765
 Alpha  occ. eigenvalues --   -0.45362  -0.45097  -0.44839  -0.43963  -0.43906
 Alpha  occ. eigenvalues --   -0.43525  -0.43244  -0.42978  -0.42150  -0.41325
 Alpha  occ. eigenvalues --   -0.41211  -0.41110  -0.39863  -0.39743  -0.38547
 Alpha  occ. eigenvalues --   -0.37572  -0.37065  -0.36028  -0.35859  -0.35165
 Alpha  occ. eigenvalues --   -0.35063  -0.34775  -0.33848  -0.33174  -0.32399
 Alpha  occ. eigenvalues --   -0.30627  -0.30169
 Alpha virt. eigenvalues --   -0.11398  -0.11131  -0.08877  -0.08040  -0.07807
 Alpha virt. eigenvalues --   -0.07475  -0.06851  -0.06643  -0.06279  -0.03372
 Alpha virt. eigenvalues --   -0.03252  -0.02572  -0.01954  -0.01660  -0.01101

 Mulliken charges:
               1
     1  N   -0.733480
     2  H    0.315356
     3  H    0.334121
     4  C   -0.077042
     5  H    0.145108
     6  C    0.629496
     7  C   -0.247293
     8  H    0.141475
     9  H    0.166552
    10  O   -0.543150
    11  C   -0.359482
    12  H    0.222687
    13  H    0.189358
    14  C    0.587211
    15  O   -0.483537
    16  O   -0.558116
    17  N   -0.599845
    18  H    0.340751
    19  C   -0.066781
    20  H    0.190428
    21  C    0.681431
    22  C   -0.356156
    23  H    0.150426
    24  H    0.176566
    25  O   -0.600870
    26  C    0.017942
    27  C    0.011866
    28  H    0.208706
    29  C    0.024668
    30  C    0.324889
    31  C   -0.231690
    32  H    0.146753
    33  N   -0.694805
    34  H    0.346521
    35  C   -0.168045
    36  H    0.151717
    37  C   -0.170875
    38  H    0.147134
    39  C   -0.163188
    40  H    0.151929
    41  N   -0.600943
    42  H    0.388982
    43  C   -0.051324
    44  H    0.151023
    45  C    0.651039
    46  C    0.099758
    47  H    0.139231
    48  O   -0.561564
    49  C   -0.469982
    50  H    0.139218
    51  H    0.182141
    52  H    0.183121
    53  O   -0.623011
    54  H    0.407020
    55  N   -0.593136
    56  H    0.340683
    57  C   -0.074865
    58  H    0.220173
    59  C    0.589805
    60  C   -0.274012
    61  H    0.194917
    62  H    0.146075
    63  O   -0.441631
    64  C   -0.288501
    65  H    0.159875
    66  H    0.184459
    67  C   -0.169484
    68  H    0.186524
    69  H    0.187677
    70  N   -0.605178
    71  H    0.363001
    72  N   -0.783370
    73  H    0.404938
    74  H    0.414158
    75  N   -0.767173
    76  H    0.366527
    77  H    0.390348
    78  C    0.797123
    79  O   -0.567463
    80  H    0.429544
    81  H    0.405543
 Sum of Mulliken charges =   1.00000

 Dipole moment (field-independent basis, Debye):
    X=              1.2784    Y=              8.5916    Z=            -13.4883  Tot=             16.0432
 Quadrupole moment (field-independent basis, Debye-Ang):
   XX=           -188.2695   YY=           -221.4921   ZZ=           -131.5004
   XY=              3.1358   XZ=             -4.2684   YZ=            -19.6545

 Normal termination of Gaussian 16 at Thu May 12 23:07:36 2022.
