 Gaussian 16, Revision C.01,
 Gaussian 16:  ES64L-G16RevC.01  3-Jul-2019

 ----------------------------------------------------------------------
 # B3LYP/6-31G* empiricaldispersion=gd3 guess=read geom=check nosymm in
 tegral(ultrafinegrid)
 ----------------------------------------------------------------------

 ------------------------------------------------------
 Candidate Structure: Conf:662 Charge calc in gas phase
 ------------------------------------------------------
 Structure from the checkpoint file:  "conf-662.chk"
 Charge =  1 Multiplicity = 1

                          Input orientation:
 ---------------------------------------------------------------------
 Center     Atomic      Atomic             Coordinates (Angstroms)
 Number     Number       Type             X           Y           Z
 ---------------------------------------------------------------------
      1          7           0       -3.662263    0.560233    3.106598
      2          1           0       -4.581473    0.350718    2.719736
      3          1           0       -3.210172   -0.339994    3.267068
      4          6           0       -2.869078    1.315879    2.144590
      5          1           0       -3.425362    2.227104    1.885123
      6          6           0       -2.561329    0.517496    0.870232
      7          6           0       -1.527201    1.709896    2.805482
      8          1           0       -1.759201    2.204967    3.751412
      9          1           0       -0.981744    0.793600    3.047423
     10          8           0       -2.143114   -0.651650    0.936386
     11          6           0       -0.635793    2.616501    1.932118
     12          1           0       -1.018724    3.645854    1.951761
     13          1           0       -0.621623    2.304329    0.886004
     14          6           0        0.807159    2.657602    2.386755
     15          8           0        1.778263    2.534822    1.660512
     16          8           0        0.916560    2.868549    3.709007
     17          7           0       -2.690577    1.165456   -0.309389
     18          1           0       -3.142925    2.071222   -0.333412
     19          6           0       -2.273502    0.596973   -1.595697
     20          1           0       -2.568065   -0.456899   -1.598183
     21          6           0       -0.735569    0.721971   -1.615336
     22          6           0       -2.931148    1.351123   -2.764439
     23          1           0       -2.706386    0.790281   -3.681298
     24          1           0       -2.435710    2.322600   -2.867254
     25          8           0       -0.162912    1.692255   -2.139595
     26          6           0       -4.406274    1.529435   -2.578122
     27          6           0       -5.065592    2.725991   -2.419812
     28          1           0       -4.678116    3.735459   -2.462725
     29          6           0       -5.400597    0.491877   -2.458050
     30          6           0       -6.647695    1.134520   -2.230525
     31          6           0       -5.361159   -0.912314   -2.521638
     32          1           0       -4.425678   -1.433536   -2.708503
     33          7           0       -6.409700    2.495480   -2.208842
     34          1           0       -7.116801    3.208902   -2.120446
     35          6           0       -7.766177   -0.966351   -2.130860
     36          1           0       -8.671929   -1.552749   -2.007926
     37          6           0       -7.838629    0.419947   -2.065674
     38          1           0       -8.783516    0.928100   -1.894749
     39          6           0       -6.540224   -1.626974   -2.357453
     40          1           0       -6.523496   -2.711782   -2.406525
     41          7           0       -0.074744   -0.232391   -0.930647
     42          1           0       -0.678502   -0.892781   -0.447859
     43          6           0        1.203474    0.064625   -0.278893
     44          1           0        1.127329    1.045429    0.193458
     45          6           0        2.375127    0.106584   -1.252906
     46          6           0        1.435893   -0.957556    0.873569
     47          1           0        1.304027   -1.969118    0.456616
     48          8           0        2.542471   -0.700624   -2.169984
     49          6           0        2.824646   -0.842153    1.491561
     50          1           0        3.607452   -1.123873    0.780965
     51          1           0        2.876909   -1.515065    2.351046
     52          1           0        3.003525    0.179908    1.839866
     53          8           0        0.512432   -0.714165    1.924057
     54          1           0       -0.398504   -0.943657    1.658087
     55          7           0        3.253012    1.105620   -0.973329
     56          1           0        3.087574    1.706863   -0.168176
     57          6           0        4.594640    1.124909   -1.528848
     58          1           0        4.978407    0.098647   -1.573325
     59          6           0        5.476627    1.922761   -0.575031
     60          6           0        4.675859    1.711007   -2.958704
     61          1           0        4.185031    0.990521   -3.619729
     62          1           0        5.732412    1.726312   -3.243591
     63          8           0        5.063332    2.605042    0.336265
     64          6           0        4.064140    3.119238   -3.115813
     65          1           0        4.135834    3.677442   -2.173693
     66          1           0        4.646775    3.691287   -3.849430
     67          6           0        2.588527    3.134081   -3.548209
     68          1           0        1.960846    2.602720   -2.834083
     69          1           0        2.213503    4.159501   -3.608706
     70          7           0        2.419877    2.525334   -4.885911
     71          1           0        2.862210    3.017991   -5.653306
     72          7           0        1.241353    0.593531   -4.313443
     73          1           0        1.466269   -0.363345   -4.054039
     74          1           0        0.764902    1.109790   -3.565449
     75          7           0        2.563460    0.619925   -6.205487
     76          1           0        3.392764    0.940646   -6.683518
     77          1           0        2.133454   -0.236169   -6.526325
     78          6           0        2.084393    1.247688   -5.113919
     79          8           0        6.776907    1.800000   -0.898559
     80          1           0        7.287791    2.343184   -0.267951
     81          1           0        1.868623    2.873745    3.925637
 ---------------------------------------------------------------------

 SCF Done:  E(RB3LYP) =  -2054.08009844     A.U. after    1 cycles

 Alpha  occ. eigenvalues --  -19.29583 -19.27751 -19.24142 -19.23357 -19.22506
 Alpha  occ. eigenvalues --  -19.22242 -19.21875 -19.21502 -14.51253 -14.51122
 Alpha  occ. eigenvalues --  -14.48145 -14.46925 -14.46123 -14.45419 -14.45402
 Alpha  occ. eigenvalues --  -14.39296 -10.46699 -10.42080 -10.40682 -10.39665
 Alpha  occ. eigenvalues --  -10.38525 -10.38395 -10.34280 -10.33958 -10.33647
 Alpha  occ. eigenvalues --  -10.32878 -10.31703 -10.31202 -10.30123 -10.29818
 Alpha  occ. eigenvalues --  -10.29753 -10.29011 -10.28615 -10.28438 -10.26947
 Alpha  occ. eigenvalues --  -10.26270 -10.25652 -10.25625 -10.25571 -10.25115
 Alpha  occ. eigenvalues --  -10.25109 -10.24779  -1.20619  -1.18844  -1.15348
 Alpha  occ. eigenvalues --   -1.14923  -1.13609  -1.13097  -1.11766  -1.09743
 Alpha  occ. eigenvalues --   -1.09597  -1.05307  -1.04852  -1.03380  -1.02813
 Alpha  occ. eigenvalues --   -1.02331  -1.02256  -0.96990  -0.91118  -0.90844
 Alpha  occ. eigenvalues --   -0.89362  -0.87586  -0.87517  -0.85543  -0.84230
 Alpha  occ. eigenvalues --   -0.80637  -0.80459  -0.79957  -0.79351  -0.78502
 Alpha  occ. eigenvalues --   -0.76587  -0.75031  -0.73168  -0.72633  -0.72209
 Alpha  occ. eigenvalues --   -0.71308  -0.69304  -0.69169  -0.69154  -0.68532
 Alpha  occ. eigenvalues --   -0.67737  -0.66865  -0.66801  -0.66429  -0.64317
 Alpha  occ. eigenvalues --   -0.63951  -0.63534  -0.62865  -0.61464  -0.61255
 Alpha  occ. eigenvalues --   -0.60651  -0.60185  -0.60117  -0.59148  -0.59068
 Alpha  occ. eigenvalues --   -0.57984  -0.57405  -0.57252  -0.57072  -0.56524
 Alpha  occ. eigenvalues --   -0.56136  -0.55768  -0.55394  -0.54774  -0.54536
 Alpha  occ. eigenvalues --   -0.53952  -0.53688  -0.53536  -0.52429  -0.52073
 Alpha  occ. eigenvalues --   -0.51626  -0.51504  -0.51086  -0.50626  -0.50521
 Alpha  occ. eigenvalues --   -0.50151  -0.49915  -0.49536  -0.49363  -0.48849
 Alpha  occ. eigenvalues --   -0.48630  -0.48018  -0.47791  -0.47600  -0.47269
 Alpha  occ. eigenvalues --   -0.47086  -0.46959  -0.46368  -0.46062  -0.45446
 Alpha  occ. eigenvalues --   -0.44998  -0.44901  -0.44652  -0.43765  -0.43220
 Alpha  occ. eigenvalues --   -0.42797  -0.42185  -0.41783  -0.41603  -0.40849
 Alpha  occ. eigenvalues --   -0.40329  -0.40225  -0.39908  -0.39697  -0.38300
 Alpha  occ. eigenvalues --   -0.38032  -0.37608  -0.36493  -0.36326  -0.35502
 Alpha  occ. eigenvalues --   -0.35349  -0.34926  -0.34489  -0.33885  -0.31671
 Alpha  occ. eigenvalues --   -0.29302  -0.27741
 Alpha virt. eigenvalues --   -0.12359  -0.10498  -0.09362  -0.08377  -0.08052
 Alpha virt. eigenvalues --   -0.07702  -0.07436  -0.06827  -0.04449  -0.03368
 Alpha virt. eigenvalues --   -0.01739  -0.01503  -0.01115  -0.00770  -0.00225

 Mulliken charges:
               1
     1  N   -0.689238
     2  H    0.312579
     3  H    0.317629
     4  C   -0.073948
     5  H    0.137993
     6  C    0.615443
     7  C   -0.276505
     8  H    0.191637
     9  H    0.185905
    10  O   -0.575365
    11  C   -0.374976
    12  H    0.183053
    13  H    0.171786
    14  C    0.611585
    15  O   -0.485701
    16  O   -0.542216
    17  N   -0.582458
    18  H    0.344067
    19  C   -0.049335
    20  H    0.191088
    21  C    0.624799
    22  C   -0.393130
    23  H    0.165971
    24  H    0.172028
    25  O   -0.577448
    26  C    0.050741
    27  C   -0.015287
    28  H    0.156852
    29  C    0.092254
    30  C    0.309711
    31  C   -0.209854
    32  H    0.118544
    33  N   -0.685453
    34  H    0.339156
    35  C   -0.149436
    36  H    0.143233
    37  C   -0.159338
    38  H    0.139364
    39  C   -0.138479
    40  H    0.136640
    41  N   -0.597996
    42  H    0.366235
    43  C   -0.087125
    44  H    0.208934
    45  C    0.618220
    46  C    0.110683
    47  H    0.145119
    48  O   -0.569746
    49  C   -0.480503
    50  H    0.151026
    51  H    0.180867
    52  H    0.173562
    53  O   -0.654361
    54  H    0.431529
    55  N   -0.628446
    56  H    0.402000
    57  C   -0.025716
    58  H    0.199556
    59  C    0.581299
    60  C   -0.294327
    61  H    0.157879
    62  H    0.181511
    63  O   -0.452791
    64  C   -0.285092
    65  H    0.183017
    66  H    0.150436
    67  C   -0.190020
    68  H    0.223404
    69  H    0.187193
    70  N   -0.575205
    71  H    0.351854
    72  N   -0.773016
    73  H    0.388260
    74  H    0.429906
    75  N   -0.745557
    76  H    0.373088
    77  H    0.384008
    78  C    0.754271
    79  O   -0.560723
    80  H    0.430039
    81  H    0.422836
 Sum of Mulliken charges =   1.00000

 Dipole moment (field-independent basis, Debye):
    X=              4.6416    Y=              9.4544    Z=            -15.9227  Tot=             19.0909
 Quadrupole moment (field-independent basis, Debye-Ang):
   XX=           -134.9053   YY=           -205.7122   ZZ=           -148.4954
   XY=              5.4779   XZ=            -34.7639   YZ=            -23.4488

 Normal termination of Gaussian 16 at Thu May 12 23:07:40 2022.
