 Gaussian 16, Revision C.01,
 Gaussian 16:  ES64L-G16RevC.01  3-Jul-2019

 ----------------------------------------------------------------------
 # B3LYP/6-31G* empiricaldispersion=gd3bj guess=read geom=check nosymm
 integral(ultrafinegrid)
 ----------------------------------------------------------------------

 ------------------------------------------------------
 Candidate Structure: Conf:961 Charge calc in gas phase
 ------------------------------------------------------
 Structure from the checkpoint file:  "conf-961.chk"
 Charge =  1 Multiplicity = 1

                          Input orientation:
 ---------------------------------------------------------------------
 Center     Atomic      Atomic             Coordinates (Angstroms)
 Number     Number       Type             X           Y           Z
 ---------------------------------------------------------------------
      1          7           0       -6.229539   -5.505349   -5.004063
      2          1           0       -5.550769   -5.819144   -4.305715
      3          1           0       -6.319605   -6.217438   -5.731865
      4          1           0       -7.144562   -5.374602   -4.548421
      5          6           0       -5.855566   -4.169151   -5.563508
      6          1           0       -5.080958   -4.300185   -6.330169
      7          6           0       -5.299505   -3.311032   -4.424760
      8          6           0       -7.101185   -3.525249   -6.182266
      9          1           0       -6.832778   -2.508880   -6.487063
     10          8           0       -5.862793   -2.278755   -4.049863
     11          6           0       -7.647244   -4.292433   -7.367676
     12          1           0       -6.897489   -4.385962   -8.159240
     13          1           0       -7.975241   -5.294101   -7.075935
     14          1           0       -8.516466   -3.769343   -7.770501
     15          8           0       -8.123216   -3.477771   -5.189349
     16          1           0       -7.819877   -2.827244   -4.537451
     17          7           0       -4.198670   -3.812279   -3.815951
     18          1           0       -3.607758   -4.457059   -4.324596
     19          6           0       -3.561360   -3.103188   -2.705599
     20          1           0       -4.374348   -2.568087   -2.213618
     21          6           0       -2.586455   -2.063736   -3.266199
     22          6           0       -2.978923   -4.088747   -1.682484
     23          1           0       -3.865322   -4.613150   -1.296867
     24          8           0       -1.363133   -2.183349   -3.205934
     25          6           0       -2.324887   -3.369134   -0.493012
     26          1           0       -1.363463   -2.957603   -0.814980
     27          1           0       -2.099369   -4.128932    0.262624
     28          6           0       -2.035867   -5.131586   -2.284431
     29          1           0       -1.169144   -4.648177   -2.736319
     30          1           0       -2.530764   -5.749495   -3.040061
     31          1           0       -1.680946   -5.803855   -1.499206
     32          6           0       -3.194049   -2.275972    0.122722
     33          1           0       -2.782847   -1.909621    1.065256
     34          1           0       -4.206966   -2.643391    0.317118
     35          1           0       -3.280345   -1.408191   -0.539844
     36          7           0       -3.183306   -1.010614   -3.868047
     37          1           0       -4.192478   -0.932923   -3.829881
     38          6           0       -2.412807    0.133987   -4.339567
     39          1           0       -1.472322   -0.268379   -4.726299
     40          6           0       -2.103929    1.051897   -3.141116
     41          6           0       -3.179396    0.868415   -5.426609
     42          1           0       -2.587510    1.702227   -5.810177
     43          1           0       -4.113444    1.273213   -5.029673
     44          1           0       -3.401850    0.183422   -6.248720
     45          8           0       -2.737707    2.074206   -2.909845
     46          7           0       -1.094989    0.613784   -2.349566
     47          1           0       -0.667809   -0.293236   -2.508266
     48          6           0       -0.714718    1.333652   -1.151093
     49          1           0       -0.943203    2.389746   -1.310131
     50          6           0        0.780157    1.116014   -0.919411
     51          6           0       -1.491513    0.812110    0.076013
     52          1           0       -1.175878   -0.221645    0.240925
     53          1           0       -2.556834    0.793778   -0.165672
     54          8           0        1.296366    0.025744   -1.110174
     55          6           0       -1.236105    1.625564    1.345300
     56          1           0       -0.225325    2.015111    1.355492
     57          1           0       -1.898948    2.494903    1.399808
     58          6           0       -1.414333    0.811036    2.620482
     59          7           0       -0.811561    1.341968    3.723405
     60          1           0       -0.068376    2.018188    3.623611
     61          1           0       -0.865954    0.800568    4.570923
     62          8           0       -2.081181   -0.212775    2.670970
     63          7           0        1.479583    2.196546   -0.455384
     64          1           0        0.950845    3.001322   -0.155585
     65          6           0        2.757422    2.000833    0.220272
     66          1           0        3.234284    1.151731   -0.262301
     67          6           0        2.532934    1.634950    1.705422
     68          6           0        3.593019    3.280676    0.100669
     69          1           0        3.092577    4.040131    0.714835
     70          1           0        3.509383    3.600756   -0.943564
     71          8           0        1.838094    2.338734    2.460820
     72          6           0        5.026925    3.221452    0.546833
     73          6           0        5.612768    4.404692    1.023060
     74          1           0        5.019034    5.318605    1.016298
     75          6           0        5.834465    2.067468    0.519807
     76          1           0        5.445639    1.148119    0.087735
     77          6           0        6.899762    4.454592    1.509337
     78          1           0        7.343622    5.381238    1.870823
     79          6           0        7.109696    2.060633    1.045550
     80          1           0        7.704199    1.154985    1.061283
     81          8           0        8.862815    3.270932    2.097611
     82          6           0        7.722297    3.261170    1.600108
     83          7           0        3.150367    0.476847    2.078554
     84          1           0        3.779835    0.060587    1.410876
     85          6           0        3.389173    0.097461    3.467422
     86          1           0        2.557561    0.522747    4.036612
     87          6           0        4.728344    0.671159    3.949517
     88          6           0        3.414489   -1.417695    3.583435
     89          1           0        3.580434   -1.715806    4.621356
     90          1           0        2.461428   -1.826371    3.240211
     91          1           0        4.225633   -1.835956    2.983541
     92          8           0        5.741494   -0.019233    3.971894
     93          7           0        4.765428    1.964231    4.352405
     94          1           0        3.986448    2.581022    4.184362
     95          6           0        6.021267    2.447446    4.903050
     96          1           0        6.792275    2.359852    4.128133
     97          6           0        6.497968    1.596586    6.076373
     98          6           0        5.936926    3.897092    5.387513
     99          1           0        6.845541    4.089997    5.963376
    100          1           0        5.095886    3.996920    6.081531
    101          8           0        7.657338    1.437443    6.365802
    102          6           0        5.816217    4.873847    4.234929
    103          1           0        4.979980    4.590076    3.590761
    104          1           0        6.712012    4.789913    3.622264
    105          6           0        5.637776    6.325960    4.652258
    106          1           0        4.709409    6.475770    5.208687
    107          1           0        5.573588    6.978746    3.775173
    108          7           0        6.722607    6.818343    5.531574
    109          1           0        6.610301    6.598445    6.512229
    110          7           0        8.312421    6.762942    3.833464
    111          1           0        9.209132    7.086380    3.502156
    112          1           0        7.573378    6.777946    3.147265
    113          7           0        8.963435    7.113828    6.039372
    114          1           0        9.878678    7.393439    5.716254
    115          1           0        8.699624    7.484568    6.942096
    116          6           0        7.990392    6.918173    5.124569
    117          8           0        5.478277    1.116943    6.825655
    118          1           0        5.889064    0.622013    7.551231
 ---------------------------------------------------------------------

 SCF Done:  E(RB3LYP) =  -2837.76467305     A.U. after    3 cycles

 Alpha  occ. eigenvalues --  -19.27943 -19.26555 -19.23220 -19.20116 -19.17831
 Alpha  occ. eigenvalues --  -19.17155 -19.16697 -19.16347 -19.15338 -19.14950
 Alpha  occ. eigenvalues --  -19.05769 -14.62796 -14.50475 -14.50348 -14.50300
 Alpha  occ. eigenvalues --  -14.49863 -14.44125 -14.41695 -14.41056 -14.40384
 Alpha  occ. eigenvalues --  -14.40291 -14.38665 -10.46454 -10.43462 -10.41065
 Alpha  occ. eigenvalues --  -10.38447 -10.37191 -10.35465 -10.34392 -10.33574
 Alpha  occ. eigenvalues --  -10.33511 -10.33212 -10.32930 -10.32487 -10.32377
 Alpha  occ. eigenvalues --  -10.30870 -10.29735 -10.27962 -10.27925 -10.27845
 Alpha  occ. eigenvalues --  -10.27707 -10.27571 -10.25987 -10.25546 -10.25159
 Alpha  occ. eigenvalues --  -10.24542 -10.24067 -10.23229 -10.23152 -10.22230
 Alpha  occ. eigenvalues --  -10.22165 -10.21929 -10.21589 -10.19032 -10.18761
 Alpha  occ. eigenvalues --  -10.18488 -10.17172 -10.16175  -1.19734  -1.17151
 Alpha  occ. eigenvalues --   -1.15349  -1.15118  -1.14291  -1.12229  -1.09315
 Alpha  occ. eigenvalues --   -1.08633  -1.08217  -1.07626  -1.06810  -1.06475
 Alpha  occ. eigenvalues --   -1.05084  -1.04473  -1.03530  -1.00664  -0.98169
 Alpha  occ. eigenvalues --   -0.97600  -0.97098  -0.96888  -0.96144  -0.93821
 Alpha  occ. eigenvalues --   -0.93678  -0.90223  -0.88304  -0.86665  -0.85534
 Alpha  occ. eigenvalues --   -0.84743  -0.83673  -0.83416  -0.81972  -0.80881
 Alpha  occ. eigenvalues --   -0.79772  -0.79391  -0.77901  -0.77053  -0.76550
 Alpha  occ. eigenvalues --   -0.76324  -0.75045  -0.74060  -0.74056  -0.72914
 Alpha  occ. eigenvalues --   -0.72761  -0.72508  -0.71661  -0.70029  -0.69969
 Alpha  occ. eigenvalues --   -0.69573  -0.69156  -0.67764  -0.67324  -0.66769
 Alpha  occ. eigenvalues --   -0.66627  -0.65442  -0.64677  -0.64259  -0.63765
 Alpha  occ. eigenvalues --   -0.63441  -0.63241  -0.62915  -0.62749  -0.62673
 Alpha  occ. eigenvalues --   -0.62480  -0.61702  -0.61017  -0.60120  -0.59863
 Alpha  occ. eigenvalues --   -0.59018  -0.58588  -0.58161  -0.57866  -0.57169
 Alpha  occ. eigenvalues --   -0.56819  -0.56533  -0.56271  -0.55943  -0.54970
 Alpha  occ. eigenvalues --   -0.54571  -0.53658  -0.53616  -0.53232  -0.53037
 Alpha  occ. eigenvalues --   -0.52921  -0.52644  -0.52336  -0.51915  -0.51816
 Alpha  occ. eigenvalues --   -0.51658  -0.50798  -0.50766  -0.50480  -0.50306
 Alpha  occ. eigenvalues --   -0.50205  -0.49935  -0.49089  -0.48817  -0.48535
 Alpha  occ. eigenvalues --   -0.48281  -0.48065  -0.47580  -0.47416  -0.47063
 Alpha  occ. eigenvalues --   -0.46887  -0.46826  -0.46567  -0.46297  -0.45770
 Alpha  occ. eigenvalues --   -0.45359  -0.45130  -0.45029  -0.44732  -0.44520
 Alpha  occ. eigenvalues --   -0.44419  -0.44269  -0.43730  -0.43645  -0.43306
 Alpha  occ. eigenvalues --   -0.43150  -0.42679  -0.42614  -0.42313  -0.42088
 Alpha  occ. eigenvalues --   -0.41784  -0.41765  -0.41642  -0.41577  -0.41385
 Alpha  occ. eigenvalues --   -0.41213  -0.40861  -0.40754  -0.40362  -0.40178
 Alpha  occ. eigenvalues --   -0.39810  -0.39692  -0.39598  -0.39422  -0.38883
 Alpha  occ. eigenvalues --   -0.38859  -0.38764  -0.38449  -0.38112  -0.36167
 Alpha  occ. eigenvalues --   -0.35198  -0.34812  -0.34589  -0.33904  -0.33150
 Alpha  occ. eigenvalues --   -0.33072  -0.32395  -0.31739  -0.31400  -0.30507
 Alpha  occ. eigenvalues --   -0.29841  -0.29675  -0.29544  -0.29247  -0.28977
 Alpha  occ. eigenvalues --   -0.28526  -0.28319  -0.24762  -0.19633  -0.16271
 Alpha virt. eigenvalues --   -0.15583  -0.11848  -0.11149  -0.08068  -0.06890
 Alpha virt. eigenvalues --   -0.06461  -0.05884  -0.04808  -0.04276  -0.03378
 Alpha virt. eigenvalues --   -0.02663  -0.02592  -0.02509  -0.02264  -0.02072

 Mulliken charges:
               1
     1  N   -0.713862
     2  H    0.415364
     3  H    0.407638
     4  H    0.422479
     5  C   -0.158918
     6  H    0.217167
     7  C    0.624419
     8  C    0.112229
     9  H    0.196837
    10  O   -0.522448
    11  C   -0.469112
    12  H    0.171798
    13  H    0.139437
    14  H    0.218773
    15  O   -0.630298
    16  H    0.436283
    17  N   -0.624657
    18  H    0.343087
    19  C   -0.091408
    20  H    0.204325
    21  C    0.630110
    22  C   -0.070063
    23  H    0.116890
    24  O   -0.525181
    25  C   -0.273761
    26  H    0.183801
    27  H    0.145014
    28  C   -0.475410
    29  H    0.203081
    30  H    0.084606
    31  H    0.173042
    32  C   -0.490587
    33  H    0.221161
    34  H    0.128361
    35  H    0.138494
    36  N   -0.609326
    37  H    0.362778
    38  C   -0.060061
    39  H    0.183348
    40  C    0.619913
    41  C   -0.457816
    42  H    0.181755
    43  H    0.174041
    44  H    0.133602
    45  O   -0.528378
    46  N   -0.622514
    47  H    0.376895
    48  C   -0.051064
    49  H    0.169719
    50  C    0.614352
    51  C   -0.262881
    52  H    0.174762
    53  H    0.166443
    54  O   -0.524732
    55  C   -0.401620
    56  H    0.166225
    57  H    0.177428
    58  C    0.585138
    59  N   -0.759142
    60  H    0.364774
    61  H    0.333332
    62  O   -0.508757
    63  N   -0.594129
    64  H    0.334340
    65  C   -0.067305
    66  H    0.181647
    67  C    0.649936
    68  C   -0.362365
    69  H    0.134013
    70  H    0.156654
    71  O   -0.586466
    72  C    0.136867
    73  C   -0.179637
    74  H    0.067310
    75  C   -0.191817
    76  H    0.082775
    77  C   -0.250175
    78  H    0.020810
    79  C   -0.222627
    80  H    0.115312
    81  O   -0.648182
    82  C    0.435384
    83  N   -0.565861
    84  H    0.351698
    85  C   -0.079865
    86  H    0.166079
    87  C    0.663958
    88  C   -0.446523
    89  H    0.165992
    90  H    0.155216
    91  H    0.176624
    92  O   -0.511856
    93  N   -0.634389
    94  H    0.336172
    95  C    0.004973
    96  H    0.247387
    97  C    0.589045
    98  C   -0.328181
    99  H    0.155783
   100  H    0.139339
   101  O   -0.460981
   102  C   -0.277646
   103  H    0.177357
   104  H    0.212266
   105  C   -0.211705
   106  H    0.186123
   107  H    0.185068
   108  N   -0.568377
   109  H    0.365100
   110  N   -0.697427
   111  H    0.381427
   112  H    0.395360
   113  N   -0.735223
   114  H    0.379132
   115  H    0.376253
   116  C    0.770890
   117  O   -0.573899
   118  H    0.411443
 Sum of Mulliken charges =   1.00000

 Dipole moment (field-independent basis, Debye):
    X=            -13.0972    Y=              0.0292    Z=             -4.8708  Tot=             13.9736
 Quadrupole moment (field-independent basis, Debye-Ang):
   XX=           -170.3376   YY=            -42.7566   ZZ=           -105.4521
   XY=            292.8533   XZ=            240.5434   YZ=            250.0391

 Normal termination of Gaussian 16 at Sun Jul 17 00:19:04 2022.
