 Gaussian 16, Revision C.01,
 Gaussian 16:  ES64L-G16RevC.01  3-Jul-2019

 ----------------------------------------------------------------------
 # B3LYP/6-31G* empiricaldispersion=gd3bj guess=read geom=check nosymm
 integral(ultrafinegrid)
 ----------------------------------------------------------------------

 ------------------------------------------------------
 Candidate Structure: Conf:234 Charge calc in gas phase
 ------------------------------------------------------
 Structure from the checkpoint file:  "conf-234.chk"
 Charge =  1 Multiplicity = 1

                          Input orientation:
 ---------------------------------------------------------------------
 Center     Atomic      Atomic             Coordinates (Angstroms)
 Number     Number       Type             X           Y           Z
 ---------------------------------------------------------------------
      1          7           0       -3.063359   -6.758442   -4.363607
      2          1           0       -3.261448   -7.279197   -3.505488
      3          1           0       -2.746971   -7.407961   -5.102116
      4          1           0       -3.916831   -6.204415   -4.626091
      5          6           0       -2.004051   -5.705708   -4.183642
      6          1           0       -1.365497   -5.989147   -3.344703
      7          6           0       -2.806952   -4.407909   -3.940809
      8          6           0       -1.180765   -5.641428   -5.491269
      9          1           0       -1.792572   -5.136619   -6.254169
     10          8           0       -3.996407   -4.403830   -4.286385
     11          6           0        0.145190   -4.913839   -5.310160
     12          1           0        0.003551   -3.865540   -5.031298
     13          1           0        0.753354   -5.411045   -4.547644
     14          1           0        0.702576   -4.925815   -6.252384
     15          8           0       -1.000992   -7.016760   -5.845549
     16          1           0       -0.558839   -7.073881   -6.707576
     17          7           0       -2.131471   -3.394262   -3.421979
     18          1           0       -1.136802   -3.450830   -3.198909
     19          6           0       -2.645563   -2.035512   -3.275189
     20          1           0       -3.329283   -1.838474   -4.104322
     21          6           0       -1.386206   -1.157051   -3.363727
     22          6           0       -3.392883   -1.868182   -1.918907
     23          1           0       -4.137073   -2.676635   -1.915272
     24          8           0       -0.276299   -1.663852   -3.159414
     25          6           0       -4.165193   -0.540615   -1.807848
     26          1           0       -3.466566    0.303192   -1.766038
     27          1           0       -4.668575   -0.547437   -0.833604
     28          6           0       -2.442649   -2.061057   -0.732525
     29          1           0       -1.689731   -1.266999   -0.689552
     30          1           0       -1.910574   -3.016708   -0.788501
     31          1           0       -2.987809   -2.039900    0.213176
     32          6           0       -5.205781   -0.301480   -2.906771
     33          1           0       -5.805630    0.585820   -2.683308
     34          1           0       -5.887627   -1.154571   -3.000998
     35          1           0       -4.754405   -0.137502   -3.894040
     36          7           0       -1.584518    0.142527   -3.640448
     37          1           0       -2.531769    0.488227   -3.731253
     38          6           0       -0.542739    1.163911   -3.457960
     39          1           0        0.409020    0.630252   -3.455079
     40          6           0       -0.824005    1.806041   -2.087088
     41          6           0       -0.589078    2.200838   -4.575080
     42          1           0        0.241146    2.911196   -4.475998
     43          1           0       -1.530979    2.756553   -4.530582
     44          1           0       -0.509968    1.700302   -5.545124
     45          8           0       -1.788159    2.550923   -1.927702
     46          7           0       -0.002777    1.421924   -1.075093
     47          1           0        0.809275    0.852740   -1.279142
     48          6           0       -0.008061    2.083352    0.220038
     49          1           0       -0.492447    3.052848    0.069711
     50          6           0        1.447814    2.327649    0.626728
     51          6           0       -0.770231    1.286016    1.298337
     52          1           0       -0.534959    1.688179    2.291254
     53          1           0       -0.428209    0.246971    1.295652
     54          8           0        2.378992    1.704920    0.106524
     55          6           0       -2.280672    1.329239    1.071611
     56          1           0       -2.673640    2.332666    1.276689
     57          1           0       -2.505358    1.141640    0.017074
     58          6           0       -3.020894    0.279961    1.891532
     59          7           0       -4.359855    0.514774    2.052233
     60          1           0       -4.754465    1.429297    1.886001
     61          1           0       -4.867565   -0.106698    2.668020
     62          8           0       -2.484276   -0.739000    2.306817
     63          7           0        1.635704    3.235165    1.620013
     64          1           0        0.815784    3.762734    1.896269
     65          6           0        2.904789    3.955922    1.752501
     66          1           0        3.578622    3.469662    1.037973
     67          6           0        3.626715    3.741331    3.080107
     68          6           0        2.746166    5.424123    1.298048
     69          1           0        3.656438    5.953753    1.591688
     70          1           0        1.909752    5.889157    1.838342
     71          8           0        4.562561    4.468926    3.397899
     72          6           0        2.541105    5.417876   -0.195398
     73          6           0        3.653519    5.334973   -1.043304
     74          1           0        4.644322    5.536011   -0.637325
     75          6           0        1.279736    5.200985   -0.768350
     76          1           0        0.386439    5.324214   -0.155314
     77          6           0        3.526762    4.959792   -2.374290
     78          1           0        4.408534    4.899416   -3.005780
     79          6           0        1.135506    4.797037   -2.092050
     80          1           0        0.148474    4.599507   -2.500049
     81          8           0        2.165739    3.958227   -4.077113
     82          6           0        2.270176    4.576665   -2.917217
     83          7           0        3.287568    2.609887    3.764049
     84          1           0        2.606908    2.008672    3.313575
     85          6           0        4.310289    1.919699    4.566477
     86          1           0        4.901908    2.701911    5.046186
     87          6           0        5.165977    1.147687    3.540073
     88          6           0        3.677294    0.996152    5.593610
     89          1           0        4.452493    0.524081    6.203940
     90          1           0        3.007677    1.561570    6.247454
     91          1           0        3.118577    0.196354    5.098852
     92          8           0        4.966719   -0.035618    3.277121
     93          7           0        6.062467    1.910941    2.858099
     94          1           0        6.150741    2.905348    3.047292
     95          6           0        6.707569    1.382280    1.673036
     96          1           0        7.074887    0.376908    1.902939
     97          6           0        7.884937    2.280192    1.346484
     98          6           0        5.730606    1.281530    0.466092
     99          1           0        5.655617    2.253822   -0.037668
    100          1           0        4.741366    1.060764    0.873654
    101          8           0        8.069401    3.380940    1.812026
    102          6           0        6.107575    0.177191   -0.523361
    103          1           0        6.139891   -0.777848    0.015845
    104          1           0        7.115401    0.339868   -0.924668
    105          6           0        5.111552    0.017847   -1.673841
    106          1           0        4.091728   -0.024221   -1.289635
    107          1           0        5.299507   -0.925552   -2.203172
    108          7           0        5.193517    1.120162   -2.639239
    109          1           0        6.101530    1.274631   -3.057415
    110          7           0        2.903809    1.624230   -2.715401
    111          1           0        2.285408    2.318664   -3.162681
    112          1           0        2.830398    1.623347   -1.696863
    113          7           0        4.294318    2.484673   -4.319202
    114          1           0        3.510264    3.221672   -4.450564
    115          1           0        5.204145    2.590862   -4.745244
    116          6           0        4.153161    1.747623   -3.221247
    117          8           0        8.703109    1.722190    0.423167
    118          1           0        9.413088    2.372677    0.260508
 ---------------------------------------------------------------------

 SCF Done:  E(RB3LYP) =  -2837.90032473     A.U. after    1 cycles

 Alpha  occ. eigenvalues --  -19.30700 -19.26541 -19.26484 -19.22199 -19.21665
 Alpha  occ. eigenvalues --  -19.20640 -19.19248 -19.18299 -19.17683 -19.16849
 Alpha  occ. eigenvalues --  -19.12659 -14.59588 -14.49424 -14.46085 -14.45851
 Alpha  occ. eigenvalues --  -14.44880 -14.44096 -14.42751 -14.42270 -14.41989
 Alpha  occ. eigenvalues --  -14.41590 -14.41009 -10.43591 -10.40757 -10.40162
 Alpha  occ. eigenvalues --  -10.40022 -10.39154 -10.38603 -10.38244 -10.36431
 Alpha  occ. eigenvalues --  -10.35953 -10.34798 -10.34150 -10.33761 -10.31513
 Alpha  occ. eigenvalues --  -10.31148 -10.31001 -10.30789 -10.29973 -10.29740
 Alpha  occ. eigenvalues --  -10.28947 -10.28656 -10.26893 -10.26738 -10.26602
 Alpha  occ. eigenvalues --  -10.26032 -10.25988 -10.25965 -10.25389 -10.25284
 Alpha  occ. eigenvalues --  -10.24275 -10.23399 -10.23010 -10.22208 -10.21858
 Alpha  occ. eigenvalues --  -10.21664 -10.20546 -10.20403  -1.19563  -1.17869
 Alpha  occ. eigenvalues --   -1.17315  -1.14240  -1.13362  -1.13323  -1.11202
 Alpha  occ. eigenvalues --   -1.10116  -1.09912  -1.08960  -1.08724  -1.08225
 Alpha  occ. eigenvalues --   -1.06250  -1.02429  -1.01657  -1.00893  -1.00515
 Alpha  occ. eigenvalues --   -0.98637  -0.98541  -0.97720  -0.97333  -0.95494
 Alpha  occ. eigenvalues --   -0.93945  -0.90760  -0.88400  -0.87528  -0.87057
 Alpha  occ. eigenvalues --   -0.85948  -0.84932  -0.84205  -0.82735  -0.82556
 Alpha  occ. eigenvalues --   -0.81014  -0.80267  -0.79922  -0.77446  -0.77138
 Alpha  occ. eigenvalues --   -0.75828  -0.75416  -0.74378  -0.73339  -0.72781
 Alpha  occ. eigenvalues --   -0.71915  -0.71462  -0.71076  -0.70772  -0.70584
 Alpha  occ. eigenvalues --   -0.69518  -0.69206  -0.68392  -0.67655  -0.67118
 Alpha  occ. eigenvalues --   -0.66411  -0.66372  -0.66059  -0.65621  -0.65295
 Alpha  occ. eigenvalues --   -0.64636  -0.64298  -0.63723  -0.63657  -0.63289
 Alpha  occ. eigenvalues --   -0.62111  -0.61011  -0.60450  -0.60338  -0.59858
 Alpha  occ. eigenvalues --   -0.59499  -0.58910  -0.58151  -0.57618  -0.57305
 Alpha  occ. eigenvalues --   -0.56770  -0.56567  -0.56395  -0.56040  -0.55986
 Alpha  occ. eigenvalues --   -0.55421  -0.55132  -0.54999  -0.54649  -0.54237
 Alpha  occ. eigenvalues --   -0.53948  -0.53769  -0.53390  -0.53260  -0.53101
 Alpha  occ. eigenvalues --   -0.52529  -0.52385  -0.52322  -0.51855  -0.51151
 Alpha  occ. eigenvalues --   -0.51032  -0.50884  -0.50722  -0.50530  -0.50224
 Alpha  occ. eigenvalues --   -0.50105  -0.49632  -0.49589  -0.49224  -0.48968
 Alpha  occ. eigenvalues --   -0.48619  -0.48594  -0.48244  -0.48113  -0.47984
 Alpha  occ. eigenvalues --   -0.47406  -0.47108  -0.46566  -0.46385  -0.46165
 Alpha  occ. eigenvalues --   -0.46126  -0.45870  -0.45447  -0.45027  -0.44677
 Alpha  occ. eigenvalues --   -0.44532  -0.44329  -0.44185  -0.43892  -0.43818
 Alpha  occ. eigenvalues --   -0.43429  -0.43253  -0.43106  -0.42967  -0.42697
 Alpha  occ. eigenvalues --   -0.42620  -0.42380  -0.42030  -0.41691  -0.41543
 Alpha  occ. eigenvalues --   -0.41521  -0.41460  -0.41309  -0.41063  -0.40654
 Alpha  occ. eigenvalues --   -0.40613  -0.40490  -0.38454  -0.38434  -0.37770
 Alpha  occ. eigenvalues --   -0.37415  -0.36377  -0.36055  -0.35991  -0.35384
 Alpha  occ. eigenvalues --   -0.34967  -0.34503  -0.34067  -0.34026  -0.33637
 Alpha  occ. eigenvalues --   -0.33358  -0.33310  -0.32421  -0.31916  -0.30913
 Alpha  occ. eigenvalues --   -0.30785  -0.29389  -0.27940  -0.27217  -0.22137
 Alpha virt. eigenvalues --   -0.12476  -0.10250  -0.08393  -0.07705  -0.06383
 Alpha virt. eigenvalues --   -0.05756  -0.05497  -0.05464  -0.05103  -0.04589
 Alpha virt. eigenvalues --   -0.04418  -0.03217  -0.02540  -0.02255  -0.01733

 Mulliken charges:
               1
     1  N   -0.748311
     2  H    0.416575
     3  H    0.429948
     4  H    0.425355
     5  C   -0.124516
     6  H    0.215695
     7  C    0.646005
     8  C    0.126629
     9  H    0.172138
    10  O   -0.540131
    11  C   -0.488242
    12  H    0.194793
    13  H    0.181945
    14  H    0.182663
    15  O   -0.647352
    16  H    0.434056
    17  N   -0.601336
    18  H    0.376574
    19  C   -0.082406
    20  H    0.189986
    21  C    0.636787
    22  C   -0.077573
    23  H    0.148896
    24  O   -0.559452
    25  C   -0.303070
    26  H    0.160960
    27  H    0.163772
    28  C   -0.478305
    29  H    0.164279
    30  H    0.130179
    31  H    0.192638
    32  C   -0.464218
    33  H    0.172080
    34  H    0.160732
    35  H    0.134657
    36  N   -0.597733
    37  H    0.357172
    38  C   -0.080110
    39  H    0.190684
    40  C    0.649121
    41  C   -0.499834
    42  H    0.241422
    43  H    0.164989
    44  H    0.147480
    45  O   -0.546750
    46  N   -0.607812
    47  H    0.351554
    48  C   -0.071129
    49  H    0.193863
    50  C    0.638316
    51  C   -0.266263
    52  H    0.151166
    53  H    0.186998
    54  O   -0.549881
    55  C   -0.382980
    56  H    0.152552
    57  H    0.209429
    58  C    0.600410
    59  N   -0.745929
    60  H    0.342256
    61  H    0.346977
    62  O   -0.510316
    63  N   -0.610929
    64  H    0.340079
    65  C   -0.072155
    66  H    0.217544
    67  C    0.605521
    68  C   -0.373721
    69  H    0.193863
    70  H    0.140238
    71  O   -0.523866
    72  C    0.149193
    73  C   -0.188479
    74  H    0.120164
    75  C   -0.211132
    76  H    0.096953
    77  C   -0.201744
    78  H    0.094908
    79  C   -0.213892
    80  H    0.131713
    81  O   -0.711122
    82  C    0.378158
    83  N   -0.583148
    84  H    0.340536
    85  C   -0.065913
    86  H    0.189838
    87  C    0.614379
    88  C   -0.451678
    89  H    0.169080
    90  H    0.159575
    91  H    0.165626
    92  O   -0.537342
    93  N   -0.628777
    94  H    0.376941
    95  C   -0.015516
    96  H    0.194629
    97  C    0.575625
    98  C   -0.293275
    99  H    0.154033
   100  H    0.194132
   101  O   -0.447358
   102  C   -0.289249
   103  H    0.167336
   104  H    0.158481
   105  C   -0.148156
   106  H    0.188204
   107  H    0.163188
   108  N   -0.601093
   109  H    0.337815
   110  N   -0.835892
   111  H    0.391444
   112  H    0.406711
   113  N   -0.772309
   114  H    0.422796
   115  H    0.330916
   116  C    0.751590
   117  O   -0.572179
   118  H    0.419629
 Sum of Mulliken charges =   1.00000

 Dipole moment (field-independent basis, Debye):
    X=             -5.2081    Y=            -23.2134    Z=            -17.8182  Tot=             29.7233
 Quadrupole moment (field-independent basis, Debye-Ang):
   XX=           -235.5399   YY=           -221.0498   ZZ=           -244.0174
   XY=             42.7707   XZ=             -7.9341   YZ=            128.2800

 Normal termination of Gaussian 16 at Sun Jul 17 00:17:34 2022.
