 Gaussian 16, Revision C.01,
 Gaussian 16:  ES64L-G16RevC.01  3-Jul-2019

 ----------------------------------------------------------------------
 # B3LYP/6-31G* empiricaldispersion=gd3bj guess=read geom=check nosymm
 integral(ultrafinegrid)
 ----------------------------------------------------------------------

 ------------------------------------------------------
 Candidate Structure: Conf:156 Charge calc in gas phase
 ------------------------------------------------------
 Structure from the checkpoint file:  "conf-156.chk"
 Charge =  1 Multiplicity = 1

                          Input orientation:
 ---------------------------------------------------------------------
 Center     Atomic      Atomic             Coordinates (Angstroms)
 Number     Number       Type             X           Y           Z
 ---------------------------------------------------------------------
      1          7           0       -6.435961    0.755417   -6.897188
      2          1           0       -7.409656    1.017532   -6.727299
      3          1           0       -6.329795    0.367059   -7.849616
      4          1           0       -5.822372    1.592429   -6.705961
      5          6           0       -5.911396   -0.260716   -5.924667
      6          1           0       -6.744091   -0.854388   -5.540733
      7          6           0       -5.204394    0.591868   -4.846279
      8          6           0       -4.895769   -1.148042   -6.705103
      9          1           0       -3.986004   -0.554345   -6.848728
     10          8           0       -4.878147    1.742115   -5.175514
     11          6           0       -4.571119   -2.447043   -5.984327
     12          1           0       -4.108949   -2.277796   -5.006499
     13          1           0       -5.479801   -3.044345   -5.830836
     14          1           0       -3.871818   -3.029432   -6.590781
     15          8           0       -5.413578   -1.359204   -8.022617
     16          1           0       -5.889231   -2.206153   -8.043940
     17          7           0       -4.982090   -0.016643   -3.693753
     18          1           0       -5.197785   -1.008492   -3.587462
     19          6           0       -4.063023    0.420527   -2.636106
     20          1           0       -3.459788    1.256275   -2.992998
     21          6           0       -3.188378   -0.825261   -2.404865
     22          6           0       -4.861375    0.821426   -1.368574
     23          1           0       -5.495827   -0.041826   -1.119445
     24          8           0       -3.682457   -1.950355   -2.603807
     25          6           0       -5.795383    2.014495   -1.658300
     26          1           0       -6.395883    2.181261   -0.754924
     27          1           0       -6.508922    1.734666   -2.445503
     28          6           0       -3.929094    1.101391   -0.183397
     29          1           0       -3.159756    1.821826   -0.467382
     30          1           0       -3.412083    0.202170    0.159551
     31          1           0       -4.509415    1.501349    0.655541
     32          6           0       -5.092188    3.318537   -2.051442
     33          1           0       -5.823659    4.129402   -2.142050
     34          1           0       -4.578395    3.227533   -3.012772
     35          1           0       -4.349416    3.617646   -1.306384
     36          7           0       -1.935530   -0.585213   -2.013539
     37          1           0       -1.642226    0.406691   -1.937595
     38          6           0       -1.017198   -1.658514   -1.687241
     39          1           0       -1.556816   -2.591526   -1.874183
     40          6           0       -0.624689   -1.595615   -0.199815
     41          6           0        0.239305   -1.596632   -2.572051
     42          1           0        0.910625   -2.436715   -2.367689
     43          1           0        0.786200   -0.668248   -2.385950
     44          1           0       -0.048509   -1.632213   -3.626847
     45          8           0       -0.823332   -0.603265    0.498803
     46          7           0       -0.012612   -2.711625    0.271778
     47          1           0        0.172571   -3.485699   -0.351864
     48          6           0        0.507397   -2.810045    1.639646
     49          1           0       -0.169306   -2.223793    2.269129
     50          6           0        1.912034   -2.172751    1.681857
     51          6           0        0.533124   -4.266323    2.086797
     52          1           0        1.236168   -4.821393    1.455274
     53          1           0       -0.457726   -4.708321    1.951269
     54          8           0        2.943383   -2.837487    1.638628
     55          6           0        0.951653   -4.419608    3.547933
     56          1           0        1.984220   -4.083442    3.684264
     57          1           0        0.322017   -3.787364    4.190350
     58          6           0        0.780146   -5.862608    4.017990
     59          7           0        1.565620   -6.215799    5.077640
     60          1           0        2.318741   -5.629895    5.404316
     61          1           0        1.519148   -7.169822    5.407108
     62          8           0       -0.026614   -6.631231    3.513389
     63          7           0        1.913898   -0.815950    1.731646
     64          1           0        1.039075   -0.326811    1.556718
     65          6           0        3.159578   -0.106982    1.571941
     66          1           0        3.655095   -0.435974    0.647941
     67          6           0        4.107120   -0.311910    2.761125
     68          6           0        2.916917    1.422366    1.515352
     69          1           0        3.879578    1.884258    1.264789
     70          1           0        2.654312    1.741541    2.532062
     71          8           0        3.710034   -0.380578    3.913708
     72          6           0        1.833897    1.833322    0.556895
     73          6           0        1.993305    1.688073   -0.835582
     74          1           0        2.960924    1.373307   -1.225717
     75          6           0        0.586753    2.286231    1.017138
     76          1           0        0.426662    2.394323    2.091440
     77          6           0        0.941341    1.897429   -1.710551
     78          1           0        1.066166    1.739188   -2.779223
     79          6           0       -0.469674    2.556528    0.148073
     80          1           0       -1.433934    2.858434    0.544299
     81          8           0       -1.403987    2.172437   -2.017681
     82          6           0       -0.384975    2.224081   -1.245710
     83          7           0        5.437254   -0.233749    2.421874
     84          1           0        5.646408   -0.003348    1.457036
     85          6           0        6.391816    0.323636    3.370371
     86          1           0        5.974591    0.145673    4.364049
     87          6           0        6.487312    1.830335    3.080355
     88          6           0        7.769731   -0.327593    3.234190
     89          1           0        8.469896    0.086635    3.967655
     90          1           0        7.685774   -1.405482    3.394849
     91          1           0        8.178077   -0.149478    2.233990
     92          8           0        6.591097    2.248192    1.926422
     93          7           0        6.417878    2.658445    4.155817
     94          1           0        6.452979    2.276655    5.094288
     95          6           0        6.665432    4.083752    4.041643
     96          1           0        7.302242    4.249863    3.166199
     97          6           0        7.412995    4.523403    5.292462
     98          6           0        5.372129    4.919580    3.880510
     99          1           0        5.649755    5.979900    3.862428
    100          1           0        4.745094    4.763737    4.768367
    101          8           0        7.560582    3.836827    6.278680
    102          6           0        4.587296    4.541160    2.622975
    103          1           0        4.357296    3.475048    2.650839
    104          1           0        5.206203    4.690497    1.729687
    105          6           0        3.270190    5.314694    2.500555
    106          1           0        3.431104    6.394316    2.409761
    107          1           0        2.660545    5.166844    3.397694
    108          7           0        2.460179    4.869895    1.364510
    109          1           0        1.966956    3.977581    1.437935
    110          7           0        3.311464    6.366846   -0.204613
    111          1           0        3.184065    6.886145   -1.059897
    112          1           0        4.171157    6.500197    0.304474
    113          7           0        1.503717    5.010545   -0.728889
    114          1           0        1.698118    5.058456   -1.719295
    115          1           0        0.819070    4.292371   -0.458846
    116          6           0        2.439797    5.399216    0.144695
    117          8           0        7.864274    5.787160    5.182835
    118          1           0        8.309536    6.004911    6.024327
 ---------------------------------------------------------------------

 SCF Done:  E(RB3LYP) =  -2837.88387668     A.U. after    2 cycles

 Alpha  occ. eigenvalues --  -19.28860 -19.27900 -19.23929 -19.22341 -19.18644
 Alpha  occ. eigenvalues --  -19.18255 -19.17538 -19.16359 -19.15999 -19.14231
 Alpha  occ. eigenvalues --  -19.11953 -14.57448 -14.49189 -14.47994 -14.46837
 Alpha  occ. eigenvalues --  -14.46538 -14.43539 -14.42164 -14.41068 -14.40727
 Alpha  occ. eigenvalues --  -14.39896 -14.38915 -10.44505 -10.40866 -10.40305
 Alpha  occ. eigenvalues --  -10.38316 -10.37871 -10.35536 -10.35005 -10.34539
 Alpha  occ. eigenvalues --  -10.33419 -10.33265 -10.32721 -10.32076 -10.32036
 Alpha  occ. eigenvalues --  -10.29840 -10.29234 -10.29153 -10.29088 -10.28459
 Alpha  occ. eigenvalues --  -10.28081 -10.28079 -10.27808 -10.27436 -10.25544
 Alpha  occ. eigenvalues --  -10.25159 -10.24365 -10.24250 -10.24059 -10.23854
 Alpha  occ. eigenvalues --  -10.23636 -10.23626 -10.23038 -10.22952 -10.22194
 Alpha  occ. eigenvalues --  -10.21794 -10.21776 -10.20900  -1.18909  -1.17256
 Alpha  occ. eigenvalues --   -1.15602  -1.13188  -1.11250  -1.10794  -1.10102
 Alpha  occ. eigenvalues --   -1.09948  -1.09385  -1.08576  -1.07519  -1.06111
 Alpha  occ. eigenvalues --   -1.03318  -1.02684  -1.01305  -1.00996  -1.00161
 Alpha  occ. eigenvalues --   -0.98366  -0.98245  -0.97682  -0.96933  -0.93505
 Alpha  occ. eigenvalues --   -0.91269  -0.89475  -0.89412  -0.87308  -0.85299
 Alpha  occ. eigenvalues --   -0.84924  -0.83638  -0.83404  -0.82649  -0.81605
 Alpha  occ. eigenvalues --   -0.79556  -0.79079  -0.78432  -0.77241  -0.76490
 Alpha  occ. eigenvalues --   -0.75551  -0.75159  -0.74835  -0.72102  -0.71959
 Alpha  occ. eigenvalues --   -0.71533  -0.70400  -0.70384  -0.70115  -0.69949
 Alpha  occ. eigenvalues --   -0.69091  -0.68667  -0.68532  -0.66923  -0.66466
 Alpha  occ. eigenvalues --   -0.65948  -0.65567  -0.65155  -0.64198  -0.63545
 Alpha  occ. eigenvalues --   -0.63413  -0.62625  -0.62487  -0.62208  -0.61685
 Alpha  occ. eigenvalues --   -0.61541  -0.60963  -0.60431  -0.60198  -0.59936
 Alpha  occ. eigenvalues --   -0.58676  -0.58047  -0.57827  -0.57150  -0.56903
 Alpha  occ. eigenvalues --   -0.56552  -0.56389  -0.56162  -0.55789  -0.55330
 Alpha  occ. eigenvalues --   -0.55060  -0.54698  -0.54242  -0.54050  -0.53722
 Alpha  occ. eigenvalues --   -0.53355  -0.53086  -0.52633  -0.52534  -0.52071
 Alpha  occ. eigenvalues --   -0.51258  -0.51104  -0.50795  -0.50725  -0.50177
 Alpha  occ. eigenvalues --   -0.49924  -0.49644  -0.49380  -0.49295  -0.49187
 Alpha  occ. eigenvalues --   -0.48967  -0.48716  -0.48561  -0.48288  -0.48132
 Alpha  occ. eigenvalues --   -0.48030  -0.47073  -0.46684  -0.46549  -0.46347
 Alpha  occ. eigenvalues --   -0.46104  -0.45993  -0.45907  -0.45765  -0.45345
 Alpha  occ. eigenvalues --   -0.45218  -0.44812  -0.44311  -0.44106  -0.43935
 Alpha  occ. eigenvalues --   -0.43733  -0.43419  -0.43238  -0.42922  -0.42803
 Alpha  occ. eigenvalues --   -0.42792  -0.42507  -0.42300  -0.42275  -0.42069
 Alpha  occ. eigenvalues --   -0.41846  -0.41463  -0.41181  -0.40569  -0.40455
 Alpha  occ. eigenvalues --   -0.40040  -0.39945  -0.39693  -0.39670  -0.39125
 Alpha  occ. eigenvalues --   -0.38897  -0.38641  -0.38115  -0.38105  -0.37479
 Alpha  occ. eigenvalues --   -0.37394  -0.37080  -0.35908  -0.35646  -0.35022
 Alpha  occ. eigenvalues --   -0.33301  -0.32948  -0.32881  -0.32375  -0.31952
 Alpha  occ. eigenvalues --   -0.31189  -0.30721  -0.30469  -0.30294  -0.29947
 Alpha  occ. eigenvalues --   -0.29163  -0.28598  -0.28073  -0.25960  -0.23186
 Alpha virt. eigenvalues --   -0.09894  -0.09068  -0.08439  -0.07223  -0.06008
 Alpha virt. eigenvalues --   -0.05187  -0.04943  -0.04203  -0.04008  -0.03846
 Alpha virt. eigenvalues --   -0.03665  -0.02625  -0.02245  -0.01611  -0.01355

 Mulliken charges:
               1
     1  N   -0.747777
     2  H    0.410341
     3  H    0.421545
     4  H    0.424330
     5  C   -0.143000
     6  H    0.198307
     7  C    0.649219
     8  C    0.127978
     9  H    0.192022
    10  O   -0.538389
    11  C   -0.520664
    12  H    0.221899
    13  H    0.158026
    14  H    0.197404
    15  O   -0.632289
    16  H    0.420467
    17  N   -0.583792
    18  H    0.362300
    19  C   -0.108520
    20  H    0.234149
    21  C    0.611157
    22  C   -0.066605
    23  H    0.126155
    24  O   -0.579497
    25  C   -0.254595
    26  H    0.142693
    27  H    0.106766
    28  C   -0.504695
    29  H    0.202813
    30  H    0.173893
    31  H    0.136456
    32  C   -0.460921
    33  H    0.136235
    34  H    0.169979
    35  H    0.161908
    36  N   -0.614079
    37  H    0.429905
    38  C   -0.088844
    39  H    0.187165
    40  C    0.639944
    41  C   -0.458026
    42  H    0.150472
    43  H    0.181251
    44  H    0.157313
    45  O   -0.530503
    46  N   -0.607229
    47  H    0.338065
    48  C   -0.059907
    49  H    0.177327
    50  C    0.634404
    51  C   -0.275763
    52  H    0.160108
    53  H    0.175017
    54  O   -0.534990
    55  C   -0.385304
    56  H    0.179843
    57  H    0.170658
    58  C    0.603883
    59  N   -0.749487
    60  H    0.338836
    61  H    0.342872
    62  O   -0.509493
    63  N   -0.623955
    64  H    0.383603
    65  C   -0.019470
    66  H    0.148730
    67  C    0.633129
    68  C   -0.403120
    69  H    0.165331
    70  H    0.151513
    71  O   -0.519683
    72  C    0.083136
    73  C   -0.168105
    74  H    0.117077
    75  C   -0.224785
    76  H    0.128346
    77  C   -0.249327
    78  H    0.115187
    79  C   -0.243086
    80  H    0.127296
    81  O   -0.678067
    82  C    0.425964
    83  N   -0.573671
    84  H    0.333216
    85  C   -0.074981
    86  H    0.183399
    87  C    0.623444
    88  C   -0.450995
    89  H    0.156777
    90  H    0.181104
    91  H    0.165604
    92  O   -0.552007
    93  N   -0.603774
    94  H    0.359738
    95  C   -0.040908
    96  H    0.201351
    97  C    0.583914
    98  C   -0.272476
    99  H    0.164409
   100  H    0.157406
   101  O   -0.454045
   102  C   -0.275903
   103  H    0.187571
   104  H    0.153374
   105  C   -0.179038
   106  H    0.167459
   107  H    0.189273
   108  N   -0.596108
   109  H    0.381968
   110  N   -0.763110
   111  H    0.375026
   112  H    0.378390
   113  N   -0.756335
   114  H    0.361848
   115  H    0.387595
   116  C    0.787884
   117  O   -0.563353
   118  H    0.427506
 Sum of Mulliken charges =   1.00000

 Dipole moment (field-independent basis, Debye):
    X=             -5.5001    Y=             15.5857    Z=            -16.2531  Tot=             23.1803
 Quadrupole moment (field-independent basis, Debye-Ang):
   XX=           -137.8799   YY=           -240.0458   ZZ=           -164.5026
   XY=             72.2826   XZ=            173.4680   YZ=             34.2399

 Normal termination of Gaussian 16 at Sun Jul 17 00:18:13 2022.
