 Gaussian 16, Revision C.01,
 Gaussian 16:  ES64L-G16RevC.01  3-Jul-2019

 ----------------------------------------------------------------------
 # B3LYP/6-31G* empiricaldispersion=gd3bj guess=read geom=check nosymm
 integral(ultrafinegrid)
 ----------------------------------------------------------------------

 ------------------------------------------------------
 Candidate Structure: Conf:747 Charge calc in gas phase
 ------------------------------------------------------
 Structure from the checkpoint file:  "conf-747.chk"
 Charge =  1 Multiplicity = 1

                          Input orientation:
 ---------------------------------------------------------------------
 Center     Atomic      Atomic             Coordinates (Angstroms)
 Number     Number       Type             X           Y           Z
 ---------------------------------------------------------------------
      1          7           0       -2.174343    0.364547   -7.505583
      2          1           0       -3.051094    0.402641   -8.030375
      3          1           0       -1.373687    0.493244   -8.145928
      4          1           0       -2.233485    1.069889   -6.731748
      5          6           0       -1.966511   -0.938054   -6.780296
      6          1           0       -2.507523   -1.723499   -7.316500
      7          6           0       -2.568738   -0.678156   -5.382915
      8          6           0       -0.437426   -1.198122   -6.809773
      9          1           0        0.042104   -0.447132   -6.171670
     10          8           0       -2.810065    0.490698   -5.069132
     11          6           0       -0.061972   -2.578367   -6.302178
     12          1           0       -0.264550   -2.664237   -5.231749
     13          1           0       -0.596466   -3.376097   -6.837037
     14          1           0        1.011618   -2.728729   -6.447642
     15          8           0        0.007431   -0.947655   -8.153174
     16          1           0       -0.110124   -1.756309   -8.680299
     17          7           0       -2.840482   -1.760334   -4.646738
     18          1           0       -2.435713   -2.657676   -4.902967
     19          6           0       -3.143834   -1.667511   -3.219766
     20          1           0       -2.985731   -0.626416   -2.936172
     21          6           0       -2.098727   -2.571046   -2.538369
     22          6           0       -4.610995   -2.061914   -2.916547
     23          1           0       -5.214406   -1.408023   -3.561766
     24          8           0       -1.596945   -3.512042   -3.157521
     25          6           0       -5.008343   -1.769938   -1.457939
     26          1           0       -4.442386   -2.425938   -0.784142
     27          1           0       -6.058998   -2.063303   -1.345215
     28          6           0       -4.902506   -3.519355   -3.289618
     29          1           0       -4.321649   -4.214467   -2.673956
     30          1           0       -4.665006   -3.724236   -4.338916
     31          1           0       -5.963464   -3.742938   -3.139934
     32          6           0       -4.856822   -0.307431   -1.023450
     33          1           0       -5.292811   -0.154990   -0.031353
     34          1           0       -5.367751    0.366095   -1.721374
     35          1           0       -3.812162    0.020654   -0.962269
     36          7           0       -1.798112   -2.231106   -1.269167
     37          1           0       -2.225781   -1.401268   -0.866193
     38          6           0       -0.619795   -2.654288   -0.525184
     39          1           0       -0.800463   -3.624665   -0.043225
     40          6           0       -0.453498   -1.589503    0.582538
     41          6           0        0.632127   -2.751749   -1.417232
     42          1           0        1.539597   -2.873849   -0.818603
     43          1           0        0.728932   -1.850000   -2.026124
     44          1           0        0.537332   -3.602442   -2.090866
     45          8           0       -1.221232   -0.631530    0.676306
     46          7           0        0.581084   -1.775017    1.437658
     47          1           0        1.252327   -2.507233    1.249537
     48          6           0        1.010201   -0.718347    2.349390
     49          1           0        0.108768   -0.228593    2.725888
     50          6           0        1.872197    0.270653    1.554760
     51          6           0        1.824275   -1.311442    3.503741
     52          1           0        2.606142   -1.957432    3.086257
     53          1           0        1.175602   -1.931475    4.127436
     54          8           0        2.939322   -0.113369    1.060204
     55          6           0        2.485084   -0.242639    4.374903
     56          1           0        3.297117    0.251682    3.833956
     57          1           0        1.747201    0.523384    4.657452
     58          6           0        3.010793   -0.848066    5.682128
     59          7           0        4.166296   -0.297301    6.134282
     60          1           0        4.755532    0.283685    5.540851
     61          1           0        4.563818   -0.690606    6.977025
     62          8           0        2.389485   -1.724550    6.268599
     63          7           0        1.429174    1.546187    1.457313
     64          1           0        0.478822    1.739721    1.747076
     65          6           0        2.153052    2.569963    0.703595
     66          1           0        2.755222    2.043886   -0.038590
     67          6           0        3.224135    3.288569    1.532873
     68          6           0        1.199896    3.503039   -0.083048
     69          1           0        1.774268    4.394205   -0.351051
     70          1           0        0.379488    3.827480    0.571862
     71          8           0        4.044672    4.003126    0.956275
     72          6           0        0.710815    2.778449   -1.315173
     73          6           0        1.360986    2.932982   -2.549731
     74          1           0        2.078707    3.742526   -2.671162
     75          6           0       -0.225890    1.743171   -1.207096
     76          1           0       -0.783260    1.598701   -0.286603
     77          6           0        1.162576    2.038130   -3.598063
     78          1           0        1.713604    2.152565   -4.528437
     79          6           0       -0.411359    0.827474   -2.237389
     80          1           0       -1.081595   -0.008573   -2.103545
     81          8           0        0.367477   -0.126270   -4.276569
     82          6           0        0.340994    0.886916   -3.439041
     83          7           0        3.264484    3.014274    2.858796
     84          1           0        2.622418    2.315897    3.208610
     85          6           0        4.465684    3.270555    3.659795
     86          1           0        4.878964    4.217566    3.302671
     87          6           0        5.480475    2.144964    3.357126
     88          6           0        4.128855    3.363487    5.140260
     89          1           0        5.034947    3.565930    5.716934
     90          1           0        3.415708    4.174822    5.309550
     91          1           0        3.703919    2.428944    5.517967
     92          8           0        5.720122    1.225211    4.141099
     93          7           0        6.025962    2.214132    2.119363
     94          1           0        5.827600    3.041520    1.564476
     95          6           0        7.065171    1.309981    1.680470
     96          1           0        6.884974    0.336307    2.146498
     97          6           0        8.425146    1.802390    2.187489
     98          6           0        7.053766    1.172842    0.146199
     99          1           0        8.016856    0.769324   -0.180313
    100          1           0        6.976256    2.182005   -0.283456
    101          8           0        8.624771    2.858146    2.736425
    102          6           0        5.914538    0.284046   -0.378585
    103          1           0        5.003793    0.471044    0.196408
    104          1           0        6.172533   -0.772135   -0.237889
    105          6           0        5.680451    0.567541   -1.867325
    106          1           0        6.645889    0.621075   -2.380548
    107          1           0        5.199592    1.546007   -1.984178
    108          7           0        4.893568   -0.435036   -2.615775
    109          1           0        5.381961   -0.911983   -3.360673
    110          7           0        2.817073    0.048464   -1.729982
    111          1           0        1.835180    0.275854   -1.865453
    112          1           0        3.143219   -0.026968   -0.766903
    113          7           0        2.967414   -0.720849   -3.913454
    114          1           0        1.918096   -0.589196   -4.074071
    115          1           0        3.544108   -0.693498   -4.743688
    116          6           0        3.545039   -0.363314   -2.763107
    117          8           0        9.390073    0.889994    1.932457
    118          1           0       10.223993    1.258051    2.281604
 ---------------------------------------------------------------------

 SCF Done:  E(RB3LYP) =  -2837.92501176     A.U. after    2 cycles

 Alpha  occ. eigenvalues --  -19.27523 -19.26613 -19.23733 -19.22546 -19.22071
 Alpha  occ. eigenvalues --  -19.20897 -19.20653 -19.20075 -19.19990 -19.16043
 Alpha  occ. eigenvalues --  -19.15069 -14.57070 -14.47306 -14.47114 -14.46627
 Alpha  occ. eigenvalues --  -14.46105 -14.45227 -14.45172 -14.44710 -14.44525
 Alpha  occ. eigenvalues --  -14.43481 -14.39802 -10.42580 -10.40847 -10.39294
 Alpha  occ. eigenvalues --  -10.38847 -10.38830 -10.37671 -10.37610 -10.37232
 Alpha  occ. eigenvalues --  -10.36675 -10.35079 -10.34000 -10.33035 -10.32895
 Alpha  occ. eigenvalues --  -10.32613 -10.32132 -10.31782 -10.31578 -10.31197
 Alpha  occ. eigenvalues --  -10.28846 -10.28033 -10.27951 -10.27477 -10.27233
 Alpha  occ. eigenvalues --  -10.27222 -10.27035 -10.26599 -10.26524 -10.25590
 Alpha  occ. eigenvalues --  -10.25124 -10.24858 -10.24790 -10.24736 -10.24646
 Alpha  occ. eigenvalues --  -10.24606 -10.23456 -10.23303  -1.17481  -1.16642
 Alpha  occ. eigenvalues --   -1.14727  -1.14630  -1.13885  -1.12460  -1.12289
 Alpha  occ. eigenvalues --   -1.11377  -1.11195  -1.10751  -1.08601  -1.07896
 Alpha  occ. eigenvalues --   -1.03541  -1.03464  -1.03140  -1.02681  -1.01516
 Alpha  occ. eigenvalues --   -1.01164  -1.00638  -1.00252  -0.98745  -0.94885
 Alpha  occ. eigenvalues --   -0.90888  -0.90833  -0.89221  -0.89005  -0.88629
 Alpha  occ. eigenvalues --   -0.86413  -0.85591  -0.84753  -0.83077  -0.83050
 Alpha  occ. eigenvalues --   -0.81051  -0.80441  -0.80027  -0.78746  -0.78295
 Alpha  occ. eigenvalues --   -0.77148  -0.75342  -0.74353  -0.73544  -0.73178
 Alpha  occ. eigenvalues --   -0.72568  -0.71657  -0.71573  -0.71074  -0.69884
 Alpha  occ. eigenvalues --   -0.69755  -0.69305  -0.68774  -0.68617  -0.68454
 Alpha  occ. eigenvalues --   -0.67779  -0.66910  -0.66458  -0.65984  -0.65614
 Alpha  occ. eigenvalues --   -0.65491  -0.64533  -0.64284  -0.63607  -0.62893
 Alpha  occ. eigenvalues --   -0.62480  -0.62016  -0.61244  -0.60438  -0.60005
 Alpha  occ. eigenvalues --   -0.59615  -0.59192  -0.59036  -0.58577  -0.58031
 Alpha  occ. eigenvalues --   -0.57793  -0.57563  -0.56983  -0.56720  -0.56644
 Alpha  occ. eigenvalues --   -0.55869  -0.55721  -0.55339  -0.55250  -0.54877
 Alpha  occ. eigenvalues --   -0.54617  -0.54345  -0.54172  -0.54067  -0.53363
 Alpha  occ. eigenvalues --   -0.53239  -0.52516  -0.52215  -0.52054  -0.51824
 Alpha  occ. eigenvalues --   -0.51790  -0.51068  -0.50787  -0.50710  -0.50475
 Alpha  occ. eigenvalues --   -0.50297  -0.49971  -0.49787  -0.49303  -0.49276
 Alpha  occ. eigenvalues --   -0.49088  -0.48947  -0.48360  -0.48334  -0.48048
 Alpha  occ. eigenvalues --   -0.47941  -0.47532  -0.47512  -0.47421  -0.46847
 Alpha  occ. eigenvalues --   -0.46724  -0.46627  -0.46376  -0.46179  -0.46007
 Alpha  occ. eigenvalues --   -0.45745  -0.45569  -0.45323  -0.45071  -0.44705
 Alpha  occ. eigenvalues --   -0.44602  -0.44162  -0.43958  -0.43780  -0.43595
 Alpha  occ. eigenvalues --   -0.43471  -0.43205  -0.43066  -0.42877  -0.42695
 Alpha  occ. eigenvalues --   -0.42466  -0.41360  -0.41177  -0.40960  -0.40763
 Alpha  occ. eigenvalues --   -0.40492  -0.40148  -0.39895  -0.38706  -0.38259
 Alpha  occ. eigenvalues --   -0.37964  -0.37851  -0.37415  -0.36616  -0.36486
 Alpha  occ. eigenvalues --   -0.36255  -0.35915  -0.35879  -0.34992  -0.34755
 Alpha  occ. eigenvalues --   -0.34408  -0.33667  -0.33501  -0.33164  -0.32250
 Alpha  occ. eigenvalues --   -0.31437  -0.30906  -0.29989  -0.29408  -0.25337
 Alpha virt. eigenvalues --   -0.09639  -0.09464  -0.08365  -0.08208  -0.07899
 Alpha virt. eigenvalues --   -0.07715  -0.06648  -0.06075  -0.06050  -0.05305
 Alpha virt. eigenvalues --   -0.04174  -0.03896  -0.03400  -0.02847  -0.02363

 Mulliken charges:
               1
     1  N   -0.743741
     2  H    0.406666
     3  H    0.420020
     4  H    0.428879
     5  C   -0.150741
     6  H    0.188220
     7  C    0.684866
     8  C    0.110316
     9  H    0.232779
    10  O   -0.535894
    11  C   -0.514201
    12  H    0.221920
    13  H    0.140599
    14  H    0.176893
    15  O   -0.638540
    16  H    0.406693
    17  N   -0.603596
    18  H    0.365904
    19  C   -0.100986
    20  H    0.205263
    21  C    0.661280
    22  C   -0.070017
    23  H    0.142563
    24  O   -0.557533
    25  C   -0.272982
    26  H    0.146577
    27  H    0.154192
    28  C   -0.464218
    29  H    0.166443
    30  H    0.138888
    31  H    0.161841
    32  C   -0.470894
    33  H    0.165239
    34  H    0.157181
    35  H    0.152344
    36  N   -0.646112
    37  H    0.388220
    38  C   -0.019459
    39  H    0.190423
    40  C    0.626079
    41  C   -0.485796
    42  H    0.139177
    43  H    0.180057
    44  H    0.206630
    45  O   -0.538968
    46  N   -0.605044
    47  H    0.347019
    48  C   -0.054723
    49  H    0.177175
    50  C    0.630083
    51  C   -0.278638
    52  H    0.158309
    53  H    0.204251
    54  O   -0.560696
    55  C   -0.413087
    56  H    0.166824
    57  H    0.160749
    58  C    0.598006
    59  N   -0.785433
    60  H    0.400399
    61  H    0.341208
    62  O   -0.506743
    63  N   -0.623464
    64  H    0.358066
    65  C   -0.028321
    66  H    0.193266
    67  C    0.624540
    68  C   -0.388152
    69  H    0.191065
    70  H    0.150935
    71  O   -0.546920
    72  C    0.142565
    73  C   -0.182184
    74  H    0.126441
    75  C   -0.202963
    76  H    0.130905
    77  C   -0.201305
    78  H    0.100969
    79  C   -0.199847
    80  H    0.091922
    81  O   -0.729417
    82  C    0.343407
    83  N   -0.598908
    84  H    0.346371
    85  C   -0.077027
    86  H    0.199438
    87  C    0.646767
    88  C   -0.469940
    89  H    0.183969
    90  H    0.167917
    91  H    0.164808
    92  O   -0.542968
    93  N   -0.596534
    94  H    0.373445
    95  C   -0.047644
    96  H    0.203376
    97  C    0.589025
    98  C   -0.306110
    99  H    0.179653
   100  H    0.156782
   101  O   -0.447041
   102  C   -0.288419
   103  H    0.194401
   104  H    0.158737
   105  C   -0.166183
   106  H    0.167458
   107  H    0.186204
   108  N   -0.604426
   109  H    0.344098
   110  N   -0.810223
   111  H    0.397813
   112  H    0.426315
   113  N   -0.796416
   114  H    0.434678
   115  H    0.335487
   116  C    0.756255
   117  O   -0.567846
   118  H    0.423041
 Sum of Mulliken charges =   1.00000

 Dipole moment (field-independent basis, Debye):
    X=              4.1919    Y=             -2.0745    Z=            -22.4595  Tot=             22.9414
 Quadrupole moment (field-independent basis, Debye-Ang):
   XX=           -234.9366   YY=           -338.9412   ZZ=           -164.8659
   XY=              3.1930   XZ=             30.3329   YZ=             34.4993

 Normal termination of Gaussian 16 at Sun Jul 17 00:19:04 2022.
