 Gaussian 16, Revision C.01,
 Gaussian 16:  ES64L-G16RevC.01  3-Jul-2019

 ----------------------------------------------------------------------
 # B3LYP/6-31G* empiricaldispersion=gd3bj guess=read geom=check nosymm
 integral(ultrafinegrid)
 ----------------------------------------------------------------------

 ------------------------------------------------------
 Candidate Structure: Conf:549 Charge calc in gas phase
 ------------------------------------------------------
 Structure from the checkpoint file:  "conf-549.chk"
 Charge =  1 Multiplicity = 1

                          Input orientation:
 ---------------------------------------------------------------------
 Center     Atomic      Atomic             Coordinates (Angstroms)
 Number     Number       Type             X           Y           Z
 ---------------------------------------------------------------------
      1          7           0       -8.163154   -4.140662   -4.106912
      2          1           0       -8.106791   -4.261686   -3.094852
      3          1           0       -8.510427   -4.997511   -4.541854
      4          1           0       -8.802900   -3.371275   -4.317817
      5          6           0       -6.843734   -3.812065   -4.684482
      6          1           0       -6.082654   -4.492896   -4.290057
      7          6           0       -6.505422   -2.373055   -4.336356
      8          6           0       -6.908734   -3.989775   -6.200514
      9          1           0       -7.636453   -3.264296   -6.586385
     10          8           0       -7.316738   -1.472509   -4.539086
     11          6           0       -5.574143   -3.823798   -6.892767
     12          1           0       -5.167816   -2.823267   -6.731849
     13          1           0       -4.867256   -4.561400   -6.505178
     14          1           0       -5.688609   -3.980978   -7.966730
     15          8           0       -7.402352   -5.319465   -6.405693
     16          1           0       -7.500617   -5.458204   -7.350577
     17          7           0       -5.273272   -2.145120   -3.832669
     18          1           0       -4.661305   -2.908074   -3.583797
     19          6           0       -4.861989   -0.824715   -3.393693
     20          1           0       -5.237347   -0.112428   -4.129246
     21          6           0       -3.336470   -0.816271   -3.382429
     22          6           0       -5.465334   -0.442656   -2.016500
     23          1           0       -6.544821   -0.449241   -2.180454
     24          8           0       -2.690624   -1.778416   -2.988525
     25          6           0       -5.058837    0.964925   -1.570071
     26          1           0       -3.969135    1.017434   -1.493099
     27          1           0       -5.441713    1.107188   -0.551709
     28          6           0       -5.126896   -1.452840   -0.923613
     29          1           0       -4.054060   -1.447295   -0.730189
     30          1           0       -5.405988   -2.467250   -1.206531
     31          1           0       -5.642615   -1.197512    0.004221
     32          6           0       -5.585660    2.092279   -2.444152
     33          1           0       -5.237762    3.057187   -2.069241
     34          1           0       -6.678848    2.102812   -2.453199
     35          1           0       -5.247007    2.009319   -3.481979
     36          7           0       -2.745880    0.319599   -3.848567
     37          1           0       -3.312282    1.151138   -3.892927
     38          6           0       -1.323177    0.541472   -3.638186
     39          1           0       -0.830408   -0.414248   -3.824736
     40          6           0       -1.073405    0.971735   -2.186530
     41          6           0       -0.814071    1.620157   -4.584526
     42          1           0        0.270114    1.719941   -4.490934
     43          1           0       -1.269524    2.577722   -4.328612
     44          1           0       -1.057991    1.367024   -5.617089
     45          8           0       -1.739631    1.881487   -1.667218
     46          7           0       -0.080160    0.303414   -1.552368
     47          1           0        0.597188   -0.225621   -2.082380
     48          6           0        0.393435    0.701392   -0.245487
     49          1           0        0.066076    1.728641   -0.062303
     50          6           0        1.920741    0.619131   -0.303567
     51          6           0       -0.162134   -0.188976    0.864999
     52          1           0        0.132443    0.238071    1.822425
     53          1           0        0.279945   -1.181910    0.811593
     54          8           0        2.493451   -0.026390   -1.165448
     55          6           0       -1.682789   -0.302228    0.796954
     56          1           0       -2.133062    0.679431    0.647331
     57          1           0       -1.974312   -0.910014   -0.064364
     58          6           0       -2.265444   -0.964046    2.035117
     59          7           0       -3.625910   -0.864450    2.157755
     60          1           0       -4.175108   -0.271311    1.563254
     61          1           0       -4.040711   -1.231182    2.994817
     62          8           0       -1.596316   -1.580995    2.841917
     63          7           0        2.583820    1.264252    0.678711
     64          1           0        2.119870    1.762451    1.422721
     65          6           0        4.026658    1.210126    0.756341
     66          1           0        4.351617    0.187129    0.548864
     67          6           0        4.397401    1.598501    2.184892
     68          6           0        4.690394    2.121022   -0.298039
     69          1           0        4.344067    3.146191   -0.156413
     70          1           0        4.338662    1.769790   -1.268106
     71          8           0        3.621635    2.239405    2.888685
     72          6           0        6.176092    2.045241   -0.191907
     73          6           0        6.905379    3.084408    0.398323
     74          1           0        6.398002    4.020617    0.607179
     75          6           0        6.832434    0.850467   -0.520491
     76          1           0        6.253073    0.059247   -0.999166
     77          6           0        8.211256    2.925331    0.746376
     78          1           0        8.783535    3.709694    1.236394
     79          6           0        8.141228    0.638003   -0.186899
     80          1           0        8.641313   -0.299284   -0.394848
     81          8           0       10.064368    1.488069    0.876552
     82          6           0        8.898447    1.663105    0.517481
     83          7           0        5.610510    1.191924    2.627504
     84          1           0        6.336614    0.967585    1.944787
     85          6           0        6.057224    1.541804    3.969457
     86          1           0        5.147371    1.606108    4.570923
     87          6           0        6.722656    2.915690    3.928400
     88          6           0        6.997500    0.481679    4.516355
     89          1           0        7.310541    0.743768    5.528879
     90          1           0        6.491431   -0.485291    4.534343
     91          1           0        7.892359    0.409360    3.894148
     92          8           0        7.937369    3.073524    3.954501
     93          7           0        5.871539    3.974718    3.820911
     94          1           0        4.903731    3.779453    3.600172
     95          6           0        6.431979    5.245140    3.404132
     96          1           0        7.012272    5.089839    2.487063
     97          6           0        7.437055    5.779472    4.400817
     98          6           0        5.350762    6.288685    3.111653
     99          1           0        4.717568    5.881106    2.316120
    100          1           0        5.856319    7.160727    2.697689
    101          8           0        8.390825    6.451358    4.090592
    102          6           0        4.510308    6.679296    4.316512
    103          1           0        5.146917    7.126896    5.081247
    104          1           0        4.072856    5.784753    4.767276
    105          6           0        3.375328    7.643624    3.986505
    106          1           0        2.773510    7.799541    4.883369
    107          1           0        2.706768    7.211868    3.236171
    108          7           0        3.821626    8.981005    3.550354
    109          1           0        4.330719    9.512366    4.242429
    110          7           0        3.841389    8.526695    1.246478
    111          1           0        3.692902    8.904547    0.323654
    112          1           0        3.383975    7.648086    1.433117
    113          7           0        4.540957   10.605927    2.071664
    114          1           0        4.537551   10.954022    1.124097
    115          1           0        4.360785   11.308946    2.777190
    116          6           0        4.033895    9.365976    2.285937
    117          8           0        7.131965    5.478913    5.678791
    118          1           0        7.830103    5.864711    6.220971
 ---------------------------------------------------------------------

 SCF Done:  E(RB3LYP) =  -2837.75292253     A.U. after    3 cycles

 Alpha  occ. eigenvalues --  -19.28995 -19.24539 -19.23532 -19.21144 -19.18286
 Alpha  occ. eigenvalues --  -19.17492 -19.16629 -19.16466 -19.15992 -19.14289
 Alpha  occ. eigenvalues --  -19.03586 -14.61890 -14.51540 -14.51522 -14.51253
 Alpha  occ. eigenvalues --  -14.48523 -14.44796 -14.42040 -14.40689 -14.40024
 Alpha  occ. eigenvalues --  -14.39132 -14.39073 -10.46915 -10.41892 -10.40333
 Alpha  occ. eigenvalues --  -10.38818 -10.38005 -10.35806 -10.35310 -10.35121
 Alpha  occ. eigenvalues --  -10.33722 -10.33337 -10.33181 -10.32786 -10.30956
 Alpha  occ. eigenvalues --  -10.30737 -10.30265 -10.28499 -10.28463 -10.28314
 Alpha  occ. eigenvalues --  -10.28310 -10.27594 -10.26068 -10.26029 -10.25985
 Alpha  occ. eigenvalues --  -10.25701 -10.25640 -10.25489 -10.24422 -10.24052
 Alpha  occ. eigenvalues --  -10.20477 -10.19655 -10.19206 -10.16808 -10.16642
 Alpha  occ. eigenvalues --  -10.16123 -10.14396 -10.14237  -1.19119  -1.16496
 Alpha  occ. eigenvalues --   -1.16042  -1.15242  -1.14823  -1.13403  -1.09965
 Alpha  occ. eigenvalues --   -1.09188  -1.08573  -1.08255  -1.06381  -1.05523
 Alpha  occ. eigenvalues --   -1.05482  -1.04868  -1.04643  -1.01419  -0.98864
 Alpha  occ. eigenvalues --   -0.96996  -0.96566  -0.95918  -0.95524  -0.94433
 Alpha  occ. eigenvalues --   -0.94060  -0.90647  -0.90042  -0.86463  -0.85703
 Alpha  occ. eigenvalues --   -0.84641  -0.84259  -0.83632  -0.82471  -0.80616
 Alpha  occ. eigenvalues --   -0.80510  -0.79325  -0.78551  -0.77700  -0.77104
 Alpha  occ. eigenvalues --   -0.76075  -0.75812  -0.73641  -0.72875  -0.72817
 Alpha  occ. eigenvalues --   -0.72429  -0.72354  -0.71466  -0.71310  -0.70529
 Alpha  occ. eigenvalues --   -0.69807  -0.69052  -0.68329  -0.67630  -0.67164
 Alpha  occ. eigenvalues --   -0.66234  -0.65432  -0.65256  -0.64889  -0.64814
 Alpha  occ. eigenvalues --   -0.64098  -0.63877  -0.63337  -0.62976  -0.62351
 Alpha  occ. eigenvalues --   -0.61819  -0.61292  -0.60682  -0.59611  -0.59423
 Alpha  occ. eigenvalues --   -0.58800  -0.58587  -0.58054  -0.58014  -0.57585
 Alpha  occ. eigenvalues --   -0.57108  -0.56460  -0.56099  -0.55805  -0.55450
 Alpha  occ. eigenvalues --   -0.54762  -0.54607  -0.54063  -0.53937  -0.53545
 Alpha  occ. eigenvalues --   -0.53357  -0.53136  -0.52389  -0.52056  -0.51765
 Alpha  occ. eigenvalues --   -0.51486  -0.51086  -0.50961  -0.50849  -0.50582
 Alpha  occ. eigenvalues --   -0.50389  -0.50186  -0.50002  -0.49664  -0.49483
 Alpha  occ. eigenvalues --   -0.49202  -0.48683  -0.48362  -0.48054  -0.47863
 Alpha  occ. eigenvalues --   -0.47502  -0.47429  -0.46486  -0.46386  -0.46179
 Alpha  occ. eigenvalues --   -0.45782  -0.45644  -0.45282  -0.45080  -0.44662
 Alpha  occ. eigenvalues --   -0.44467  -0.44405  -0.44191  -0.44047  -0.43746
 Alpha  occ. eigenvalues --   -0.43461  -0.42999  -0.42775  -0.42615  -0.42502
 Alpha  occ. eigenvalues --   -0.42373  -0.42209  -0.41948  -0.41659  -0.41482
 Alpha  occ. eigenvalues --   -0.41291  -0.40948  -0.40578  -0.40442  -0.40101
 Alpha  occ. eigenvalues --   -0.39909  -0.39786  -0.39633  -0.39020  -0.38828
 Alpha  occ. eigenvalues --   -0.38042  -0.37849  -0.37322  -0.36163  -0.35555
 Alpha  occ. eigenvalues --   -0.35497  -0.34653  -0.34545  -0.32621  -0.32334
 Alpha  occ. eigenvalues --   -0.31889  -0.31875  -0.31823  -0.31724  -0.31399
 Alpha  occ. eigenvalues --   -0.30535  -0.30071  -0.29697  -0.29552  -0.28884
 Alpha  occ. eigenvalues --   -0.27572  -0.26781  -0.23351  -0.17139  -0.13953
 Alpha virt. eigenvalues --   -0.13305  -0.12788  -0.10496  -0.08158  -0.07506
 Alpha virt. eigenvalues --   -0.06542  -0.05176  -0.05074  -0.04853  -0.03408
 Alpha virt. eigenvalues --   -0.03306  -0.02866  -0.02696  -0.02587  -0.02498

 Mulliken charges:
               1
     1  N   -0.703146
     2  H    0.407713
     3  H    0.425479
     4  H    0.419423
     5  C   -0.145596
     6  H    0.208987
     7  C    0.616775
     8  C    0.126669
     9  H    0.168582
    10  O   -0.529947
    11  C   -0.474967
    12  H    0.187439
    13  H    0.181466
    14  H    0.181894
    15  O   -0.646846
    16  H    0.427749
    17  N   -0.609630
    18  H    0.354845
    19  C   -0.046010
    20  H    0.184026
    21  C    0.612721
    22  C   -0.084129
    23  H    0.144599
    24  O   -0.532410
    25  C   -0.303380
    26  H    0.190586
    27  H    0.135797
    28  C   -0.464079
    29  H    0.190856
    30  H    0.112595
    31  H    0.148535
    32  C   -0.456060
    33  H    0.171479
    34  H    0.156827
    35  H    0.128742
    36  N   -0.590982
    37  H    0.347842
    38  C   -0.062363
    39  H    0.182672
    40  C    0.626062
    41  C   -0.469916
    42  H    0.180156
    43  H    0.168755
    44  H    0.167917
    45  O   -0.557131
    46  N   -0.586287
    47  H    0.358782
    48  C   -0.076877
    49  H    0.169837
    50  C    0.626654
    51  C   -0.246549
    52  H    0.162226
    53  H    0.175798
    54  O   -0.535928
    55  C   -0.400501
    56  H    0.168713
    57  H    0.190705
    58  C    0.593761
    59  N   -0.759288
    60  H    0.331419
    61  H    0.340661
    62  O   -0.494230
    63  N   -0.626526
    64  H    0.339774
    65  C   -0.028417
    66  H    0.190217
    67  C    0.607240
    68  C   -0.337808
    69  H    0.100881
    70  H    0.165153
    71  O   -0.582808
    72  C    0.089967
    73  C   -0.183861
    74  H    0.050432
    75  C   -0.202569
    76  H    0.101546
    77  C   -0.215121
    78  H    0.113427
    79  C   -0.226614
    80  H    0.104827
    81  O   -0.594111
    82  C    0.404300
    83  N   -0.587189
    84  H    0.386513
    85  C   -0.079335
    86  H    0.170337
    87  C    0.649072
    88  C   -0.455034
    89  H    0.159334
    90  H    0.149453
    91  H    0.203434
    92  O   -0.498325
    93  N   -0.636545
    94  H    0.350643
    95  C   -0.013222
    96  H    0.217533
    97  C    0.607470
    98  C   -0.338960
    99  H    0.139550
   100  H    0.169877
   101  O   -0.469010
   102  C   -0.263549
   103  H    0.168839
   104  H    0.191082
   105  C   -0.195452
   106  H    0.200449
   107  H    0.169619
   108  N   -0.571472
   109  H    0.366989
   110  N   -0.719861
   111  H    0.373470
   112  H    0.381381
   113  N   -0.729624
   114  H    0.371830
   115  H    0.374113
   116  C    0.735412
   117  O   -0.561930
   118  H    0.413691
 Sum of Mulliken charges =   1.00000

 Dipole moment (field-independent basis, Debye):
    X=            -41.8819    Y=             16.6963    Z=            -11.9462  Tot=             46.6430
 Quadrupole moment (field-independent basis, Debye-Ang):
   XX=           -321.8813   YY=             57.6889   ZZ=           -203.7118
   XY=            198.3953   XZ=            142.4663   YZ=            157.1434

 Normal termination of Gaussian 16 at Sun Jul 17 00:19:04 2022.
