 Gaussian 16, Revision C.01,
 Gaussian 16:  ES64L-G16RevC.01  3-Jul-2019

 ----------------------------------------------------------------------
 # B3LYP/6-31G* empiricaldispersion=gd3bj guess=read geom=check nosymm
 integral(ultrafinegrid)
 ----------------------------------------------------------------------

 ------------------------------------------------------
 Candidate Structure: Conf:771 Charge calc in gas phase
 ------------------------------------------------------
 Structure from the checkpoint file:  "conf-771.chk"
 Charge =  1 Multiplicity = 1

                          Input orientation:
 ---------------------------------------------------------------------
 Center     Atomic      Atomic             Coordinates (Angstroms)
 Number     Number       Type             X           Y           Z
 ---------------------------------------------------------------------
      1          7           0       -6.433226    3.496080   -5.678107
      2          1           0       -7.423797    3.240109   -5.687683
      3          1           0       -6.186597    3.984958   -6.554589
      4          1           0       -6.239519    4.061653   -4.815973
      5          6           0       -5.517125    2.310357   -5.536244
      6          1           0       -6.019520    1.427926   -5.936992
      7          6           0       -5.235656    2.234386   -4.019704
      8          6           0       -4.236100    2.618785   -6.346573
      9          1           0       -3.655588    3.369421   -5.788888
     10          8           0       -5.416383    3.265999   -3.361726
     11          6           0       -3.390258    1.379274   -6.602251
     12          1           0       -3.010974    0.937943   -5.675300
     13          1           0       -3.968643    0.627604   -7.149438
     14          1           0       -2.521777    1.649320   -7.212139
     15          8           0       -4.738367    3.196814   -7.557284
     16          1           0       -3.994543    3.477947   -8.113532
     17          7           0       -4.795462    1.065749   -3.565745
     18          1           0       -4.522036    0.331950   -4.220760
     19          6           0       -4.166890    0.872516   -2.259392
     20          1           0       -3.837873    1.851309   -1.896222
     21          6           0       -2.943638   -0.020605   -2.555572
     22          6           0       -5.122230    0.237896   -1.217316
     23          1           0       -4.530943    0.132794   -0.296806
     24          8           0       -2.794636   -0.519691   -3.680291
     25          6           0       -5.578259   -1.167008   -1.649465
     26          1           0       -4.700333   -1.765570   -1.922576
     27          1           0       -6.186718   -1.079209   -2.560509
     28          6           0       -6.295357    1.178865   -0.921687
     29          1           0       -6.962351    1.256663   -1.788189
     30          1           0       -5.948332    2.187044   -0.675507
     31          1           0       -6.886129    0.809314   -0.079795
     32          6           0       -6.368930   -1.915510   -0.573310
     33          1           0       -6.599102   -2.933498   -0.902858
     34          1           0       -7.317954   -1.421540   -0.342716
     35          1           0       -5.793454   -1.988935    0.356886
     36          7           0       -2.118308   -0.226694   -1.527720
     37          1           0       -2.273140    0.178570   -0.606894
     38          6           0       -0.957886   -1.101118   -1.587259
     39          1           0       -1.222737   -1.994989   -2.161502
     40          6           0       -0.640144   -1.449614   -0.128420
     41          6           0        0.248909   -0.393617   -2.229404
     42          1           0        1.098306   -1.078562   -2.319569
     43          1           0        0.551614    0.461127   -1.615748
     44          1           0       -0.024323   -0.055126   -3.232232
     45          8           0       -1.101830   -0.758635    0.786550
     46          7           0        0.212463   -2.471775    0.076412
     47          1           0        0.617050   -2.943718   -0.722618
     48          6           0        0.834207   -2.720891    1.386735
     49          1           0        0.100158   -2.397757    2.130948
     50          6           0        2.098075   -1.828744    1.499612
     51          6           0        1.145016   -4.203844    1.545664
     52          1           0        1.929811   -4.487481    0.834727
     53          1           0        0.251945   -4.786517    1.303874
     54          8           0        3.225973   -2.301237    1.603624
     55          6           0        1.596459   -4.570970    2.958676
     56          1           0        2.568652   -4.120450    3.175902
     57          1           0        0.883412   -4.175222    3.696410
     58          6           0        1.632068   -6.088726    3.135444
     59          7           0        2.508803   -6.535881    4.080265
     60          1           0        3.195549   -5.931352    4.504449
     61          1           0        2.592837   -7.533282    4.218885
     62          8           0        0.900818   -6.841723    2.507042
     63          7           0        1.839743   -0.500093    1.419788
     64          1           0        0.882601   -0.186167    1.288563
     65          6           0        2.876373    0.494247    1.191949
     66          1           0        3.569660    0.503115    2.039992
     67          6           0        2.181049    1.846038    1.042876
     68          6           0        3.681404    0.217897   -0.116080
     69          1           0        2.953513   -0.082933   -0.875896
     70          1           0        4.332820   -0.638010    0.075277
     71          8           0        1.187600    1.970680    0.317945
     72          6           0        4.453156    1.418762   -0.602901
     73          6           0        3.922691    2.241632   -1.606160
     74          1           0        2.965823    1.981847   -2.051513
     75          6           0        5.675509    1.792348   -0.033396
     76          1           0        6.115720    1.171099    0.744150
     77          6           0        4.585012    3.387291   -2.033214
     78          1           0        4.175088    4.015795   -2.818035
     79          6           0        6.352110    2.938808   -0.446510
     80          1           0        7.307516    3.201866   -0.005442
     81          8           0        6.428475    4.860938   -1.927793
     82          6           0        5.813685    3.750187   -1.461261
     83          7           0        2.770860    2.859141    1.700350
     84          1           0        3.580791    2.696612    2.289759
     85          6           0        2.482573    4.259387    1.461918
     86          1           0        2.550114    4.453322    0.383225
     87          6           0        3.577940    5.042189    2.204306
     88          6           0        1.090982    4.666218    1.974090
     89          1           0        0.891627    5.722490    1.764378
     90          1           0        0.336339    4.054250    1.476732
     91          1           0        1.027525    4.506204    3.054886
     92          8           0        4.251091    4.514682    3.087835
     93          7           0        3.703221    6.337740    1.839421
     94          1           0        3.142133    6.698358    1.081223
     95          6           0        4.600480    7.270029    2.514991
     96          1           0        4.299559    7.347653    3.568796
     97          6           0        4.451011    8.673003    1.938739
     98          6           0        6.086663    6.851634    2.483779
     99          1           0        6.211603    6.012487    3.171330
    100          1           0        6.660623    7.699809    2.871686
    101          8           0        5.138651    9.609714    2.264913
    102          6           0        6.562580    6.451275    1.090849
    103          1           0        6.329085    7.230574    0.353204
    104          1           0        6.031008    5.549481    0.773098
    105          6           0        8.064659    6.168383    1.040721
    106          1           0        8.330082    5.476009    1.858959
    107          1           0        8.615035    7.105816    1.225292
    108          7           0        8.399179    5.596790   -0.253671
    109          1           0        7.157815    5.152661   -1.291850
    110          7           0       10.729646    5.565633    0.221775
    111          1           0       11.499889    4.913447    0.150363
    112          1           0       10.557300    5.884647    1.164600
    113          7           0        9.883325    4.568882   -1.699919
    114          1           0       10.718114    4.854499   -2.198595
    115          1           0        9.072282    4.495423   -2.304578
    116          6           0        9.615250    5.276253   -0.538306
    117          8           0        3.456749    8.778705    1.019131
    118          1           0        3.455374    9.708334    0.722269
 ---------------------------------------------------------------------

 SCF Done:  E(RB3LYP) =  -2837.89856244     A.U. after    1 cycles

 Alpha  occ. eigenvalues --  -19.30253 -19.26836 -19.26361 -19.21852 -19.20354
 Alpha  occ. eigenvalues --  -19.20330 -19.18055 -19.17875 -19.17094 -19.17015
 Alpha  occ. eigenvalues --  -19.14933 -14.59373 -14.49093 -14.45213 -14.44528
 Alpha  occ. eigenvalues --  -14.42347 -14.41376 -14.41133 -14.40779 -14.40124
 Alpha  occ. eigenvalues --  -14.39634 -14.35894 -10.43351 -10.40427 -10.39660
 Alpha  occ. eigenvalues --  -10.38748 -10.38745 -10.37247 -10.34883 -10.34873
 Alpha  occ. eigenvalues --  -10.34053 -10.34002 -10.33848 -10.32802 -10.32060
 Alpha  occ. eigenvalues --  -10.30290 -10.30279 -10.29577 -10.29203 -10.28827
 Alpha  occ. eigenvalues --  -10.28487 -10.27790 -10.26557 -10.26344 -10.25909
 Alpha  occ. eigenvalues --  -10.25570 -10.24770 -10.24001 -10.23859 -10.23682
 Alpha  occ. eigenvalues --  -10.23582 -10.23478 -10.22829 -10.22642 -10.22585
 Alpha  occ. eigenvalues --  -10.22526 -10.21830 -10.21771  -1.19293  -1.17498
 Alpha  occ. eigenvalues --   -1.17449  -1.13888  -1.13103  -1.12311  -1.10068
 Alpha  occ. eigenvalues --   -1.09067  -1.08400  -1.08293  -1.06828  -1.06640
 Alpha  occ. eigenvalues --   -1.05943  -1.03982  -1.02069  -1.00796  -0.99141
 Alpha  occ. eigenvalues --   -0.97988  -0.97470  -0.94223  -0.93553  -0.93542
 Alpha  occ. eigenvalues --   -0.92764  -0.90594  -0.88784  -0.86881  -0.85848
 Alpha  occ. eigenvalues --   -0.85356  -0.84505  -0.83622  -0.82328  -0.81674
 Alpha  occ. eigenvalues --   -0.79775  -0.79616  -0.78345  -0.78054  -0.77210
 Alpha  occ. eigenvalues --   -0.76061  -0.74178  -0.74040  -0.73499  -0.72386
 Alpha  occ. eigenvalues --   -0.71899  -0.71564  -0.71228  -0.70335  -0.68601
 Alpha  occ. eigenvalues --   -0.68441  -0.67903  -0.67241  -0.66259  -0.65655
 Alpha  occ. eigenvalues --   -0.65592  -0.65479  -0.64757  -0.64429  -0.63631
 Alpha  occ. eigenvalues --   -0.63176  -0.62953  -0.62864  -0.61904  -0.61597
 Alpha  occ. eigenvalues --   -0.61129  -0.60407  -0.59610  -0.59150  -0.59001
 Alpha  occ. eigenvalues --   -0.58900  -0.58002  -0.57795  -0.57154  -0.56731
 Alpha  occ. eigenvalues --   -0.56561  -0.55907  -0.55308  -0.54931  -0.54744
 Alpha  occ. eigenvalues --   -0.54419  -0.54260  -0.54152  -0.54048  -0.53586
 Alpha  occ. eigenvalues --   -0.53151  -0.52703  -0.52425  -0.52127  -0.52050
 Alpha  occ. eigenvalues --   -0.51921  -0.51552  -0.51336  -0.51328  -0.51002
 Alpha  occ. eigenvalues --   -0.50567  -0.49959  -0.49792  -0.49666  -0.49493
 Alpha  occ. eigenvalues --   -0.49360  -0.48991  -0.48645  -0.48428  -0.48089
 Alpha  occ. eigenvalues --   -0.47784  -0.47693  -0.47355  -0.47226  -0.46789
 Alpha  occ. eigenvalues --   -0.46589  -0.46414  -0.46130  -0.45976  -0.45766
 Alpha  occ. eigenvalues --   -0.45471  -0.45274  -0.44939  -0.44733  -0.44480
 Alpha  occ. eigenvalues --   -0.44121  -0.44033  -0.43430  -0.43144  -0.42929
 Alpha  occ. eigenvalues --   -0.42854  -0.42736  -0.42644  -0.42491  -0.42243
 Alpha  occ. eigenvalues --   -0.41796  -0.41484  -0.41347  -0.41032  -0.40806
 Alpha  occ. eigenvalues --   -0.40701  -0.40555  -0.40156  -0.39660  -0.39602
 Alpha  occ. eigenvalues --   -0.39075  -0.38698  -0.38571  -0.38435  -0.38243
 Alpha  occ. eigenvalues --   -0.36897  -0.36077  -0.35582  -0.35416  -0.34581
 Alpha  occ. eigenvalues --   -0.34168  -0.34068  -0.33121  -0.32049  -0.31775
 Alpha  occ. eigenvalues --   -0.31230  -0.31163  -0.30651  -0.30638  -0.30242
 Alpha  occ. eigenvalues --   -0.29998  -0.28797  -0.28748  -0.28565  -0.24525
 Alpha virt. eigenvalues --   -0.12430  -0.09914  -0.07623  -0.06676  -0.05896
 Alpha virt. eigenvalues --   -0.05729  -0.04251  -0.04187  -0.03955  -0.03235
 Alpha virt. eigenvalues --   -0.02696  -0.02285  -0.01802  -0.01616  -0.01162

 Mulliken charges:
               1
     1  N   -0.747346
     2  H    0.415936
     3  H    0.430511
     4  H    0.424355
     5  C   -0.126490
     6  H    0.215069
     7  C    0.640142
     8  C    0.127374
     9  H    0.171151
    10  O   -0.534376
    11  C   -0.499359
    12  H    0.209081
    13  H    0.179098
    14  H    0.180160
    15  O   -0.649680
    16  H    0.433850
    17  N   -0.584270
    18  H    0.371946
    19  C   -0.093259
    20  H    0.195633
    21  C    0.639740
    22  C   -0.078472
    23  H    0.151017
    24  O   -0.563464
    25  C   -0.272016
    26  H    0.155152
    27  H    0.127741
    28  C   -0.453946
    29  H    0.133669
    30  H    0.163468
    31  H    0.172499
    32  C   -0.453538
    33  H    0.161927
    34  H    0.155510
    35  H    0.158568
    36  N   -0.608501
    37  H    0.373700
    38  C   -0.046617
    39  H    0.182272
    40  C    0.626247
    41  C   -0.480496
    42  H    0.155577
    43  H    0.215365
    44  H    0.171939
    45  O   -0.549162
    46  N   -0.600556
    47  H    0.343155
    48  C   -0.083612
    49  H    0.192401
    50  C    0.632961
    51  C   -0.266643
    52  H    0.157308
    53  H    0.178658
    54  O   -0.527675
    55  C   -0.384202
    56  H    0.180383
    57  H    0.168151
    58  C    0.604094
    59  N   -0.748339
    60  H    0.339288
    61  H    0.345252
    62  O   -0.509211
    63  N   -0.652164
    64  H    0.379158
    65  C    0.012302
    66  H    0.159295
    67  C    0.606711
    68  C   -0.372130
    69  H    0.141495
    70  H    0.188215
    71  O   -0.566995
    72  C    0.149819
    73  C   -0.185276
    74  H    0.121664
    75  C   -0.198106
    76  H    0.126276
    77  C   -0.174930
    78  H    0.122355
    79  C   -0.199579
    80  H    0.137613
    81  O   -0.718155
    82  C    0.347658
    83  N   -0.605511
    84  H    0.361438
    85  C   -0.025728
    86  H    0.174816
    87  C    0.625805
    88  C   -0.452043
    89  H    0.141343
    90  H    0.189798
    91  H    0.165625
    92  O   -0.534920
    93  N   -0.639766
    94  H    0.360576
    95  C   -0.028003
    96  H    0.199564
    97  C    0.591642
    98  C   -0.288183
    99  H    0.181419
   100  H    0.167857
   101  O   -0.449101
   102  C   -0.289154
   103  H    0.145173
   104  H    0.168094
   105  C   -0.146259
   106  H    0.133848
   107  H    0.140851
   108  N   -0.563217
   109  H    0.466069
   110  N   -0.761192
   111  H    0.343365
   112  H    0.350664
   113  N   -0.760424
   114  H    0.333818
   115  H    0.349484
   116  C    0.673413
   117  O   -0.589301
   118  H    0.423801
 Sum of Mulliken charges =   1.00000

 Dipole moment (field-independent basis, Debye):
    X=            -12.1010    Y=             15.6854    Z=            -19.7523  Tot=             27.9753
 Quadrupole moment (field-independent basis, Debye-Ang):
   XX=            -93.8433   YY=           -271.2186   ZZ=           -191.3681
   XY=            -27.0709   XZ=            133.6830   YZ=            -75.8910

 Normal termination of Gaussian 16 at Sun Jul 17 00:17:34 2022.
