 Gaussian 16, Revision C.01,
 Gaussian 16:  ES64L-G16RevC.01  3-Jul-2019

 ----------------------------------------------------------------------
 # B3LYP/6-31G* empiricaldispersion=gd3bj guess=read geom=check nosymm
 integral(ultrafinegrid)
 ----------------------------------------------------------------------

 ------------------------------------------------------
 Candidate Structure: Conf:497 Charge calc in gas phase
 ------------------------------------------------------
 Structure from the checkpoint file:  "conf-497.chk"
 Charge =  1 Multiplicity = 1

                          Input orientation:
 ---------------------------------------------------------------------
 Center     Atomic      Atomic             Coordinates (Angstroms)
 Number     Number       Type             X           Y           Z
 ---------------------------------------------------------------------
      1          7           0       -0.240951   -3.584926   -2.867888
      2          1           0       -0.878539   -3.778067   -3.680641
      3          1           0        0.128015   -4.431805   -2.435781
      4          1           0        0.527007   -2.957016   -3.190023
      5          6           0       -1.064240   -2.711709   -1.962616
      6          1           0       -1.496883   -3.325791   -1.168373
      7          6           0       -2.186183   -2.215360   -2.910503
      8          6           0       -0.100720   -1.631031   -1.395015
      9          1           0       -0.686381   -0.769088   -1.073586
     10          8           0       -2.310794   -2.780602   -4.003502
     11          6           0        0.717470   -2.167298   -0.224615
     12          1           0        0.069248   -2.433766    0.618487
     13          1           0        1.296869   -3.055504   -0.505323
     14          1           0        1.438330   -1.414779    0.101065
     15          8           0        0.774589   -1.271547   -2.455264
     16          1           0        0.560246   -0.355361   -2.723056
     17          7           0       -2.973691   -1.231659   -2.464529
     18          1           0       -2.696919   -0.727299   -1.620285
     19          6           0       -3.715189   -0.416453   -3.424032
     20          1           0       -4.249349   -1.084717   -4.108355
     21          6           0       -2.639188    0.347264   -4.251038
     22          6           0       -4.742200    0.430407   -2.615848
     23          1           0       -4.181848    0.895377   -1.797122
     24          8           0       -1.438441    0.170981   -4.023167
     25          6           0       -5.782547   -0.522651   -1.984882
     26          1           0       -5.285290   -1.450167   -1.681670
     27          1           0       -6.519873   -0.801714   -2.750728
     28          6           0       -5.441813    1.547256   -3.401358
     29          1           0       -5.909988    1.165893   -4.319949
     30          1           0       -4.775997    2.377874   -3.651186
     31          1           0       -6.250219    1.966432   -2.796469
     32          6           0       -6.485855    0.076076   -0.764337
     33          1           0       -7.205108   -0.634000   -0.343597
     34          1           0       -7.036119    0.991272   -1.007688
     35          1           0       -5.756699    0.320461    0.017216
     36          7           0       -3.067691    1.187874   -5.219378
     37          1           0       -4.059088    1.362200   -5.301792
     38          6           0       -2.180984    2.199445   -5.826250
     39          1           0       -1.260534    1.687894   -6.119043
     40          6           0       -1.888301    3.233765   -4.710448
     41          6           0       -2.859514    2.837437   -7.027375
     42          1           0       -2.175603    3.538497   -7.513200
     43          1           0       -3.739296    3.404764   -6.709685
     44          1           0       -3.152482    2.074741   -7.754701
     45          8           0       -2.607142    4.205467   -4.514952
     46          7           0       -0.826448    2.888765   -3.923335
     47          1           0       -0.518765    1.924012   -4.031009
     48          6           0       -0.731360    3.351404   -2.541080
     49          1           0       -0.602718    4.438096   -2.532997
     50          6           0        0.492874    2.659549   -1.950043
     51          6           0       -2.008759    2.965172   -1.747591
     52          1           0       -2.312088    1.977723   -2.095722
     53          1           0       -2.788421    3.669810   -2.039392
     54          8           0        0.660202    1.440865   -2.068428
     55          6           0       -1.872259    2.889497   -0.218609
     56          1           0       -1.061380    3.513593    0.171545
     57          1           0       -2.793730    3.258956    0.247895
     58          6           0       -1.713239    1.453859    0.277103
     59          7           0       -0.932994    1.286615    1.358018
     60          1           0       -0.257933    1.993469    1.650205
     61          1           0       -0.806004    0.344826    1.701752
     62          8           0       -2.325527    0.507061   -0.241875
     63          7           0        1.366518    3.434600   -1.274852
     64          1           0        1.156579    4.412047   -1.126648
     65          6           0        2.498220    2.853322   -0.574330
     66          1           0        2.874573    2.039693   -1.198550
     67          6           0        2.080715    2.294817    0.793986
     68          6           0        3.616289    3.908010   -0.359630
     69          1           0        3.150572    4.829357    0.009776
     70          1           0        4.068388    4.130398   -1.332294
     71          8           0        1.383568    2.959590    1.571152
     72          6           0        4.630876    3.423213    0.649158
     73          6           0        4.522820    3.821530    1.985451
     74          1           0        3.792309    4.577237    2.259861
     75          6           0        5.580879    2.444739    0.326009
     76          1           0        5.693174    2.124164   -0.707579
     77          6           0        5.304809    3.238290    2.977954
     78          1           0        5.218067    3.565331    4.009447
     79          6           0        6.359004    1.839885    1.309920
     80          1           0        7.072568    1.061228    1.060694
     81          8           0        6.917621    1.568672    3.610410
     82          6           0        6.205796    2.213944    2.652177
     83          7           0        2.594201    1.084710    1.074257
     84          1           0        3.108647    0.591797    0.351024
     85          6           0        2.882915    0.577053    2.411609
     86          1           0        3.335708    1.383705    2.997612
     87          6           0        3.895242   -0.552373    2.186049
     88          6           0        1.661101    0.027065    3.159564
     89          1           0        1.974771   -0.420581    4.107523
     90          1           0        0.956060    0.834569    3.369019
     91          1           0        1.172655   -0.753017    2.567736
     92          8           0        3.894437   -1.188980    1.129618
     93          7           0        4.730486   -0.831428    3.205368
     94          1           0        4.826114   -0.188838    3.987319
     95          6           0        5.656725   -1.940388    3.067310
     96          1           0        6.154206   -1.865600    2.095261
     97          6           0        4.883809   -3.258518    3.080339
     98          6           0        6.715598   -1.916987    4.180787
     99          1           0        7.140691   -0.908148    4.166010
    100          1           0        7.518979   -2.605654    3.904070
    101          8           0        3.751744   -3.415990    3.473292
    102          6           0        6.162764   -2.282417    5.570749
    103          1           0        6.187518   -3.370131    5.706205
    104          1           0        5.107718   -1.994496    5.652486
    105          6           0        6.931357   -1.613655    6.716203
    106          1           0        7.997895   -1.854714    6.675691
    107          1           0        6.562640   -1.975643    7.679898
    108          7           0        6.828737   -0.144075    6.678739
    109          1           0        7.415893    0.279054    5.969312
    110          7           0        4.752531    0.018555    7.698926
    111          1           0        3.873827    0.503784    7.814353
    112          1           0        5.191373   -0.265416    8.565266
    113          7           0        5.268385    1.310462    5.768024
    114          1           0        4.413837    1.822845    5.983308
    115          1           0        6.396619    1.639226    4.461307
    116          6           0        5.582393    0.450470    6.692678
    117          8           0        5.667025   -4.265670    2.633916
    118          1           0        5.138195   -5.082549    2.703615
 ---------------------------------------------------------------------

 SCF Done:  E(RB3LYP) =  -2837.94739111     A.U. after    1 cycles

 Alpha  occ. eigenvalues --  -19.26893 -19.24242 -19.23187 -19.21796 -19.21725
 Alpha  occ. eigenvalues --  -19.21226 -19.21145 -19.20785 -19.20501 -19.19855
 Alpha  occ. eigenvalues --  -19.19159 -14.55073 -14.46193 -14.45262 -14.45245
 Alpha  occ. eigenvalues --  -14.44749 -14.44201 -14.43816 -14.43579 -14.43349
 Alpha  occ. eigenvalues --  -14.42738 -14.39571 -10.39909 -10.39081 -10.38606
 Alpha  occ. eigenvalues --  -10.38585 -10.38060 -10.38022 -10.37344 -10.36718
 Alpha  occ. eigenvalues --  -10.36393 -10.35949 -10.34431 -10.32438 -10.32164
 Alpha  occ. eigenvalues --  -10.31953 -10.31699 -10.31426 -10.31324 -10.30912
 Alpha  occ. eigenvalues --  -10.30408 -10.27961 -10.27795 -10.27688 -10.26989
 Alpha  occ. eigenvalues --  -10.26926 -10.26919 -10.26671 -10.26482 -10.25868
 Alpha  occ. eigenvalues --  -10.25774 -10.25707 -10.25558 -10.25355 -10.25331
 Alpha  occ. eigenvalues --  -10.24971 -10.24915 -10.24040  -1.17786  -1.15935
 Alpha  occ. eigenvalues --   -1.13895  -1.13223  -1.12458  -1.12320  -1.12104
 Alpha  occ. eigenvalues --   -1.11582  -1.10828  -1.10339  -1.08804  -1.08766
 Alpha  occ. eigenvalues --   -1.07584  -1.02811  -1.02403  -1.01549  -1.01126
 Alpha  occ. eigenvalues --   -1.00576  -1.00064  -0.98853  -0.98108  -0.94404
 Alpha  occ. eigenvalues --   -0.92170  -0.90038  -0.88649  -0.88129  -0.87821
 Alpha  occ. eigenvalues --   -0.86894  -0.85161  -0.84942  -0.82493  -0.81960
 Alpha  occ. eigenvalues --   -0.81493  -0.81196  -0.80343  -0.79132  -0.78286
 Alpha  occ. eigenvalues --   -0.75653  -0.74924  -0.73770  -0.73132  -0.72040
 Alpha  occ. eigenvalues --   -0.71704  -0.71378  -0.70853  -0.70540  -0.69366
 Alpha  occ. eigenvalues --   -0.69283  -0.68689  -0.68375  -0.68050  -0.67298
 Alpha  occ. eigenvalues --   -0.67187  -0.66307  -0.66019  -0.65516  -0.65074
 Alpha  occ. eigenvalues --   -0.64882  -0.64682  -0.63482  -0.63057  -0.62456
 Alpha  occ. eigenvalues --   -0.61979  -0.61255  -0.60918  -0.59962  -0.59882
 Alpha  occ. eigenvalues --   -0.59116  -0.58586  -0.58516  -0.58044  -0.57569
 Alpha  occ. eigenvalues --   -0.57458  -0.57015  -0.56684  -0.56641  -0.56146
 Alpha  occ. eigenvalues --   -0.55641  -0.55379  -0.55078  -0.54933  -0.54895
 Alpha  occ. eigenvalues --   -0.54112  -0.53770  -0.53523  -0.53373  -0.53359
 Alpha  occ. eigenvalues --   -0.52706  -0.52544  -0.52125  -0.51820  -0.51566
 Alpha  occ. eigenvalues --   -0.51135  -0.50812  -0.50655  -0.50594  -0.50335
 Alpha  occ. eigenvalues --   -0.49941  -0.49778  -0.49724  -0.49289  -0.49071
 Alpha  occ. eigenvalues --   -0.48922  -0.48737  -0.48639  -0.48506  -0.48193
 Alpha  occ. eigenvalues --   -0.47995  -0.47886  -0.47563  -0.47196  -0.47141
 Alpha  occ. eigenvalues --   -0.46507  -0.46130  -0.46121  -0.46067  -0.45773
 Alpha  occ. eigenvalues --   -0.45724  -0.45471  -0.45263  -0.44962  -0.44852
 Alpha  occ. eigenvalues --   -0.44722  -0.44452  -0.44038  -0.43765  -0.43634
 Alpha  occ. eigenvalues --   -0.43475  -0.43369  -0.43204  -0.42671  -0.42529
 Alpha  occ. eigenvalues --   -0.42325  -0.41743  -0.41671  -0.40636  -0.40490
 Alpha  occ. eigenvalues --   -0.40409  -0.40061  -0.38995  -0.38454  -0.38366
 Alpha  occ. eigenvalues --   -0.37042  -0.36781  -0.36713  -0.36568  -0.35957
 Alpha  occ. eigenvalues --   -0.35824  -0.35616  -0.35169  -0.35010  -0.34907
 Alpha  occ. eigenvalues --   -0.34681  -0.34510  -0.33735  -0.33466  -0.33325
 Alpha  occ. eigenvalues --   -0.33268  -0.32845  -0.31514  -0.31435  -0.27996
 Alpha virt. eigenvalues --   -0.09398  -0.08155  -0.07855  -0.07785  -0.07203
 Alpha virt. eigenvalues --   -0.06545  -0.06258  -0.05941  -0.05781  -0.05686
 Alpha virt. eigenvalues --   -0.05471  -0.05048  -0.02507  -0.01478  -0.01142

 Mulliken charges:
               1
     1  N   -0.756598
     2  H    0.423851
     3  H    0.399268
     4  H    0.428089
     5  C   -0.130701
     6  H    0.210200
     7  C    0.668051
     8  C    0.080722
     9  H    0.203036
    10  O   -0.546536
    11  C   -0.466305
    12  H    0.146824
    13  H    0.137281
    14  H    0.208854
    15  O   -0.669291
    16  H    0.476005
    17  N   -0.624023
    18  H    0.414489
    19  C   -0.100059
    20  H    0.197576
    21  C    0.648210
    22  C   -0.100177
    23  H    0.169328
    24  O   -0.562746
    25  C   -0.260834
    26  H    0.149662
    27  H    0.141842
    28  C   -0.516969
    29  H    0.147588
    30  H    0.176108
    31  H    0.175983
    32  C   -0.457443
    33  H    0.158387
    34  H    0.152779
    35  H    0.153005
    36  N   -0.594216
    37  H    0.350754
    38  C   -0.056696
    39  H    0.178479
    40  C    0.617114
    41  C   -0.475215
    42  H    0.179755
    43  H    0.181091
    44  H    0.165286
    45  O   -0.522366
    46  N   -0.621051
    47  H    0.380079
    48  C   -0.025951
    49  H    0.168977
    50  C    0.626879
    51  C   -0.307377
    52  H    0.175373
    53  H    0.192812
    54  O   -0.572614
    55  C   -0.382083
    56  H    0.167043
    57  H    0.196230
    58  C    0.617987
    59  N   -0.769169
    60  H    0.406157
    61  H    0.339767
    62  O   -0.563364
    63  N   -0.595047
    64  H    0.348125
    65  C   -0.039344
    66  H    0.177382
    67  C    0.637562
    68  C   -0.375970
    69  H    0.158825
    70  H    0.175066
    71  O   -0.583648
    72  C    0.140667
    73  C   -0.175509
    74  H    0.142824
    75  C   -0.196672
    76  H    0.132285
    77  C   -0.206568
    78  H    0.138810
    79  C   -0.165616
    80  H    0.143196
    81  O   -0.707321
    82  C    0.357259
    83  N   -0.594519
    84  H    0.366984
    85  C   -0.022338
    86  H    0.181012
    87  C    0.624109
    88  C   -0.462385
    89  H    0.168729
    90  H    0.169445
    91  H    0.161630
    92  O   -0.549074
    93  N   -0.626568
    94  H    0.370539
    95  C   -0.028449
    96  H    0.196230
    97  C    0.613099
    98  C   -0.325708
    99  H    0.175293
   100  H    0.177606
   101  O   -0.471988
   102  C   -0.293266
   103  H    0.159816
   104  H    0.170817
   105  C   -0.163958
   106  H    0.173102
   107  H    0.161321
   108  N   -0.571374
   109  H    0.349412
   110  N   -0.732951
   111  H    0.343087
   112  H    0.356199
   113  N   -0.745452
   114  H    0.291651
   115  H    0.459538
   116  C    0.636039
   117  O   -0.568484
   118  H    0.415414
 Sum of Mulliken charges =   1.00000

 Dipole moment (field-independent basis, Debye):
    X=              4.5443    Y=             -5.0130    Z=              4.4055  Tot=              8.0740
 Quadrupole moment (field-independent basis, Debye-Ang):
   XX=           -271.9747   YY=           -287.4944   ZZ=           -213.8204
   XY=            -14.8689   XZ=             72.9515   YZ=              3.6119

 Normal termination of Gaussian 16 at Sun Jul 17 00:17:34 2022.
