 Gaussian 16, Revision C.01,
 Gaussian 16:  ES64L-G16RevC.01  3-Jul-2019

 ----------------------------------------------------------------------
 # B3LYP/6-31G* empiricaldispersion=gd3bj guess=read geom=check nosymm
 integral(ultrafinegrid)
 ----------------------------------------------------------------------

 ------------------------------------------------------
 Candidate Structure: Conf:217 Charge calc in gas phase
 ------------------------------------------------------
 Structure from the checkpoint file:  "conf-217.chk"
 Charge =  1 Multiplicity = 1

                          Input orientation:
 ---------------------------------------------------------------------
 Center     Atomic      Atomic             Coordinates (Angstroms)
 Number     Number       Type             X           Y           Z
 ---------------------------------------------------------------------
      1          7           0       -7.545295   -1.046539   -6.568642
      2          1           0       -8.186463   -1.655103   -6.054895
      3          1           0       -7.772249   -1.053622   -7.570736
      4          1           0       -7.621976   -0.088648   -6.198187
      5          6           0       -6.124635   -1.457425   -6.410605
      6          1           0       -6.024981   -2.533448   -6.579237
      7          6           0       -5.675506   -1.048060   -5.017049
      8          6           0       -5.305538   -0.716752   -7.470221
      9          1           0       -5.399409    0.360751   -7.278044
     10          8           0       -5.963193    0.082996   -4.622869
     11          6           0       -3.842727   -1.114061   -7.491703
     12          1           0       -3.344537   -0.839048   -6.558915
     13          1           0       -3.747328   -2.193322   -7.647166
     14          1           0       -3.330917   -0.596559   -8.306711
     15          8           0       -5.966036   -1.044529   -8.702872
     16          1           0       -5.519674   -0.575794   -9.419631
     17          7           0       -4.950404   -1.936406   -4.323321
     18          1           0       -4.685945   -2.842955   -4.694129
     19          6           0       -4.261460   -1.543420   -3.102777
     20          1           0       -3.850938   -0.541823   -3.284084
     21          6           0       -3.106355   -2.538404   -2.954268
     22          6           0       -5.201660   -1.490392   -1.869037
     23          1           0       -6.169031   -1.153048   -2.259195
     24          8           0       -3.164833   -3.675229   -3.417649
     25          6           0       -4.749305   -0.441533   -0.845340
     26          1           0       -3.715659   -0.636998   -0.535093
     27          1           0       -5.362082   -0.581279    0.054267
     28          6           0       -5.394553   -2.866779   -1.225316
     29          1           0       -4.478908   -3.197400   -0.725476
     30          1           0       -5.658572   -3.620303   -1.972358
     31          1           0       -6.192689   -2.825667   -0.478771
     32          6           0       -4.914917    1.000480   -1.323221
     33          1           0       -4.605698    1.706784   -0.547886
     34          1           0       -5.963110    1.204711   -1.565479
     35          1           0       -4.333445    1.210693   -2.226452
     36          7           0       -2.054680   -2.041880   -2.282998
     37          1           0       -2.031630   -1.068753   -2.005483
     38          6           0       -0.815471   -2.738845   -2.006134
     39          1           0       -1.008475   -3.643262   -1.415654
     40          6           0       -0.003096   -1.725979   -1.185985
     41          6           0       -0.096715   -3.166745   -3.290685
     42          1           0        0.885705   -3.590068   -3.063943
     43          1           0        0.020961   -2.314744   -3.955385
     44          1           0       -0.703069   -3.918372   -3.796355
     45          8           0       -0.390171   -0.563154   -1.054643
     46          7           0        1.171458   -2.130389   -0.650739
     47          1           0        1.466106   -3.091425   -0.733142
     48          6           0        1.893136   -1.234998    0.260652
     49          1           0        1.112453   -0.572776    0.652198
     50          6           0        2.911923   -0.325969   -0.457531
     51          6           0        2.534921   -2.031314    1.393620
     52          1           0        3.405369   -2.577965    1.025775
     53          1           0        1.808933   -2.776124    1.730073
     54          8           0        4.078531   -0.210739   -0.056168
     55          6           0        2.944817   -1.165352    2.582062
     56          1           0        3.679128   -0.416754    2.266026
     57          1           0        2.081573   -0.617528    2.974449
     58          6           0        3.580246   -2.001036    3.689509
     59          7           0        3.624873   -1.395395    4.912423
     60          1           0        3.305593   -0.453101    5.062089
     61          1           0        4.083132   -1.884081    5.665278
     62          8           0        4.039888   -3.115919    3.498033
     63          7           0        2.459024    0.378828   -1.515130
     64          1           0        1.468366    0.366187   -1.742577
     65          6           0        3.297021    1.401298   -2.121322
     66          1           0        4.320282    1.130943   -1.832596
     67          6           0        3.021759    2.758110   -1.457686
     68          6           0        3.236668    1.458037   -3.655998
     69          1           0        3.796327    0.591400   -4.027747
     70          1           0        3.790473    2.357807   -3.947139
     71          8           0        2.735509    3.778049   -2.081860
     72          6           0        1.872522    1.413525   -4.265967
     73          6           0        1.361050    0.152766   -4.603069
     74          1           0        1.973760   -0.715474   -4.366914
     75          6           0        1.088393    2.541186   -4.587767
     76          1           0        1.453171    3.525798   -4.309650
     77          6           0        0.139743   -0.011950   -5.212809
     78          1           0       -0.247913   -0.994351   -5.455419
     79          6           0       -0.131618    2.415372   -5.219631
     80          1           0       -0.723790    3.291471   -5.465528
     81          8           0       -1.772388    0.976817   -6.188148
     82          6           0       -0.678357    1.119767   -5.591624
     83          7           0        3.167728    2.748006   -0.105370
     84          1           0        3.578966    1.926769    0.325755
     85          6           0        3.147708    3.978468    0.681216
     86          1           0        2.450337    4.658635    0.186290
     87          6           0        4.576054    4.531963    0.591112
     88          6           0        2.712538    3.706686    2.109853
     89          1           0        2.682032    4.638588    2.679526
     90          1           0        1.718025    3.254186    2.111848
     91          1           0        3.417612    3.033019    2.604164
     92          8           0        5.401726    4.404980    1.488192
     93          7           0        4.883241    5.020421   -0.640423
     94          1           0        4.152569    5.096946   -1.338961
     95          6           0        6.235302    5.375616   -0.977983
     96          1           0        6.805075    5.314780   -0.043056
     97          6           0        6.410599    6.794644   -1.484344
     98          6           0        6.791477    4.349011   -1.976526
     99          1           0        7.793800    4.650014   -2.292376
    100          1           0        6.160433    4.348005   -2.872111
    101          8           0        7.416616    7.186785   -2.026130
    102          6           0        6.781429    2.958095   -1.345673
    103          1           0        5.773700    2.737848   -0.987625
    104          1           0        7.431792    2.942959   -0.466226
    105          6           0        7.186748    1.857265   -2.317500
    106          1           0        8.180664    2.029411   -2.744869
    107          1           0        6.486805    1.834300   -3.156512
    108          7           0        7.132757    0.510339   -1.715384
    109          1           0        6.197569    0.130321   -1.616455
    110          7           0        9.112559    0.773738   -0.513587
    111          1           0        9.899346    0.328110   -0.065501
    112          1           0        9.321446    1.601319   -1.050597
    113          7           0        7.776066   -1.107568   -0.193271
    114          1           0        8.514792   -1.530459    0.350393
    115          1           0        7.139173   -1.760844   -0.628800
    116          6           0        8.021181    0.058746   -0.826129
    117          8           0        5.347497    7.581749   -1.229601
    118          1           0        5.580801    8.467870   -1.554978
 ---------------------------------------------------------------------

 SCF Done:  E(RB3LYP) =  -2837.81158235     A.U. after    1 cycles

 Alpha  occ. eigenvalues --  -19.26063 -19.25492 -19.21968 -19.20624 -19.20613
 Alpha  occ. eigenvalues --  -19.20264 -19.18690 -19.18620 -19.18021 -19.17280
 Alpha  occ. eigenvalues --  -19.04635 -14.58913 -14.52573 -14.51870 -14.51518
 Alpha  occ. eigenvalues --  -14.45686 -14.45184 -14.43375 -14.42827 -14.42399
 Alpha  occ. eigenvalues --  -14.41885 -14.41747 -10.48290 -10.39339 -10.38524
 Alpha  occ. eigenvalues --  -10.37448 -10.37099 -10.37039 -10.35678 -10.35333
 Alpha  occ. eigenvalues --  -10.35129 -10.34942 -10.34841 -10.34630 -10.31669
 Alpha  occ. eigenvalues --  -10.31096 -10.30708 -10.30259 -10.29672 -10.29448
 Alpha  occ. eigenvalues --  -10.28610 -10.27464 -10.26466 -10.26288 -10.25872
 Alpha  occ. eigenvalues --  -10.24418 -10.24188 -10.23909 -10.23851 -10.23467
 Alpha  occ. eigenvalues --  -10.22702 -10.22195 -10.20239 -10.17590 -10.16921
 Alpha  occ. eigenvalues --  -10.16715 -10.14978 -10.14600  -1.17192  -1.16965
 Alpha  occ. eigenvalues --   -1.15948  -1.13232  -1.13150  -1.12279  -1.11646
 Alpha  occ. eigenvalues --   -1.10794  -1.10685  -1.09754  -1.09295  -1.08114
 Alpha  occ. eigenvalues --   -1.05962  -1.05442  -1.02124  -1.01576  -1.00362
 Alpha  occ. eigenvalues --   -0.99728  -0.99674  -0.98799  -0.96475  -0.94513
 Alpha  occ. eigenvalues --   -0.90384  -0.90275  -0.88150  -0.87535  -0.85647
 Alpha  occ. eigenvalues --   -0.84723  -0.84199  -0.83141  -0.81338  -0.80868
 Alpha  occ. eigenvalues --   -0.80090  -0.79393  -0.78779  -0.77372  -0.77160
 Alpha  occ. eigenvalues --   -0.74345  -0.74243  -0.73743  -0.72896  -0.72708
 Alpha  occ. eigenvalues --   -0.72192  -0.71972  -0.71429  -0.70504  -0.69881
 Alpha  occ. eigenvalues --   -0.69755  -0.68781  -0.68406  -0.67393  -0.67087
 Alpha  occ. eigenvalues --   -0.66577  -0.66314  -0.65344  -0.64925  -0.64741
 Alpha  occ. eigenvalues --   -0.64717  -0.64423  -0.64235  -0.63739  -0.63250
 Alpha  occ. eigenvalues --   -0.62290  -0.61832  -0.60592  -0.60061  -0.59783
 Alpha  occ. eigenvalues --   -0.59072  -0.58795  -0.58577  -0.58056  -0.57714
 Alpha  occ. eigenvalues --   -0.57204  -0.56709  -0.56098  -0.55887  -0.55589
 Alpha  occ. eigenvalues --   -0.55088  -0.54766  -0.54626  -0.54535  -0.54039
 Alpha  occ. eigenvalues --   -0.53607  -0.53465  -0.53078  -0.52754  -0.52278
 Alpha  occ. eigenvalues --   -0.52045  -0.51434  -0.51205  -0.50090  -0.50009
 Alpha  occ. eigenvalues --   -0.49695  -0.49410  -0.49255  -0.48800  -0.48751
 Alpha  occ. eigenvalues --   -0.48138  -0.48053  -0.47845  -0.47788  -0.47601
 Alpha  occ. eigenvalues --   -0.46965  -0.46828  -0.46662  -0.46582  -0.46476
 Alpha  occ. eigenvalues --   -0.46215  -0.46102  -0.45662  -0.45389  -0.45114
 Alpha  occ. eigenvalues --   -0.44869  -0.44747  -0.44653  -0.44584  -0.44191
 Alpha  occ. eigenvalues --   -0.43974  -0.43851  -0.43601  -0.43573  -0.43306
 Alpha  occ. eigenvalues --   -0.43078  -0.42883  -0.42751  -0.42592  -0.42463
 Alpha  occ. eigenvalues --   -0.42297  -0.42249  -0.41604  -0.41512  -0.40212
 Alpha  occ. eigenvalues --   -0.39823  -0.39610  -0.39425  -0.39245  -0.38205
 Alpha  occ. eigenvalues --   -0.38083  -0.37879  -0.37118  -0.36346  -0.35997
 Alpha  occ. eigenvalues --   -0.35409  -0.35291  -0.35037  -0.34696  -0.34473
 Alpha  occ. eigenvalues --   -0.34347  -0.33329  -0.33159  -0.32818  -0.32620
 Alpha  occ. eigenvalues --   -0.32167  -0.31914  -0.31375  -0.31146  -0.31135
 Alpha  occ. eigenvalues --   -0.30281  -0.28510  -0.23251  -0.18673  -0.15490
 Alpha virt. eigenvalues --   -0.12843  -0.09944  -0.08521  -0.07811  -0.07464
 Alpha virt. eigenvalues --   -0.06431  -0.05839  -0.05624  -0.04695  -0.04167
 Alpha virt. eigenvalues --   -0.03690  -0.03157  -0.03142  -0.03047  -0.02379

 Mulliken charges:
               1
     1  N   -0.723585
     2  H    0.417739
     3  H    0.429991
     4  H    0.420496
     5  C   -0.140717
     6  H    0.203551
     7  C    0.650230
     8  C    0.117264
     9  H    0.181168
    10  O   -0.526645
    11  C   -0.467216
    12  H    0.226829
    13  H    0.142533
    14  H    0.188839
    15  O   -0.660563
    16  H    0.427536
    17  N   -0.614105
    18  H    0.360155
    19  C   -0.066387
    20  H    0.212259
    21  C    0.637412
    22  C   -0.068367
    23  H    0.142208
    24  O   -0.556474
    25  C   -0.274899
    26  H    0.136681
    27  H    0.142728
    28  C   -0.461186
    29  H    0.154655
    30  H    0.149466
    31  H    0.153082
    32  C   -0.453439
    33  H    0.152154
    34  H    0.149229
    35  H    0.172377
    36  N   -0.633002
    37  H    0.384060
    38  C   -0.023000
    39  H    0.173453
    40  C    0.629878
    41  C   -0.478143
    42  H    0.130328
    43  H    0.211761
    44  H    0.197109
    45  O   -0.541279
    46  N   -0.618858
    47  H    0.342454
    48  C   -0.063719
    49  H    0.201104
    50  C    0.615167
    51  C   -0.270634
    52  H    0.164712
    53  H    0.159440
    54  O   -0.586670
    55  C   -0.387929
    56  H    0.193242
    57  H    0.152096
    58  C    0.604105
    59  N   -0.750746
    60  H    0.339632
    61  H    0.348037
    62  O   -0.510395
    63  N   -0.572487
    64  H    0.390814
    65  C   -0.075086
    66  H    0.124407
    67  C    0.634112
    68  C   -0.351719
    69  H    0.116068
    70  H    0.138703
    71  O   -0.522812
    72  C    0.108640
    73  C   -0.192006
    74  H    0.056056
    75  C   -0.183481
    76  H    0.110201
    77  C   -0.237310
    78  H    0.069045
    79  C   -0.227978
    80  H    0.084309
    81  O   -0.680159
    82  C    0.415039
    83  N   -0.608193
    84  H    0.349765
    85  C   -0.062355
    86  H    0.193081
    87  C    0.612948
    88  C   -0.454930
    89  H    0.175974
    90  H    0.157960
    91  H    0.156094
    92  O   -0.530606
    93  N   -0.607349
    94  H    0.372815
    95  C   -0.067627
    96  H    0.216499
    97  C    0.592620
    98  C   -0.272913
    99  H    0.170953
   100  H    0.164674
   101  O   -0.460031
   102  C   -0.294323
   103  H    0.182290
   104  H    0.158461
   105  C   -0.205036
   106  H    0.173627
   107  H    0.213476
   108  N   -0.585249
   109  H    0.392696
   110  N   -0.731698
   111  H    0.379065
   112  H    0.391387
   113  N   -0.727527
   114  H    0.374966
   115  H    0.388698
   116  C    0.780562
   117  O   -0.554614
   118  H    0.422283
 Sum of Mulliken charges =   1.00000

 Dipole moment (field-independent basis, Debye):
    X=              6.1761    Y=             -7.0126    Z=             -9.0654  Tot=             13.0193
 Quadrupole moment (field-independent basis, Debye-Ang):
   XX=             67.9148   YY=           -331.4421   ZZ=           -252.5813
   XY=             27.1524   XZ=            119.8837   YZ=             44.5202

 Normal termination of Gaussian 16 at Sun Jul 17 00:17:34 2022.
