 Gaussian 16, Revision C.01,
 Gaussian 16:  ES64L-G16RevC.01  3-Jul-2019

 ----------------------------------------------------------------------
 # B3LYP/6-31G* empiricaldispersion=gd3bj guess=read geom=check nosymm
 integral(ultrafinegrid)
 ----------------------------------------------------------------------

 ------------------------------------------------------
 Candidate Structure: Conf:553 Charge calc in gas phase
 ------------------------------------------------------
 Structure from the checkpoint file:  "conf-553.chk"
 Charge =  1 Multiplicity = 1

                          Input orientation:
 ---------------------------------------------------------------------
 Center     Atomic      Atomic             Coordinates (Angstroms)
 Number     Number       Type             X           Y           Z
 ---------------------------------------------------------------------
      1          7           0       -7.088846   -3.317895   -8.986854
      2          1           0       -7.630807   -4.137218   -8.701170
      3          1           0       -6.972979   -3.309087  -10.015451
      4          1           0       -7.561421   -2.458286   -8.610972
      5          6           0       -5.718922   -3.262335   -8.373736
      6          1           0       -5.393726   -4.277483   -8.134809
      7          6           0       -5.897622   -2.362744   -7.132526
      8          6           0       -4.779150   -2.604794   -9.431435
      9          1           0       -5.002604   -1.532016   -9.446772
     10          8           0       -6.891506   -1.624953   -7.104693
     11          6           0       -3.305424   -2.832740   -9.132188
     12          1           0       -3.006924   -2.398580   -8.173607
     13          1           0       -3.072460   -3.905250   -9.106774
     14          1           0       -2.701657   -2.363958   -9.914038
     15          8           0       -5.165674   -3.085093  -10.720250
     16          1           0       -4.593998   -3.829130  -10.972815
     17          7           0       -4.930618   -2.423225   -6.227760
     18          1           0       -4.088892   -2.984633   -6.370657
     19          6           0       -4.761489   -1.476141   -5.127982
     20          1           0       -5.164830   -0.511896   -5.447231
     21          6           0       -3.230860   -1.389143   -4.959422
     22          6           0       -5.515301   -1.953770   -3.855473
     23          1           0       -6.542470   -2.133003   -4.201857
     24          8           0       -2.502214   -2.224003   -5.515866
     25          6           0       -5.592136   -0.890776   -2.742902
     26          1           0       -4.608055   -0.749827   -2.280181
     27          1           0       -6.229071   -1.310176   -1.954623
     28          6           0       -4.937674   -3.268930   -3.321939
     29          1           0       -3.913400   -3.133892   -2.956428
     30          1           0       -4.919658   -4.049735   -4.089603
     31          1           0       -5.542206   -3.636432   -2.487057
     32          6           0       -6.166620    0.462822   -3.173289
     33          1           0       -6.327199    1.104108   -2.301977
     34          1           0       -7.127467    0.342208   -3.687333
     35          1           0       -5.499079    1.013010   -3.847775
     36          7           0       -2.778963   -0.394101   -4.192744
     37          1           0       -3.403735    0.232193   -3.688859
     38          6           0       -1.386183   -0.245668   -3.800315
     39          1           0       -0.986076   -1.235616   -3.551817
     40          6           0       -1.420464    0.631252   -2.533208
     41          6           0       -0.536568    0.376595   -4.917309
     42          1           0        0.510880    0.462627   -4.613183
     43          1           0       -0.907187    1.375345   -5.167888
     44          1           0       -0.586164   -0.258113   -5.805444
     45          8           0       -2.479024    1.139009   -2.148120
     46          7           0       -0.240105    0.802442   -1.921571
     47          1           0        0.616672    0.369335   -2.255928
     48          6           0       -0.046607    1.670702   -0.771560
     49          1           0       -0.619559    2.589294   -0.911972
     50          6           0        1.457229    1.962733   -0.724069
     51          6           0       -0.518392    0.956890    0.520938
     52          1           0        0.017958    0.003858    0.591181
     53          1           0       -1.579722    0.728024    0.379814
     54          8           0        2.259029    1.163383   -1.228542
     55          6           0       -0.324126    1.717116    1.850187
     56          1           0       -0.723551    1.094091    2.657694
     57          1           0        0.738157    1.869346    2.066733
     58          6           0       -0.979813    3.089444    1.853774
     59          7           0       -2.057616    3.243888    2.657125
     60          1           0       -2.369082    2.522919    3.289412
     61          1           0       -2.496011    4.153951    2.705818
     62          8           0       -0.570382    4.015527    1.144914
     63          7           0        1.803312    3.084186   -0.072312
     64          1           0        1.052115    3.619665    0.379254
     65          6           0        3.187973    3.328336    0.328849
     66          1           0        3.820336    3.080103   -0.527444
     67          6           0        3.494964    2.371353    1.495789
     68          6           0        3.369777    4.788290    0.727676
     69          1           0        2.682966    4.996965    1.556380
     70          1           0        3.042925    5.405517   -0.120045
     71          8           0        3.191047    2.647418    2.662757
     72          6           0        4.778551    5.157509    1.148821
     73          6           0        4.984023    6.349311    1.855585
     74          1           0        4.129981    6.983303    2.085327
     75          6           0        5.903636    4.373422    0.864644
     76          1           0        5.804913    3.439311    0.320222
     77          6           0        6.248542    6.744840    2.279394
     78          1           0        6.381557    7.668366    2.832733
     79          6           0        7.175724    4.742752    1.298237
     80          1           0        8.037118    4.112958    1.099587
     81          8           0        8.602327    6.197613    2.491765
     82          6           0        7.362339    5.925847    2.026185
     83          7           0        4.038884    1.194039    1.125049
     84          1           0        4.080279    0.990263    0.133013
     85          6           0        4.265600    0.091530    2.065152
     86          1           0        3.452940    0.121221    2.800099
     87          6           0        5.601828    0.339012    2.797576
     88          6           0        4.276416   -1.233786    1.318689
     89          1           0        4.367156   -2.061519    2.026309
     90          1           0        3.352718   -1.353943    0.742870
     91          1           0        5.137594   -1.282890    0.646712
     92          8           0        6.632801   -0.256619    2.510212
     93          7           0        5.531632    1.295429    3.757095
     94          1           0        4.678873    1.842953    3.817197
     95          6           0        6.743433    1.766106    4.394255
     96          1           0        7.454700    2.106319    3.632150
     97          6           0        7.400203    0.627254    5.171308
     98          6           0        6.448075    2.921958    5.364087
     99          1           0        7.410641    3.276593    5.747550
    100          1           0        5.883183    2.536364    6.222086
    101          8           0        6.817985   -0.262156    5.744981
    102          6           0        5.686293    4.082410    4.705684
    103          1           0        4.617238    3.857229    4.633754
    104          1           0        6.029334    4.224365    3.675722
    105          6           0        5.846339    5.403159    5.454946
    106          1           0        5.586093    5.267315    6.513311
    107          1           0        5.155523    6.144667    5.036029
    108          7           0        7.235944    5.875866    5.341729
    109          1           0        7.726303    5.504700    4.534609
    110          7           0        6.881843    7.821349    6.562531
    111          1           0        7.212033    8.745137    6.807681
    112          1           0        6.697670    7.235984    7.367974
    113          7           0        8.352791    7.788743    4.682056
    114          1           0        8.615872    8.727851    4.974775
    115          1           0        8.579193    6.938239    3.172799
    116          6           0        7.541595    7.209132    5.510457
    117          8           0        8.742164    0.791908    5.213773
    118          1           0        9.088839    0.061207    5.759208
 ---------------------------------------------------------------------

 SCF Done:  E(RB3LYP) =  -2837.91205667     A.U. after    1 cycles

 Alpha  occ. eigenvalues --  -19.30838 -19.26546 -19.22268 -19.22095 -19.20229
 Alpha  occ. eigenvalues --  -19.19339 -19.19068 -19.17540 -19.17504 -19.16122
 Alpha  occ. eigenvalues --  -19.14796 -14.59703 -14.49321 -14.45507 -14.43855
 Alpha  occ. eigenvalues --  -14.43635 -14.42056 -14.41653 -14.39933 -14.38598
 Alpha  occ. eigenvalues --  -14.38271 -14.33970 -10.43551 -10.40653 -10.40062
 Alpha  occ. eigenvalues --  -10.39137 -10.37205 -10.36905 -10.35663 -10.34281
 Alpha  occ. eigenvalues --  -10.34249 -10.34165 -10.33239 -10.32347 -10.31637
 Alpha  occ. eigenvalues --  -10.31493 -10.30563 -10.29210 -10.28932 -10.27885
 Alpha  occ. eigenvalues --  -10.27064 -10.27027 -10.26936 -10.26784 -10.26718
 Alpha  occ. eigenvalues --  -10.26480 -10.26475 -10.25907 -10.25676 -10.23866
 Alpha  occ. eigenvalues --  -10.22936 -10.22579 -10.22489 -10.22252 -10.22161
 Alpha  occ. eigenvalues --  -10.22029 -10.21184 -10.21018  -1.19577  -1.17953
 Alpha  occ. eigenvalues --   -1.14271  -1.13463  -1.12921  -1.12147  -1.11057
 Alpha  occ. eigenvalues --   -1.10672  -1.09130  -1.06677  -1.06200  -1.06068
 Alpha  occ. eigenvalues --   -1.03860  -1.02418  -1.02375  -1.00622  -0.99274
 Alpha  occ. eigenvalues --   -0.98213  -0.97987  -0.95722  -0.93764  -0.93207
 Alpha  occ. eigenvalues --   -0.90915  -0.89303  -0.88546  -0.87800  -0.86134
 Alpha  occ. eigenvalues --   -0.85587  -0.84160  -0.83352  -0.82869  -0.81363
 Alpha  occ. eigenvalues --   -0.80705  -0.79778  -0.77932  -0.77914  -0.77565
 Alpha  occ. eigenvalues --   -0.76169  -0.74816  -0.74389  -0.73299  -0.72455
 Alpha  occ. eigenvalues --   -0.71981  -0.71262  -0.70830  -0.70568  -0.69161
 Alpha  occ. eigenvalues --   -0.68246  -0.67235  -0.66631  -0.66384  -0.66044
 Alpha  occ. eigenvalues --   -0.65285  -0.65005  -0.64887  -0.64523  -0.64189
 Alpha  occ. eigenvalues --   -0.63444  -0.63281  -0.62604  -0.61746  -0.61185
 Alpha  occ. eigenvalues --   -0.60991  -0.60580  -0.59601  -0.59049  -0.58677
 Alpha  occ. eigenvalues --   -0.58044  -0.57858  -0.57756  -0.57014  -0.56660
 Alpha  occ. eigenvalues --   -0.56381  -0.56173  -0.55754  -0.55714  -0.55188
 Alpha  occ. eigenvalues --   -0.54480  -0.54272  -0.54077  -0.53448  -0.53420
 Alpha  occ. eigenvalues --   -0.53009  -0.52143  -0.52099  -0.51651  -0.51508
 Alpha  occ. eigenvalues --   -0.51344  -0.51253  -0.50933  -0.50922  -0.50635
 Alpha  occ. eigenvalues --   -0.50447  -0.50213  -0.49966  -0.49368  -0.49305
 Alpha  occ. eigenvalues --   -0.49090  -0.48572  -0.48383  -0.48303  -0.48142
 Alpha  occ. eigenvalues --   -0.48095  -0.47785  -0.47156  -0.46828  -0.46786
 Alpha  occ. eigenvalues --   -0.46339  -0.46050  -0.45629  -0.45515  -0.45414
 Alpha  occ. eigenvalues --   -0.45229  -0.44979  -0.44932  -0.44678  -0.44292
 Alpha  occ. eigenvalues --   -0.44192  -0.44132  -0.43601  -0.43532  -0.43353
 Alpha  occ. eigenvalues --   -0.42934  -0.42806  -0.42442  -0.42410  -0.42259
 Alpha  occ. eigenvalues --   -0.42120  -0.42083  -0.41846  -0.41630  -0.41544
 Alpha  occ. eigenvalues --   -0.40605  -0.40437  -0.39849  -0.39549  -0.38905
 Alpha  occ. eigenvalues --   -0.38555  -0.38197  -0.37718  -0.37385  -0.36350
 Alpha  occ. eigenvalues --   -0.36186  -0.35588  -0.34916  -0.34556  -0.34423
 Alpha  occ. eigenvalues --   -0.34187  -0.33997  -0.33619  -0.33152  -0.32587
 Alpha  occ. eigenvalues --   -0.32102  -0.31653  -0.30489  -0.30257  -0.30185
 Alpha  occ. eigenvalues --   -0.28541  -0.28129  -0.27763  -0.27210  -0.23945
 Alpha virt. eigenvalues --   -0.12517  -0.10513  -0.08007  -0.06111  -0.05755
 Alpha virt. eigenvalues --   -0.05448  -0.05067  -0.04876  -0.03917  -0.02956
 Alpha virt. eigenvalues --   -0.02639  -0.01717  -0.01606  -0.01325  -0.00783

 Mulliken charges:
               1
     1  N   -0.746495
     2  H    0.414683
     3  H    0.426931
     4  H    0.426734
     5  C   -0.141206
     6  H    0.203049
     7  C    0.645583
     8  C    0.129130
     9  H    0.193339
    10  O   -0.536849
    11  C   -0.514568
    12  H    0.207029
    13  H    0.164667
    14  H    0.206614
    15  O   -0.629479
    16  H    0.424733
    17  N   -0.600476
    18  H    0.373929
    19  C   -0.085468
    20  H    0.196085
    21  C    0.632954
    22  C   -0.073615
    23  H    0.150703
    24  O   -0.564780
    25  C   -0.284977
    26  H    0.159114
    27  H    0.154976
    28  C   -0.463673
    29  H    0.163680
    30  H    0.138356
    31  H    0.167225
    32  C   -0.463092
    33  H    0.173686
    34  H    0.156522
    35  H    0.143323
    36  N   -0.624869
    37  H    0.387426
    38  C   -0.050035
    39  H    0.186877
    40  C    0.629374
    41  C   -0.450760
    42  H    0.169275
    43  H    0.166768
    44  H    0.179522
    45  O   -0.551272
    46  N   -0.624210
    47  H    0.361056
    48  C   -0.045546
    49  H    0.202793
    50  C    0.605303
    51  C   -0.271196
    52  H    0.160715
    53  H    0.176460
    54  O   -0.571614
    55  C   -0.399299
    56  H    0.151286
    57  H    0.212927
    58  C    0.626912
    59  N   -0.732643
    60  H    0.351368
    61  H    0.356838
    62  O   -0.530200
    63  N   -0.638468
    64  H    0.403116
    65  C   -0.059197
    66  H    0.172829
    67  C    0.648507
    68  C   -0.362518
    69  H    0.170697
    70  H    0.163957
    71  O   -0.575894
    72  C    0.171890
    73  C   -0.192617
    74  H    0.120897
    75  C   -0.195242
    76  H    0.120931
    77  C   -0.195098
    78  H    0.142234
    79  C   -0.183264
    80  H    0.143634
    81  O   -0.689021
    82  C    0.337841
    83  N   -0.588207
    84  H    0.363726
    85  C   -0.062680
    86  H    0.165720
    87  C    0.643793
    88  C   -0.472493
    89  H    0.177001
    90  H    0.142526
    91  H    0.181045
    92  O   -0.521937
    93  N   -0.630847
    94  H    0.378306
    95  C   -0.004279
    96  H    0.179356
    97  C    0.599085
    98  C   -0.310795
    99  H    0.177110
   100  H    0.156665
   101  O   -0.468395
   102  C   -0.336850
   103  H    0.165588
   104  H    0.186746
   105  C   -0.113719
   106  H    0.133798
   107  H    0.157848
   108  N   -0.609672
   109  H    0.349973
   110  N   -0.742072
   111  H    0.332975
   112  H    0.339641
   113  N   -0.723952
   114  H    0.283815
   115  H    0.454065
   116  C    0.647915
   117  O   -0.569177
   118  H    0.411538
 Sum of Mulliken charges =   1.00000

 Dipole moment (field-independent basis, Debye):
    X=            -27.0419    Y=             -7.9008    Z=            -26.6332  Tot=             38.7687
 Quadrupole moment (field-independent basis, Debye-Ang):
   XX=           -216.7186   YY=           -244.6441   ZZ=              8.8812
   XY=            106.6983   XZ=            211.9232   YZ=            182.2908

 Normal termination of Gaussian 16 at Sun Jul 17 00:17:34 2022.
