 Gaussian 16, Revision C.01,
 Gaussian 16:  ES64L-G16RevC.01  3-Jul-2019

 ----------------------------------------------------------------------
 # B3LYP/6-31G* empiricaldispersion=gd3bj guess=read geom=check nosymm
 integral(ultrafinegrid)
 ----------------------------------------------------------------------

 -----------------------------------------------------
 Candidate Structure: Conf:81 Charge calc in gas phase
 -----------------------------------------------------
 Structure from the checkpoint file:  "conf-81.chk"
 Charge =  1 Multiplicity = 1

                          Input orientation:
 ---------------------------------------------------------------------
 Center     Atomic      Atomic             Coordinates (Angstroms)
 Number     Number       Type             X           Y           Z
 ---------------------------------------------------------------------
      1          7           0       -7.041651   -3.590683   -6.325023
      2          1           0       -7.803354   -3.973355   -5.760421
      3          1           0       -7.055479   -4.003272   -7.272289
      4          1           0       -7.109328   -2.535128   -6.313574
      5          6           0       -5.681691   -3.825686   -5.734402
      6          1           0       -5.710556   -4.717254   -5.103869
      7          6           0       -5.391761   -2.520575   -4.957849
      8          6           0       -4.698708   -4.006529   -6.928299
      9          1           0       -4.543320   -3.018613   -7.376092
     10          8           0       -6.051625   -1.523877   -5.288884
     11          6           0       -3.367613   -4.611521   -6.510724
     12          1           0       -2.833237   -3.984080   -5.790239
     13          1           0       -3.515910   -5.600007   -6.055456
     14          1           0       -2.732879   -4.727715   -7.393625
     15          8           0       -5.362926   -4.771152   -7.939847
     16          1           0       -5.135200   -5.708843   -7.826881
     17          7           0       -4.431867   -2.590269   -4.052059
     18          1           0       -3.873155   -3.438924   -3.955030
     19          6           0       -3.751640   -1.450243   -3.434170
     20          1           0       -3.961318   -0.548033   -4.011559
     21          6           0       -2.258763   -1.813312   -3.508878
     22          6           0       -4.190964   -1.214777   -1.966283
     23          1           0       -3.510910   -0.439004   -1.605346
     24          8           0       -1.917777   -2.998603   -3.681705
     25          6           0       -4.028983   -2.473259   -1.097568
     26          1           0       -3.080757   -2.964923   -1.339358
     27          1           0       -4.830589   -3.189466   -1.334179
     28          6           0       -5.606723   -0.633687   -1.937578
     29          1           0       -6.336159   -1.317840   -2.389532
     30          1           0       -5.634076    0.313882   -2.483540
     31          1           0       -5.927368   -0.438283   -0.909504
     32          6           0       -4.035094   -2.159969    0.400726
     33          1           0       -3.922572   -3.075144    0.993420
     34          1           0       -4.964883   -1.674816    0.717335
     35          1           0       -3.200143   -1.494585    0.643819
     36          7           0       -1.437224   -0.773961   -3.341342
     37          1           0       -1.893662    0.174505   -3.167450
     38          6           0       -0.053288   -0.964119   -2.962600
     39          1           0        0.203235   -2.002215   -3.203297
     40          6           0        0.012665   -0.852887   -1.421373
     41          6           0        0.866045   -0.006773   -3.724367
     42          1           0        1.923318   -0.217786   -3.523662
     43          1           0        0.648325    1.035473   -3.466562
     44          1           0        0.705030   -0.129381   -4.798267
     45          8           0       -0.841360   -1.356091   -0.702515
     46          7           0        1.093952   -0.197510   -0.887961
     47          1           0        1.691481    0.339735   -1.500523
     48          6           0        1.066897    0.201764    0.517460
     49          1           0        0.015261    0.242075    0.813172
     50          6           0        1.716101    1.584681    0.562577
     51          6           0        1.834410   -0.757438    1.462750
     52          1           0        1.503478   -0.565174    2.489430
     53          1           0        2.893595   -0.500072    1.431539
     54          8           0        2.878624    1.742774    0.152996
     55          6           0        1.671872   -2.249266    1.118604
     56          1           0        0.769782   -2.667790    1.571877
     57          1           0        1.561221   -2.354896    0.035418
     58          6           0        2.918207   -3.038102    1.476633
     59          7           0        2.770477   -4.076309    2.320850
     60          1           0        1.873591   -4.327904    2.708426
     61          1           0        3.574225   -4.644499    2.553338
     62          8           0        4.026217   -2.747260    0.995283
     63          7           0        0.970015    2.597196    1.033859
     64          1           0       -0.040446    2.454089    1.005222
     65          6           0        1.400313    3.986336    0.828429
     66          1           0        2.041413    4.013285   -0.054343
     67          6           0        2.248234    4.497931    1.989826
     68          6           0        0.140312    4.866625    0.566180
     69          1           0        0.496606    5.830091    0.187317
     70          1           0       -0.368513    5.059076    1.518508
     71          8           0        3.126790    5.344069    1.816287
     72          6           0       -0.772660    4.143688   -0.389552
     73          6           0       -0.396071    3.934601   -1.726336
     74          1           0        0.458364    4.479024   -2.128691
     75          6           0       -1.885707    3.426456    0.087764
     76          1           0       -2.215266    3.586475    1.115810
     77          6           0       -1.080425    3.045685   -2.542358
     78          1           0       -0.800823    2.927338   -3.586657
     79          6           0       -2.578168    2.526130   -0.714204
     80          1           0       -3.442495    1.992059   -0.328710
     81          8           0       -2.794881    1.408355   -2.810557
     82          6           0       -2.192220    2.277240   -2.066934
     83          7           0        1.920836    4.001811    3.210778
     84          1           0        1.330510    3.180677    3.240622
     85          6           0        2.678955    4.338028    4.414811
     86          1           0        2.922805    5.401242    4.343382
     87          6           0        3.974052    3.505682    4.406575
     88          6           0        1.851075    4.056961    5.661141
     89          1           0        2.396936    4.371641    6.554873
     90          1           0        0.903230    4.601063    5.618441
     91          1           0        1.657790    2.984214    5.754727
     92          8           0        4.021416    2.372525    4.875427
     93          7           0        5.026238    4.113705    3.789874
     94          1           0        4.835269    4.964738    3.271584
     95          6           0        6.275737    3.413079    3.598350
     96          1           0        6.088973    2.401630    3.981312
     97          6           0        7.432737    3.959202    4.432343
     98          6           0        6.698118    3.314869    2.123709
     99          1           0        7.570056    2.651837    2.093988
    100          1           0        7.052715    4.290732    1.768202
    101          8           0        8.589713    3.658876    4.230421
    102          6           0        5.565836    2.815333    1.220249
    103          1           0        4.882242    3.635393    0.984474
    104          1           0        4.960467    2.063545    1.739527
    105          6           0        6.081835    2.212162   -0.089498
    106          1           0        6.840026    2.852330   -0.550113
    107          1           0        5.275067    2.102041   -0.815579
    108          7           0        6.703132    0.891196    0.106742
    109          1           0        7.628393    0.882939    0.513809
    110          7           0        4.734197   -0.320193   -0.221928
    111          1           0        4.274509   -1.215531   -0.030857
    112          1           0        4.123913    0.505261   -0.187696
    113          7           0        6.617221   -1.400913    0.528992
    114          1           0        6.029513   -2.195894    0.764409
    115          1           0        7.578453   -1.407727    0.833285
    116          6           0        6.009291   -0.256546    0.158799
    117          8           0        7.039317    4.777490    5.425678
    118          1           0        7.850946    5.031608    5.905634
 ---------------------------------------------------------------------

 SCF Done:  E(RB3LYP) =  -2837.90549263     A.U. after    2 cycles

 Alpha  occ. eigenvalues --  -19.28334 -19.25910 -19.23093 -19.22514 -19.22156
 Alpha  occ. eigenvalues --  -19.20026 -19.18824 -19.18534 -19.17810 -19.17598
 Alpha  occ. eigenvalues --  -19.10024 -14.56760 -14.48029 -14.47194 -14.46322
 Alpha  occ. eigenvalues --  -14.45641 -14.44814 -14.44782 -14.43986 -14.43091
 Alpha  occ. eigenvalues --  -14.42207 -14.39261 -10.43403 -10.40029 -10.39736
 Alpha  occ. eigenvalues --  -10.38418 -10.38216 -10.37675 -10.37315 -10.35775
 Alpha  occ. eigenvalues --  -10.35478 -10.34767 -10.33989 -10.32031 -10.31842
 Alpha  occ. eigenvalues --  -10.30401 -10.29859 -10.29771 -10.29448 -10.28749
 Alpha  occ. eigenvalues --  -10.28734 -10.28441 -10.28221 -10.26648 -10.26240
 Alpha  occ. eigenvalues --  -10.24991 -10.24920 -10.24767 -10.24194 -10.23038
 Alpha  occ. eigenvalues --  -10.22163 -10.21778 -10.21554 -10.21392 -10.21380
 Alpha  occ. eigenvalues --  -10.21243 -10.19751 -10.19643  -1.16851  -1.16618
 Alpha  occ. eigenvalues --   -1.14942  -1.13837  -1.13686  -1.12047  -1.10971
 Alpha  occ. eigenvalues --   -1.10527  -1.10515  -1.09497  -1.08928  -1.07721
 Alpha  occ. eigenvalues --   -1.02430  -1.01973  -1.01884  -1.00969  -1.00298
 Alpha  occ. eigenvalues --   -0.99428  -0.99311  -0.99197  -0.98949  -0.97090
 Alpha  occ. eigenvalues --   -0.90648  -0.88767  -0.87936  -0.87500  -0.86304
 Alpha  occ. eigenvalues --   -0.85032  -0.83748  -0.83090  -0.82779  -0.81893
 Alpha  occ. eigenvalues --   -0.80464  -0.78777  -0.77077  -0.76561  -0.75863
 Alpha  occ. eigenvalues --   -0.75768  -0.74805  -0.74032  -0.73168  -0.71612
 Alpha  occ. eigenvalues --   -0.71410  -0.71391  -0.70200  -0.69775  -0.69087
 Alpha  occ. eigenvalues --   -0.68834  -0.68583  -0.68232  -0.67834  -0.67175
 Alpha  occ. eigenvalues --   -0.66352  -0.66223  -0.65730  -0.65204  -0.64532
 Alpha  occ. eigenvalues --   -0.64232  -0.63820  -0.62992  -0.62656  -0.62063
 Alpha  occ. eigenvalues --   -0.61364  -0.60887  -0.60819  -0.59704  -0.59423
 Alpha  occ. eigenvalues --   -0.59298  -0.58957  -0.58800  -0.57815  -0.57242
 Alpha  occ. eigenvalues --   -0.56960  -0.56533  -0.56113  -0.55945  -0.55736
 Alpha  occ. eigenvalues --   -0.55380  -0.55300  -0.54812  -0.54093  -0.53945
 Alpha  occ. eigenvalues --   -0.53612  -0.53334  -0.52691  -0.52595  -0.52407
 Alpha  occ. eigenvalues --   -0.51870  -0.51668  -0.51192  -0.50917  -0.50671
 Alpha  occ. eigenvalues --   -0.50431  -0.50203  -0.49855  -0.49815  -0.49177
 Alpha  occ. eigenvalues --   -0.48763  -0.48651  -0.48459  -0.48204  -0.48102
 Alpha  occ. eigenvalues --   -0.47812  -0.47571  -0.47448  -0.47373  -0.46916
 Alpha  occ. eigenvalues --   -0.46830  -0.46613  -0.46118  -0.45969  -0.45526
 Alpha  occ. eigenvalues --   -0.45254  -0.45017  -0.44975  -0.44847  -0.44700
 Alpha  occ. eigenvalues --   -0.44436  -0.44206  -0.43911  -0.43815  -0.43458
 Alpha  occ. eigenvalues --   -0.43420  -0.43078  -0.42460  -0.42166  -0.41869
 Alpha  occ. eigenvalues --   -0.41771  -0.41496  -0.41450  -0.41272  -0.41237
 Alpha  occ. eigenvalues --   -0.40745  -0.40060  -0.39425  -0.38560  -0.38299
 Alpha  occ. eigenvalues --   -0.37835  -0.37734  -0.37544  -0.37478  -0.36842
 Alpha  occ. eigenvalues --   -0.36686  -0.36609  -0.36392  -0.36334  -0.36173
 Alpha  occ. eigenvalues --   -0.36072  -0.35055  -0.34510  -0.34178  -0.33455
 Alpha  occ. eigenvalues --   -0.32764  -0.32728  -0.31947  -0.31438  -0.31057
 Alpha  occ. eigenvalues --   -0.30380  -0.30173  -0.27660  -0.24427  -0.20844
 Alpha virt. eigenvalues --   -0.09167  -0.09041  -0.07811  -0.07732  -0.07159
 Alpha virt. eigenvalues --   -0.05596  -0.05362  -0.05106  -0.04082  -0.03545
 Alpha virt. eigenvalues --   -0.03483  -0.03186  -0.02613  -0.02003  -0.01733

 Mulliken charges:
               1
     1  N   -0.748182
     2  H    0.408943
     3  H    0.420150
     4  H    0.425490
     5  C   -0.141857
     6  H    0.195023
     7  C    0.649348
     8  C    0.126765
     9  H    0.193440
    10  O   -0.540170
    11  C   -0.518161
    12  H    0.222237
    13  H    0.153716
    14  H    0.195620
    15  O   -0.631264
    16  H    0.417876
    17  N   -0.580164
    18  H    0.361884
    19  C   -0.110587
    20  H    0.214862
    21  C    0.625209
    22  C   -0.067728
    23  H    0.190629
    24  O   -0.588023
    25  C   -0.267149
    26  H    0.159559
    27  H    0.102036
    28  C   -0.459033
    29  H    0.116786
    30  H    0.178574
    31  H    0.148330
    32  C   -0.452574
    33  H    0.130472
    34  H    0.141705
    35  H    0.164396
    36  N   -0.610351
    37  H    0.423147
    38  C   -0.067972
    39  H    0.192082
    40  C    0.629809
    41  C   -0.496725
    42  H    0.140650
    43  H    0.180352
    44  H    0.177838
    45  O   -0.513393
    46  N   -0.641801
    47  H    0.352141
    48  C   -0.008432
    49  H    0.193748
    50  C    0.595167
    51  C   -0.305812
    52  H    0.168863
    53  H    0.164443
    54  O   -0.559906
    55  C   -0.350098
    56  H    0.169225
    57  H    0.203974
    58  C    0.609539
    59  N   -0.722199
    60  H    0.363187
    61  H    0.358041
    62  O   -0.559972
    63  N   -0.622309
    64  H    0.367415
    65  C   -0.037938
    66  H    0.187086
    67  C    0.635364
    68  C   -0.388732
    69  H    0.178109
    70  H    0.151229
    71  O   -0.553240
    72  C    0.135203
    73  C   -0.188877
    74  H    0.108198
    75  C   -0.243079
    76  H    0.108870
    77  C   -0.218550
    78  H    0.110465
    79  C   -0.193715
    80  H    0.112421
    81  O   -0.704499
    82  C    0.414264
    83  N   -0.587956
    84  H    0.338393
    85  C   -0.053294
    86  H    0.178966
    87  C    0.622276
    88  C   -0.466587
    89  H    0.175503
    90  H    0.162225
    91  H    0.168954
    92  O   -0.533658
    93  N   -0.596930
    94  H    0.361614
    95  C   -0.064646
    96  H    0.209713
    97  C    0.598365
    98  C   -0.289009
    99  H    0.145504
   100  H    0.161929
   101  O   -0.467764
   102  C   -0.270401
   103  H    0.195663
   104  H    0.154715
   105  C   -0.189658
   106  H    0.181100
   107  H    0.194917
   108  N   -0.589682
   109  H    0.350122
   110  N   -0.821280
   111  H    0.394792
   112  H    0.424778
   113  N   -0.782324
   114  H    0.401894
   115  H    0.360005
   116  C    0.784816
   117  O   -0.553701
   118  H    0.419260
 Sum of Mulliken charges =   1.00000

 Dipole moment (field-independent basis, Debye):
    X=              0.2711    Y=            -17.3833    Z=             -9.2958  Tot=             19.7146
 Quadrupole moment (field-independent basis, Debye-Ang):
   XX=           -134.3101   YY=           -248.5712   ZZ=           -211.8256
   XY=             91.6110   XZ=            118.7541   YZ=             94.1309

 Normal termination of Gaussian 16 at Sun Jul 17 00:18:16 2022.
