 Gaussian 16, Revision C.01,
 Gaussian 16:  ES64L-G16RevC.01  3-Jul-2019

 ----------------------------------------------------------------------
 # B3LYP/6-31G* empiricaldispersion=gd3bj guess=read geom=check nosymm
 integral(ultrafinegrid)
 ----------------------------------------------------------------------

 ------------------------------------------------------
 Candidate Structure: Conf:879 Charge calc in gas phase
 ------------------------------------------------------
 Structure from the checkpoint file:  "conf-879.chk"
 Charge =  1 Multiplicity = 1

                          Input orientation:
 ---------------------------------------------------------------------
 Center     Atomic      Atomic             Coordinates (Angstroms)
 Number     Number       Type             X           Y           Z
 ---------------------------------------------------------------------
      1          7           0       -7.773947   -5.686648   -3.390777
      2          1           0       -7.994401   -5.932314   -2.418644
      3          1           0       -7.924318   -6.501504   -4.016661
      4          1           0       -8.372357   -4.873352   -3.655130
      5          6           0       -6.365043   -5.199742   -3.590019
      6          1           0       -5.668873   -5.817084   -3.016683
      7          6           0       -6.418584   -3.736465   -3.139456
      8          6           0       -6.077575   -5.363973   -5.101240
      9          1           0       -6.784919   -4.728271   -5.648966
     10          8           0       -7.523755   -3.201950   -3.309176
     11          6           0       -4.642176   -5.011056   -5.472670
     12          1           0       -4.403305   -3.962914   -5.274788
     13          1           0       -3.927588   -5.625247   -4.907223
     14          1           0       -4.493174   -5.206263   -6.537624
     15          8           0       -6.453897   -6.700280   -5.451453
     16          1           0       -5.731519   -7.312075   -5.200804
     17          7           0       -5.315430   -3.209805   -2.635980
     18          1           0       -4.416563   -3.690712   -2.740922
     19          6           0       -5.133330   -1.769962   -2.429302
     20          1           0       -5.923218   -1.236985   -2.968950
     21          6           0       -3.755853   -1.454120   -3.037247
     22          6           0       -5.202757   -1.380658   -0.916805
     23          1           0       -4.928720   -0.318782   -0.866236
     24          8           0       -2.928335   -2.367166   -3.194804
     25          6           0       -4.169072   -2.155542   -0.078455
     26          1           0       -3.216944   -2.172211   -0.604306
     27          1           0       -4.477305   -3.208577    0.014405
     28          6           0       -6.635150   -1.565279   -0.404653
     29          1           0       -6.919405   -2.627449   -0.412193
     30          1           0       -7.362621   -1.023097   -1.019531
     31          1           0       -6.724069   -1.205235    0.624866
     32          6           0       -3.944891   -1.541036    1.304491
     33          1           0       -3.202986   -2.125660    1.859686
     34          1           0       -4.866507   -1.508329    1.900939
     35          1           0       -3.566705   -0.518574    1.196990
     36          7           0       -3.546997   -0.155989   -3.321312
     37          1           0       -4.255787    0.474294   -2.950242
     38          6           0       -2.198419    0.450706   -3.307807
     39          1           0       -1.532670   -0.203966   -3.873659
     40          6           0       -1.758329    0.529499   -1.827958
     41          6           0       -2.266620    1.847558   -3.928274
     42          1           0       -1.273125    2.304989   -3.929600
     43          1           0       -2.933857    2.493125   -3.343756
     44          1           0       -2.632589    1.798642   -4.959458
     45          8           0       -2.595269    0.832341   -0.966555
     46          7           0       -0.469071    0.235864   -1.597977
     47          1           0        0.183115    0.010470   -2.349675
     48          6           0        0.128107    0.131862   -0.270594
     49          1           0       -0.062954    1.068360    0.265129
     50          6           0        1.633845   -0.018357   -0.496745
     51          6           0       -0.464087   -1.046974    0.523676
     52          1           0       -1.500518   -0.807030    0.755741
     53          1           0        0.053230   -1.174917    1.480297
     54          8           0        2.065870   -0.322749   -1.622836
     55          6           0       -0.364924   -2.344155   -0.279146
     56          1           0       -0.929898   -2.274916   -1.217304
     57          1           0        0.686984   -2.517168   -0.563364
     58          6           0       -0.841182   -3.561357    0.503176
     59          7           0       -1.252076   -4.599662   -0.294836
     60          1           0       -0.954469   -4.592023   -1.259695
     61          1           0       -1.300511   -5.491848    0.179742
     62          8           0       -0.867887   -3.639404    1.723621
     63          7           0        2.389379    0.202639    0.580099
     64          1           0        1.966847    0.526327    1.447357
     65          6           0        3.819921    0.452764    0.512676
     66          1           0        4.336755   -0.415069    0.081268
     67          6           0        4.274906    0.630805    1.962034
     68          6           0        4.076888    1.687268   -0.424736
     69          1           0        3.873017    1.315232   -1.433139
     70          1           0        5.142914    1.960442   -0.386470
     71          8           0        3.481711    0.673407    2.909816
     72          6           0        3.181117    2.858279   -0.119405
     73          6           0        1.956978    2.945606   -0.811337
     74          1           0        1.740365    2.208444   -1.591275
     75          6           0        3.439351    3.817184    0.868711
     76          1           0        4.372172    3.782046    1.429967
     77          6           0        1.018179    3.928857   -0.521022
     78          1           0        0.077376    3.982954   -1.071037
     79          6           0        2.504040    4.811784    1.147053
     80          1           0        2.732634    5.564051    1.900970
     81          8           0        0.338645    5.835247    0.795250
     82          6           0        1.243344    4.913771    0.483405
     83          7           0        5.616566    0.738386    2.117627
     84          1           0        6.180515    0.946255    1.301135
     85          6           0        6.258847    0.930493    3.403460
     86          1           0        5.916097    0.134409    4.076393
     87          6           0        5.899182    2.288896    4.029301
     88          6           0        7.780836    0.852761    3.221055
     89          1           0        8.290326    0.954770    4.184110
     90          1           0        8.064913   -0.108198    2.777858
     91          1           0        8.125551    1.664641    2.568024
     92          8           0        5.729135    3.306513    3.370348
     93          7           0        5.896942    2.274660    5.395093
     94          1           0        6.155288    1.435486    5.901718
     95          6           0        5.799320    3.539175    6.081155
     96          1           0        6.067683    4.313941    5.356431
     97          6           0        6.801823    3.540704    7.232148
     98          6           0        4.399258    3.838540    6.663562
     99          1           0        4.463318    4.786963    7.216113
    100          1           0        4.149754    3.057399    7.399253
    101          8           0        7.322750    2.542704    7.686052
    102          6           0        3.300260    3.896390    5.597323
    103          1           0        3.316805    2.978656    4.990230
    104          1           0        3.480736    4.716907    4.893419
    105          6           0        1.923530    4.014262    6.269786
    106          1           0        1.831848    4.941921    6.856660
    107          1           0        1.792784    3.199936    6.988709
    108          7           0        0.813858    3.935025    5.327705
    109          1           0        0.189717    3.144446    5.366306
    110          7           0        1.323266    6.007038    4.392537
    111          1           0        1.016820    6.791045    3.836863
    112          1           0        2.013561    6.195069    5.099557
    113          7           0       -0.591503    4.954765    3.740759
    114          1           0       -0.425445    5.406273    2.771514
    115          1           0       -1.122573    4.093657    3.714676
    116          6           0        0.505519    4.954536    4.498133
    117          8           0        7.008432    4.781282    7.717496
    118          1           0        7.635109    4.696544    8.468332
 ---------------------------------------------------------------------

 SCF Done:  E(RB3LYP) =  -2837.83658728     A.U. after    1 cycles

 Alpha  occ. eigenvalues --  -19.30398 -19.26729 -19.25737 -19.22117 -19.21018
 Alpha  occ. eigenvalues --  -19.17749 -19.17603 -19.17534 -19.17249 -19.16712
 Alpha  occ. eigenvalues --  -19.05597 -14.60064 -14.49206 -14.47763 -14.46402
 Alpha  occ. eigenvalues --  -14.45198 -14.44835 -14.42363 -14.41900 -14.41809
 Alpha  occ. eigenvalues --  -14.41676 -14.40492 -10.43021 -10.42512 -10.40343
 Alpha  occ. eigenvalues --  -10.39642 -10.38983 -10.38675 -10.34960 -10.34656
 Alpha  occ. eigenvalues --  -10.34521 -10.34344 -10.33682 -10.33493 -10.32411
 Alpha  occ. eigenvalues --  -10.31109 -10.31037 -10.30485 -10.29755 -10.28441
 Alpha  occ. eigenvalues --  -10.27880 -10.27781 -10.26901 -10.26381 -10.25463
 Alpha  occ. eigenvalues --  -10.25266 -10.25005 -10.24986 -10.24933 -10.24223
 Alpha  occ. eigenvalues --  -10.22995 -10.21780 -10.20854 -10.17834 -10.17540
 Alpha  occ. eigenvalues --  -10.17461 -10.15905 -10.15852  -1.19216  -1.17474
 Alpha  occ. eigenvalues --   -1.17285  -1.13684  -1.13138  -1.11628  -1.09968
 Alpha  occ. eigenvalues --   -1.09499  -1.08998  -1.08979  -1.08492  -1.08047
 Alpha  occ. eigenvalues --   -1.05906  -1.01703  -1.01484  -0.99136  -0.98850
 Alpha  occ. eigenvalues --   -0.98552  -0.98428  -0.97530  -0.96529  -0.93386
 Alpha  occ. eigenvalues --   -0.92039  -0.89842  -0.88113  -0.86236  -0.85526
 Alpha  occ. eigenvalues --   -0.84908  -0.84363  -0.83339  -0.82185  -0.81674
 Alpha  occ. eigenvalues --   -0.80133  -0.79037  -0.77493  -0.77320  -0.76774
 Alpha  occ. eigenvalues --   -0.74292  -0.73486  -0.73288  -0.72698  -0.72468
 Alpha  occ. eigenvalues --   -0.72233  -0.71675  -0.71526  -0.70855  -0.69661
 Alpha  occ. eigenvalues --   -0.69566  -0.68335  -0.67805  -0.67146  -0.66493
 Alpha  occ. eigenvalues --   -0.66356  -0.65589  -0.65144  -0.64725  -0.64204
 Alpha  occ. eigenvalues --   -0.64034  -0.63474  -0.62565  -0.62198  -0.61601
 Alpha  occ. eigenvalues --   -0.61098  -0.59821  -0.59643  -0.59410  -0.58906
 Alpha  occ. eigenvalues --   -0.58678  -0.58546  -0.58168  -0.58027  -0.57047
 Alpha  occ. eigenvalues --   -0.56619  -0.56355  -0.56218  -0.55757  -0.55372
 Alpha  occ. eigenvalues --   -0.55038  -0.54955  -0.54719  -0.54573  -0.53918
 Alpha  occ. eigenvalues --   -0.53406  -0.53009  -0.52792  -0.52601  -0.52469
 Alpha  occ. eigenvalues --   -0.51842  -0.51630  -0.51436  -0.51142  -0.50951
 Alpha  occ. eigenvalues --   -0.50741  -0.50465  -0.50296  -0.49544  -0.49515
 Alpha  occ. eigenvalues --   -0.48577  -0.48459  -0.48228  -0.47941  -0.47746
 Alpha  occ. eigenvalues --   -0.47643  -0.47614  -0.47059  -0.46833  -0.46729
 Alpha  occ. eigenvalues --   -0.46205  -0.46027  -0.45494  -0.45394  -0.45196
 Alpha  occ. eigenvalues --   -0.45135  -0.44999  -0.44685  -0.44513  -0.44148
 Alpha  occ. eigenvalues --   -0.43907  -0.43792  -0.43575  -0.43415  -0.43299
 Alpha  occ. eigenvalues --   -0.42973  -0.42855  -0.42575  -0.41919  -0.41661
 Alpha  occ. eigenvalues --   -0.41443  -0.41186  -0.40826  -0.40743  -0.40146
 Alpha  occ. eigenvalues --   -0.40023  -0.39730  -0.39637  -0.39385  -0.39093
 Alpha  occ. eigenvalues --   -0.38668  -0.38124  -0.37241  -0.36789  -0.36341
 Alpha  occ. eigenvalues --   -0.35783  -0.35350  -0.35306  -0.34690  -0.33327
 Alpha  occ. eigenvalues --   -0.32936  -0.32816  -0.32564  -0.31905  -0.31832
 Alpha  occ. eigenvalues --   -0.31536  -0.31239  -0.30736  -0.30682  -0.30505
 Alpha  occ. eigenvalues --   -0.29393  -0.28166  -0.23564  -0.19508  -0.16734
 Alpha virt. eigenvalues --   -0.12553  -0.10013  -0.08286  -0.07378  -0.06183
 Alpha virt. eigenvalues --   -0.05958  -0.04956  -0.04499  -0.04022  -0.03690
 Alpha virt. eigenvalues --   -0.03628  -0.03463  -0.03248  -0.02410  -0.01779

 Mulliken charges:
               1
     1  N   -0.733224
     2  H    0.417455
     3  H    0.419917
     4  H    0.428391
     5  C   -0.149235
     6  H    0.196034
     7  C    0.667748
     8  C    0.121963
     9  H    0.192824
    10  O   -0.546906
    11  C   -0.494527
    12  H    0.201211
    13  H    0.158605
    14  H    0.209227
    15  O   -0.618452
    16  H    0.414708
    17  N   -0.588413
    18  H    0.369142
    19  C   -0.112119
    20  H    0.188100
    21  C    0.642078
    22  C   -0.082464
    23  H    0.174286
    24  O   -0.560606
    25  C   -0.275223
    26  H    0.163447
    27  H    0.120929
    28  C   -0.449008
    29  H    0.125237
    30  H    0.156389
    31  H    0.171669
    32  C   -0.484402
    33  H    0.179208
    34  H    0.138587
    35  H    0.181148
    36  N   -0.568829
    37  H    0.347424
    38  C   -0.078784
    39  H    0.178421
    40  C    0.645663
    41  C   -0.466793
    42  H    0.191108
    43  H    0.174836
    44  H    0.169579
    45  O   -0.559189
    46  N   -0.619269
    47  H    0.361634
    48  C   -0.039414
    49  H    0.193051
    50  C    0.638727
    51  C   -0.292794
    52  H    0.188554
    53  H    0.172426
    54  O   -0.572838
    55  C   -0.402020
    56  H    0.170888
    57  H    0.188966
    58  C    0.591240
    59  N   -0.744128
    60  H    0.334297
    61  H    0.333655
    62  O   -0.504960
    63  N   -0.605467
    64  H    0.357076
    65  C   -0.040616
    66  H    0.170093
    67  C    0.651582
    68  C   -0.401428
    69  H    0.185898
    70  H    0.128248
    71  O   -0.557392
    72  C    0.143194
    73  C   -0.206436
    74  H    0.099057
    75  C   -0.207019
    76  H    0.139510
    77  C   -0.218503
    78  H    0.083068
    79  C   -0.234851
    80  H    0.063438
    81  O   -0.734560
    82  C    0.413763
    83  N   -0.605705
    84  H    0.343845
    85  C   -0.043541
    86  H    0.162847
    87  C    0.646948
    88  C   -0.484913
    89  H    0.173108
    90  H    0.174223
    91  H    0.176926
    92  O   -0.514072
    93  N   -0.605022
    94  H    0.348897
    95  C   -0.041646
    96  H    0.213204
    97  C    0.580528
    98  C   -0.275874
    99  H    0.162844
   100  H    0.146698
   101  O   -0.463475
   102  C   -0.288869
   103  H    0.203424
   104  H    0.179490
   105  C   -0.183420
   106  H    0.166555
   107  H    0.180463
   108  N   -0.584807
   109  H    0.358727
   110  N   -0.719881
   111  H    0.391389
   112  H    0.368740
   113  N   -0.756608
   114  H    0.389867
   115  H    0.349923
   116  C    0.784140
   117  O   -0.562158
   118  H    0.423374
 Sum of Mulliken charges =   1.00000

 Dipole moment (field-independent basis, Debye):
    X=            -19.2101    Y=            -19.1479    Z=              1.3398  Tot=             27.1563
 Quadrupole moment (field-independent basis, Debye-Ang):
   XX=           -118.1605   YY=           -201.1236   ZZ=           -181.9825
   XY=            154.0548   XZ=            133.2786   YZ=            160.4382

 Normal termination of Gaussian 16 at Sun Jul 17 00:17:34 2022.
