 Gaussian 16, Revision C.01,
 Gaussian 16:  ES64L-G16RevC.01  3-Jul-2019

 ----------------------------------------------------------------------
 # B3LYP/6-31G* empiricaldispersion=gd3bj guess=read geom=check nosymm
 integral(ultrafinegrid)
 ----------------------------------------------------------------------

 ------------------------------------------------------
 Candidate Structure: Conf:684 Charge calc in gas phase
 ------------------------------------------------------
 Structure from the checkpoint file:  "conf-684.chk"
 Charge =  1 Multiplicity = 1

                          Input orientation:
 ---------------------------------------------------------------------
 Center     Atomic      Atomic             Coordinates (Angstroms)
 Number     Number       Type             X           Y           Z
 ---------------------------------------------------------------------
      1          7           0       -3.550314    3.244335   -5.746623
      2          1           0       -4.430752    3.455877   -6.219912
      3          1           0       -2.750371    3.518552   -6.340965
      4          1           0       -3.557184    3.688198   -4.789016
      5          6           0       -3.383808    1.785172   -5.421463
      6          1           0       -4.016962    1.199607   -6.091957
      7          6           0       -3.804260    1.694105   -3.938548
      8          6           0       -1.891241    1.434976   -5.623247
      9          1           0       -1.324633    1.815758   -4.763737
     10          8           0       -3.868199    2.753380   -3.301313
     11          6           0       -1.650979   -0.061712   -5.734302
     12          1           0       -1.862654   -0.561830   -4.786693
     13          1           0       -2.247929   -0.505840   -6.538405
     14          1           0       -0.592782   -0.240136   -5.954584
     15          8           0       -1.543179    2.134323   -6.839258
     16          1           0       -0.581770    2.083458   -6.951893
     17          7           0       -4.048630    0.475088   -3.476631
     18          1           0       -3.893127   -0.344765   -4.064539
     19          6           0       -3.951454    0.138854   -2.058077
     20          1           0       -3.281170    0.873374   -1.609409
     21          6           0       -3.260544   -1.237521   -2.061521
     22          6           0       -5.336061    0.154077   -1.365034
     23          1           0       -5.747446    1.147340   -1.592602
     24          8           0       -3.276599   -1.940021   -3.080379
     25          6           0       -5.245370    0.034481    0.166858
     26          1           0       -4.875694   -0.961494    0.440299
     27          1           0       -6.269629    0.088831    0.555956
     28          6           0       -6.273025   -0.909489   -1.947178
     29          1           0       -5.910544   -1.920587   -1.730351
     30          1           0       -6.362967   -0.814117   -3.034136
     31          1           0       -7.274940   -0.813038   -1.516463
     32          6           0       -4.400720    1.114086    0.851860
     33          1           0       -4.499316    1.047717    1.939875
     34          1           0       -4.715928    2.117331    0.541551
     35          1           0       -3.332274    1.023243    0.623843
     36          7           0       -2.676009   -1.585965   -0.908239
     37          1           0       -2.617363   -0.921983   -0.142123
     38          6           0       -1.822123   -2.746097   -0.711239
     39          1           0       -2.420029   -3.663984   -0.775342
     40          6           0       -1.259858   -2.586172    0.711262
     41          6           0       -0.669193   -2.807530   -1.732739
     42          1           0       -0.036993   -3.683664   -1.567548
     43          1           0       -0.042519   -1.916703   -1.647324
     44          1           0       -1.088538   -2.856669   -2.738035
     45          8           0       -1.450643   -1.556199    1.355812
     46          7           0       -0.505818   -3.625507    1.171862
     47          1           0       -0.235264   -4.313627    0.476641
     48          6           0        0.578421   -3.325508    2.104399
     49          1           0        0.275710   -2.426634    2.643936
     50          6           0        1.814714   -3.043127    1.233810
     51          6           0        0.828914   -4.455469    3.110632
     52          1           0        1.090037   -5.375946    2.576050
     53          1           0       -0.101027   -4.628307    3.659085
     54          8           0        2.041101   -3.696122    0.218236
     55          6           0        1.945482   -4.102058    4.109066
     56          1           0        2.043673   -4.918410    4.832349
     57          1           0        2.909169   -3.996049    3.600346
     58          6           0        1.590248   -2.838787    4.895354
     59          7           0        2.476278   -1.795238    4.764785
     60          1           0        3.416746   -1.948648    4.412914
     61          1           0        2.362611   -1.011265    5.396353
     62          8           0        0.550450   -2.744431    5.529375
     63          7           0        2.590870   -2.016009    1.658845
     64          1           0        2.396221   -1.598085    2.564412
     65          6           0        3.730460   -1.543546    0.920268
     66          1           0        3.886675   -2.238286    0.089987
     67          6           0        4.950900   -1.476130    1.846319
     68          6           0        3.469173   -0.103409    0.375700
     69          1           0        4.342377    0.215757   -0.205371
     70          1           0        3.439591    0.555704    1.254467
     71          8           0        4.868892   -1.686122    3.061389
     72          6           0        2.233131    0.104318   -0.458142
     73          6           0        2.320092    0.274474   -1.850242
     74          1           0        3.283026    0.119949   -2.338545
     75          6           0        0.966915    0.298213    0.121567
     76          1           0        0.841309    0.156203    1.192761
     77          6           0        1.232737    0.674811   -2.623893
     78          1           0        1.334772    0.766576   -3.703296
     79          6           0       -0.134262    0.707279   -0.623756
     80          1           0       -1.094426    0.833238   -0.134015
     81          8           0       -1.097376    1.198455   -2.750357
     82          6           0       -0.080466    0.885308   -2.057070
     83          7           0        6.103875   -1.034917    1.282471
     84          1           0        6.096523   -0.794647    0.300011
     85          6           0        7.161883   -0.412641    2.093257
     86          1           0        7.265575   -1.023891    2.992548
     87          6           0        6.664740    1.000528    2.480584
     88          6           0        8.469270   -0.355551    1.319677
     89          1           0        9.258614    0.067195    1.946468
     90          1           0        8.767550   -1.359835    1.006828
     91          1           0        8.371098    0.289697    0.441454
     92          8           0        7.017873    2.018098    1.888315
     93          7           0        5.745935    1.018542    3.481716
     94          1           0        5.404209    0.147628    3.879955
     95          6           0        5.123267    2.256979    3.893051
     96          1           0        5.905664    2.982406    4.142501
     97          6           0        4.299190    1.970640    5.135837
     98          6           0        4.208354    2.888418    2.798866
     99          1           0        3.171025    2.560824    2.954424
    100          1           0        4.534411    2.487681    1.837769
    101          8           0        3.977692    0.864871    5.513219
    102          6           0        4.310852    4.414187    2.770262
    103          1           0        5.344192    4.677146    2.510586
    104          1           0        4.116404    4.831672    3.764669
    105          6           0        3.348332    5.094366    1.789748
    106          1           0        3.559720    6.166991    1.739582
    107          1           0        2.310853    5.008574    2.122785
    108          7           0        3.431044    4.566733    0.422327
    109          1           0        4.291276    4.750508   -0.077049
    110          7           0        1.482325    3.276731    0.483962
    111          1           0        0.903342    2.545917    0.048883
    112          1           0        1.465324    3.289870    1.491940
    113          7           0        2.746704    3.357720   -1.435816
    114          1           0        2.246053    2.550223   -1.828359
    115          1           0        3.498674    3.751291   -1.981283
    116          6           0        2.564372    3.720943   -0.162017
    117          8           0        3.913022    3.108291    5.743432
    118          1           0        3.365843    2.855136    6.512186
 ---------------------------------------------------------------------

 SCF Done:  E(RB3LYP) =  -2837.90591501     A.U. after    2 cycles

 Alpha  occ. eigenvalues --  -19.30003 -19.26386 -19.24507 -19.22229 -19.21549
 Alpha  occ. eigenvalues --  -19.20204 -19.19082 -19.18408 -19.18140 -19.16101
 Alpha  occ. eigenvalues --  -19.13316 -14.55329 -14.50587 -14.48792 -14.48452
 Alpha  occ. eigenvalues --  -14.45549 -14.44433 -14.44269 -14.42766 -14.42136
 Alpha  occ. eigenvalues --  -14.42070 -14.40202 -10.45963 -10.42454 -10.39029
 Alpha  occ. eigenvalues --  -10.38163 -10.37068 -10.36186 -10.35633 -10.35297
 Alpha  occ. eigenvalues --  -10.35181 -10.35095 -10.34138 -10.33772 -10.33761
 Alpha  occ. eigenvalues --  -10.31889 -10.31390 -10.29912 -10.29884 -10.29731
 Alpha  occ. eigenvalues --  -10.29385 -10.29071 -10.28870 -10.27929 -10.26031
 Alpha  occ. eigenvalues --  -10.25842 -10.25734 -10.25520 -10.25263 -10.24937
 Alpha  occ. eigenvalues --  -10.24762 -10.24698 -10.23963 -10.23532 -10.23326
 Alpha  occ. eigenvalues --  -10.23110 -10.23047 -10.23020  -1.21000  -1.15167
 Alpha  occ. eigenvalues --   -1.14539  -1.13523  -1.13267  -1.12248  -1.11782
 Alpha  occ. eigenvalues --   -1.11245  -1.10283  -1.09886  -1.09041  -1.07965
 Alpha  occ. eigenvalues --   -1.04212  -1.02490  -1.02092  -1.02007  -1.01645
 Alpha  occ. eigenvalues --   -1.01250  -0.99969  -0.99250  -0.98915  -0.94985
 Alpha  occ. eigenvalues --   -0.91217  -0.90680  -0.89306  -0.87537  -0.87157
 Alpha  occ. eigenvalues --   -0.86296  -0.85353  -0.83750  -0.83024  -0.81224
 Alpha  occ. eigenvalues --   -0.80411  -0.80087  -0.79339  -0.78915  -0.77112
 Alpha  occ. eigenvalues --   -0.76578  -0.76501  -0.74241  -0.73149  -0.72706
 Alpha  occ. eigenvalues --   -0.72060  -0.71830  -0.71647  -0.70378  -0.70180
 Alpha  occ. eigenvalues --   -0.69455  -0.68861  -0.67795  -0.67437  -0.67394
 Alpha  occ. eigenvalues --   -0.67139  -0.66985  -0.66539  -0.66102  -0.65196
 Alpha  occ. eigenvalues --   -0.63995  -0.63334  -0.63187  -0.62938  -0.62476
 Alpha  occ. eigenvalues --   -0.62373  -0.62229  -0.61581  -0.61219  -0.60381
 Alpha  occ. eigenvalues --   -0.59654  -0.59404  -0.58870  -0.58512  -0.57944
 Alpha  occ. eigenvalues --   -0.57803  -0.57107  -0.56739  -0.56288  -0.55941
 Alpha  occ. eigenvalues --   -0.55427  -0.55263  -0.55063  -0.55008  -0.54773
 Alpha  occ. eigenvalues --   -0.54587  -0.54183  -0.53419  -0.53149  -0.52639
 Alpha  occ. eigenvalues --   -0.52212  -0.52096  -0.51543  -0.51515  -0.51259
 Alpha  occ. eigenvalues --   -0.51211  -0.51144  -0.50791  -0.50525  -0.50136
 Alpha  occ. eigenvalues --   -0.49999  -0.49857  -0.49141  -0.48701  -0.48591
 Alpha  occ. eigenvalues --   -0.48072  -0.47990  -0.47909  -0.47723  -0.47645
 Alpha  occ. eigenvalues --   -0.47464  -0.47252  -0.47157  -0.46345  -0.46165
 Alpha  occ. eigenvalues --   -0.46008  -0.45765  -0.45589  -0.45418  -0.45314
 Alpha  occ. eigenvalues --   -0.45160  -0.44819  -0.44793  -0.44673  -0.44518
 Alpha  occ. eigenvalues --   -0.44117  -0.43928  -0.43550  -0.43412  -0.43180
 Alpha  occ. eigenvalues --   -0.42849  -0.42335  -0.42172  -0.41543  -0.41439
 Alpha  occ. eigenvalues --   -0.41272  -0.41105  -0.41020  -0.40377  -0.40141
 Alpha  occ. eigenvalues --   -0.39873  -0.39330  -0.39168  -0.39021  -0.38346
 Alpha  occ. eigenvalues --   -0.38148  -0.38119  -0.36832  -0.36786  -0.36435
 Alpha  occ. eigenvalues --   -0.35173  -0.34454  -0.34247  -0.33953  -0.33083
 Alpha  occ. eigenvalues --   -0.32756  -0.32500  -0.32240  -0.32059  -0.31748
 Alpha  occ. eigenvalues --   -0.31454  -0.30912  -0.29690  -0.27268  -0.24186
 Alpha virt. eigenvalues --   -0.09999  -0.09408  -0.08540  -0.07965  -0.06781
 Alpha virt. eigenvalues --   -0.06692  -0.06130  -0.05518  -0.05397  -0.04422
 Alpha virt. eigenvalues --   -0.04226  -0.04050  -0.03793  -0.02741  -0.02692

 Mulliken charges:
               1
     1  N   -0.751668
     2  H    0.403895
     3  H    0.419220
     4  H    0.418497
     5  C   -0.137489
     6  H    0.200614
     7  C    0.688013
     8  C    0.113637
     9  H    0.208104
    10  O   -0.551408
    11  C   -0.486432
    12  H    0.214898
    13  H    0.156185
    14  H    0.158038
    15  O   -0.662517
    16  H    0.420135
    17  N   -0.604824
    18  H    0.368673
    19  C   -0.078661
    20  H    0.207514
    21  C    0.658996
    22  C   -0.070033
    23  H    0.144862
    24  O   -0.570287
    25  C   -0.271836
    26  H    0.149515
    27  H    0.147697
    28  C   -0.462135
    29  H    0.161884
    30  H    0.143413
    31  H    0.154554
    32  C   -0.469648
    33  H    0.160421
    34  H    0.151822
    35  H    0.150444
    36  N   -0.641801
    37  H    0.381728
    38  C   -0.030885
    39  H    0.181125
    40  C    0.616910
    41  C   -0.485491
    42  H    0.165279
    43  H    0.186878
    44  H    0.192700
    45  O   -0.534813
    46  N   -0.586914
    47  H    0.345172
    48  C   -0.099733
    49  H    0.201402
    50  C    0.620033
    51  C   -0.263620
    52  H    0.154255
    53  H    0.189926
    54  O   -0.539317
    55  C   -0.374581
    56  H    0.185262
    57  H    0.155867
    58  C    0.565422
    59  N   -0.802504
    60  H    0.390456
    61  H    0.347752
    62  O   -0.495357
    63  N   -0.603649
    64  H    0.358150
    65  C   -0.065717
    66  H    0.206689
    67  C    0.636007
    68  C   -0.384438
    69  H    0.126460
    70  H    0.137526
    71  O   -0.551847
    72  C    0.182320
    73  C   -0.208053
    74  H    0.109819
    75  C   -0.219103
    76  H    0.127167
    77  C   -0.275670
    78  H    0.099412
    79  C   -0.293325
    80  H    0.133355
    81  O   -0.664285
    82  C    0.455672
    83  N   -0.584377
    84  H    0.339898
    85  C   -0.063314
    86  H    0.193433
    87  C    0.619021
    88  C   -0.461229
    89  H    0.180044
    90  H    0.170619
    91  H    0.164982
    92  O   -0.541141
    93  N   -0.643682
    94  H    0.386871
    95  C    0.006007
    96  H    0.201075
    97  C    0.571833
    98  C   -0.289660
    99  H    0.133270
   100  H    0.184667
   101  O   -0.459103
   102  C   -0.284985
   103  H    0.177404
   104  H    0.185950
   105  C   -0.182080
   106  H    0.196462
   107  H    0.176401
   108  N   -0.596302
   109  H    0.356736
   110  N   -0.758270
   111  H    0.390576
   112  H    0.363968
   113  N   -0.776912
   114  H    0.396204
   115  H    0.358259
   116  C    0.803446
   117  O   -0.561982
   118  H    0.430177
 Sum of Mulliken charges =   1.00000

 Dipole moment (field-independent basis, Debye):
    X=              6.9993    Y=             17.6859    Z=            -10.3102  Tot=             21.6352
 Quadrupole moment (field-independent basis, Debye-Ang):
   XX=           -239.6741   YY=           -265.5057   ZZ=           -232.8754
   XY=             11.6282   XZ=             64.6923   YZ=            -24.8523

 Normal termination of Gaussian 16 at Sun Jul 17 00:18:28 2022.
