 Gaussian 16, Revision C.01,
 Gaussian 16:  ES64L-G16RevC.01  3-Jul-2019

 ----------------------------------------------------------------------
 # B3LYP/6-31G* empiricaldispersion=gd3bj guess=read geom=check nosymm
 integral(ultrafinegrid)
 ----------------------------------------------------------------------

 ------------------------------------------------------
 Candidate Structure: Conf:962 Charge calc in gas phase
 ------------------------------------------------------
 Structure from the checkpoint file:  "conf-962.chk"
 Charge =  1 Multiplicity = 1

                          Input orientation:
 ---------------------------------------------------------------------
 Center     Atomic      Atomic             Coordinates (Angstroms)
 Number     Number       Type             X           Y           Z
 ---------------------------------------------------------------------
      1          7           0       -0.680477   -0.395785   -6.652525
      2          1           0       -0.923657    0.371994   -7.274852
      3          1           0       -0.239671   -1.137818   -7.194143
      4          1           0        0.439262    0.371879   -5.569024
      5          6           0       -1.886284   -0.954511   -6.032026
      6          1           0       -2.674198   -1.181773   -6.770878
      7          6           0       -2.428060    0.099199   -5.056553
      8          6           0       -1.463029   -2.298981   -5.360534
      9          1           0       -0.819172   -2.056984   -4.511551
     10          8           0       -1.873191    1.193157   -4.931195
     11          6           0       -2.610628   -3.190437   -4.896260
     12          1           0       -3.063720   -2.837621   -3.968143
     13          1           0       -3.390240   -3.286607   -5.663324
     14          1           0       -2.211876   -4.189289   -4.693865
     15          8           0       -0.629419   -3.009009   -6.279075
     16          1           0       -1.198259   -3.539331   -6.861267
     17          7           0       -3.532480   -0.200949   -4.324278
     18          1           0       -3.883683   -1.146292   -4.351771
     19          6           0       -3.721271    0.539451   -3.081498
     20          1           0       -3.868380    1.586822   -3.353821
     21          6           0       -2.390610    0.440761   -2.294576
     22          6           0       -4.965562    0.051956   -2.303803
     23          1           0       -5.800002    0.133798   -3.014874
     24          8           0       -1.652540   -0.548255   -2.401857
     25          6           0       -5.285641    0.966737   -1.104708
     26          1           0       -4.468358    0.912011   -0.373721
     27          1           0       -6.160794    0.542239   -0.600110
     28          6           0       -4.858228   -1.404666   -1.837990
     29          1           0       -4.030306   -1.547310   -1.138975
     30          1           0       -4.711919   -2.112897   -2.660257
     31          1           0       -5.780574   -1.701239   -1.329735
     32          6           0       -5.591643    2.426911   -1.453361
     33          1           0       -5.914260    2.975385   -0.563274
     34          1           0       -6.393365    2.495920   -2.197514
     35          1           0       -4.727043    2.965434   -1.864548
     36          7           0       -2.065517    1.519061   -1.558027
     37          1           0       -2.731223    2.277376   -1.493413
     38          6           0       -0.724209    1.753418   -1.006909
     39          1           0       -0.009003    1.416819   -1.766129
     40          6           0       -0.455577    0.941923    0.276795
     41          6           0       -0.528582    3.235852   -0.730934
     42          1           0        0.480776    3.393825   -0.346834
     43          1           0       -1.227037    3.587502    0.033649
     44          1           0       -0.658484    3.813762   -1.652137
     45          8           0       -0.384734    1.476966    1.380904
     46          7           0       -0.224626   -0.369188    0.057243
     47          1           0       -0.267118   -0.692023   -0.904092
     48          6           0        0.320404   -1.265083    1.072759
     49          1           0       -0.048783   -0.911928    2.041168
     50          6           0        1.864801   -1.153667    1.036964
     51          6           0       -0.131537   -2.694524    0.784983
     52          1           0        0.323545   -3.372778    1.509350
     53          1           0        0.281880   -2.985934   -0.188037
     54          8           0        2.583835   -2.128177    0.838831
     55          6           0       -1.668613   -2.844118    0.779520
     56          1           0       -2.040250   -3.101322    1.773454
     57          1           0       -2.129253   -1.896308    0.476271
     58          6           0       -2.084527   -3.948207   -0.182228
     59          7           0       -2.124621   -3.556350   -1.500516
     60          1           0       -1.855523   -2.629224   -1.806208
     61          1           0       -2.223619   -4.286315   -2.190811
     62          8           0       -2.327395   -5.091618    0.164222
     63          7           0        2.327612    0.117085    1.158932
     64          1           0        1.679070    0.878736    1.344327
     65          6           0        3.677893    0.507940    0.822380
     66          1           0        4.381894    0.130308    1.576955
     67          6           0        3.717757    2.041073    0.843631
     68          6           0        4.155456   -0.044297   -0.553524
     69          1           0        4.249261   -1.124294   -0.440240
     70          1           0        5.160160    0.352181   -0.743129
     71          8           0        2.686429    2.721593    0.864701
     72          6           0        3.254905    0.271037   -1.724851
     73          6           0        2.424852   -0.711084   -2.280022
     74          1           0        2.395657   -1.695319   -1.821123
     75          6           0        3.272823    1.532341   -2.334105
     76          1           0        3.902421    2.322521   -1.935764
     77          6           0        1.662902   -0.466058   -3.425443
     78          1           0        1.060649   -1.256157   -3.861070
     79          6           0        2.517407    1.791000   -3.473050
     80          1           0        2.579709    2.760794   -3.954474
     81          8           0        1.050611    1.088383   -5.196787
     82          6           0        1.722852    0.787085   -4.039978
     83          7           0        4.952274    2.591808    0.813657
     84          1           0        5.754119    1.975395    0.839131
     85          6           0        5.211711    4.013573    1.074268
     86          1           0        4.461435    4.342367    1.805318
     87          6           0        5.008066    4.912363   -0.162697
     88          6           0        6.613289    4.182023    1.646592
     89          1           0        6.802937    5.234381    1.862104
     90          1           0        6.716962    3.605266    2.570655
     91          1           0        7.371319    3.856722    0.926532
     92          8           0        5.858069    5.703147   -0.543943
     93          7           0        3.774743    4.817081   -0.760142
     94          1           0        3.064870    4.320094   -0.221913
     95          6           0        3.355675    5.934812   -1.584585
     96          1           0        4.097262    6.092207   -2.371509
     97          6           0        3.308679    7.210924   -0.732524
     98          6           0        1.979577    5.643157   -2.205917
     99          1           0        1.277286    5.392343   -1.402475
    100          1           0        2.082963    4.742736   -2.822441
    101          8           0        3.049202    7.237343    0.446704
    102          6           0        1.406500    6.806335   -3.026447
    103          1           0        2.185743    7.257458   -3.654119
    104          1           0        1.065566    7.606012   -2.360897
    105          6           0        0.225602    6.398030   -3.914106
    106          1           0       -0.293197    7.280378   -4.300025
    107          1           0       -0.502903    5.821884   -3.339115
    108          7           0        0.665268    5.597536   -5.064783
    109          1           0        1.323364    6.058199   -5.680736
    110          7           0       -0.352023    3.559816   -4.538071
    111          1           0       -0.463120    2.559616   -4.722604
    112          1           0       -1.135681    4.019351   -4.102077
    113          7           0        1.299316    3.645582   -6.147258
    114          1           0        1.311347    2.618397   -6.084748
    115          1           0        2.159888    4.086804   -6.442493
    116          6           0        0.536031    4.272228   -5.234835
    117          8           0        3.547237    8.314729   -1.474518
    118          1           0        3.502152    9.077588   -0.866099
 ---------------------------------------------------------------------

 SCF Done:  E(RB3LYP) =  -2837.94735961     A.U. after    2 cycles

 Alpha  occ. eigenvalues --  -19.27816 -19.26225 -19.25798 -19.23797 -19.23337
 Alpha  occ. eigenvalues --  -19.21903 -19.21493 -19.19534 -19.19477 -19.18313
 Alpha  occ. eigenvalues --  -19.16323 -14.51544 -14.49572 -14.49386 -14.47523
 Alpha  occ. eigenvalues --  -14.47132 -14.45525 -14.44598 -14.43387 -14.43029
 Alpha  occ. eigenvalues --  -14.42116 -14.41036 -10.46893 -10.40572 -10.39986
 Alpha  occ. eigenvalues --  -10.39849 -10.38082 -10.36520 -10.36176 -10.36138
 Alpha  occ. eigenvalues --  -10.35391 -10.35300 -10.34269 -10.34128 -10.34053
 Alpha  occ. eigenvalues --  -10.33710 -10.32814 -10.32504 -10.31717 -10.31578
 Alpha  occ. eigenvalues --  -10.30571 -10.30192 -10.29942 -10.29867 -10.29103
 Alpha  occ. eigenvalues --  -10.27831 -10.27476 -10.27399 -10.27270 -10.27263
 Alpha  occ. eigenvalues --  -10.27218 -10.27152 -10.27049 -10.26844 -10.26723
 Alpha  occ. eigenvalues --  -10.25602 -10.25378 -10.25080  -1.18609  -1.16253
 Alpha  occ. eigenvalues --   -1.15620  -1.14497  -1.13643  -1.13339  -1.13334
 Alpha  occ. eigenvalues --   -1.11607  -1.11465  -1.10052  -1.09613  -1.08254
 Alpha  occ. eigenvalues --   -1.05243  -1.03926  -1.03692  -1.02995  -1.01869
 Alpha  occ. eigenvalues --   -1.00949  -1.00670  -1.00314  -0.99083  -0.95684
 Alpha  occ. eigenvalues --   -0.93611  -0.91683  -0.91506  -0.87942  -0.87709
 Alpha  occ. eigenvalues --   -0.87234  -0.86076  -0.85587  -0.84423  -0.83664
 Alpha  occ. eigenvalues --   -0.83136  -0.81517  -0.81336  -0.79491  -0.79376
 Alpha  occ. eigenvalues --   -0.78850  -0.76889  -0.74758  -0.74378  -0.73888
 Alpha  occ. eigenvalues --   -0.73331  -0.73017  -0.72434  -0.72372  -0.71259
 Alpha  occ. eigenvalues --   -0.70458  -0.69848  -0.69500  -0.68520  -0.68156
 Alpha  occ. eigenvalues --   -0.67524  -0.67210  -0.66999  -0.66303  -0.65090
 Alpha  occ. eigenvalues --   -0.64346  -0.64042  -0.63955  -0.63601  -0.63193
 Alpha  occ. eigenvalues --   -0.63092  -0.62508  -0.62046  -0.61203  -0.60914
 Alpha  occ. eigenvalues --   -0.60508  -0.59827  -0.59677  -0.59519  -0.59229
 Alpha  occ. eigenvalues --   -0.59162  -0.58457  -0.58099  -0.57732  -0.57043
 Alpha  occ. eigenvalues --   -0.56455  -0.56334  -0.55971  -0.55814  -0.55369
 Alpha  occ. eigenvalues --   -0.55203  -0.55048  -0.54784  -0.54501  -0.53936
 Alpha  occ. eigenvalues --   -0.53847  -0.53755  -0.53142  -0.52859  -0.52638
 Alpha  occ. eigenvalues --   -0.52489  -0.52093  -0.51832  -0.51789  -0.51596
 Alpha  occ. eigenvalues --   -0.50916  -0.50849  -0.50577  -0.50039  -0.49945
 Alpha  occ. eigenvalues --   -0.49627  -0.49366  -0.49248  -0.49067  -0.48878
 Alpha  occ. eigenvalues --   -0.48535  -0.48451  -0.48171  -0.48023  -0.47776
 Alpha  occ. eigenvalues --   -0.47610  -0.47192  -0.47143  -0.46956  -0.46689
 Alpha  occ. eigenvalues --   -0.46500  -0.46487  -0.45941  -0.45872  -0.45300
 Alpha  occ. eigenvalues --   -0.45208  -0.45088  -0.44944  -0.44902  -0.44479
 Alpha  occ. eigenvalues --   -0.44325  -0.44182  -0.43507  -0.43295  -0.43079
 Alpha  occ. eigenvalues --   -0.42638  -0.42399  -0.42282  -0.42224  -0.41907
 Alpha  occ. eigenvalues --   -0.41322  -0.41221  -0.41129  -0.40870  -0.40057
 Alpha  occ. eigenvalues --   -0.39848  -0.39498  -0.38557  -0.38138  -0.37192
 Alpha  occ. eigenvalues --   -0.36846  -0.36621  -0.36391  -0.35886  -0.35219
 Alpha  occ. eigenvalues --   -0.34912  -0.33905  -0.33444  -0.32720  -0.32442
 Alpha  occ. eigenvalues --   -0.32165  -0.31692  -0.30803  -0.30283  -0.29856
 Alpha virt. eigenvalues --   -0.11421  -0.10859  -0.09063  -0.08608  -0.08255
 Alpha virt. eigenvalues --   -0.07608  -0.07284  -0.06941  -0.06788  -0.06140
 Alpha virt. eigenvalues --   -0.05587  -0.04306  -0.03950  -0.03155  -0.02751

 Mulliken charges:
               1
     1  N   -0.776594
     2  H    0.331711
     3  H    0.354459
     4  H    0.483556
     5  C   -0.103946
     6  H    0.154174
     7  C    0.647532
     8  C    0.144127
     9  H    0.184704
    10  O   -0.561769
    11  C   -0.544855
    12  H    0.179587
    13  H    0.160526
    14  H    0.193491
    15  O   -0.617704
    16  H    0.404795
    17  N   -0.602742
    18  H    0.344938
    19  C   -0.040582
    20  H    0.168425
    21  C    0.651780
    22  C   -0.112073
    23  H    0.153432
    24  O   -0.575736
    25  C   -0.275803
    26  H    0.150852
    27  H    0.167177
    28  C   -0.476522
    29  H    0.177721
    30  H    0.142633
    31  H    0.175559
    32  C   -0.463611
    33  H    0.176375
    34  H    0.165455
    35  H    0.117000
    36  N   -0.605757
    37  H    0.348815
    38  C   -0.070170
    39  H    0.198576
    40  C    0.626298
    41  C   -0.498233
    42  H    0.216182
    43  H    0.183054
    44  H    0.111393
    45  O   -0.524789
    46  N   -0.605543
    47  H    0.369375
    48  C   -0.084979
    49  H    0.197937
    50  C    0.641530
    51  C   -0.284434
    52  H    0.193643
    53  H    0.155088
    54  O   -0.530557
    55  C   -0.366518
    56  H    0.181652
    57  H    0.151731
    58  C    0.571001
    59  N   -0.795507
    60  H    0.368151
    61  H    0.334093
    62  O   -0.485199
    63  N   -0.658669
    64  H    0.396241
    65  C   -0.001652
    66  H    0.177056
    67  C    0.622895
    68  C   -0.399859
    69  H    0.214459
    70  H    0.148979
    71  O   -0.551997
    72  C    0.175799
    73  C   -0.219935
    74  H    0.170021
    75  C   -0.194176
    76  H    0.154529
    77  C   -0.188011
    78  H    0.150572
    79  C   -0.184667
    80  H    0.102901
    81  O   -0.761306
    82  C    0.363571
    83  N   -0.606448
    84  H    0.346646
    85  C   -0.072436
    86  H    0.203910
    87  C    0.629566
    88  C   -0.473807
    89  H    0.196968
    90  H    0.160151
    91  H    0.167448
    92  O   -0.505173
    93  N   -0.631562
    94  H    0.381767
    95  C   -0.017441
    96  H    0.188303
    97  C    0.591508
    98  C   -0.319640
    99  H    0.173228
   100  H    0.160993
   101  O   -0.457877
   102  C   -0.277577
   103  H    0.163670
   104  H    0.181196
   105  C   -0.167321
   106  H    0.195906
   107  H    0.165122
   108  N   -0.591767
   109  H    0.356194
   110  N   -0.776221
   111  H    0.454547
   112  H    0.360758
   113  N   -0.763806
   114  H    0.416805
   115  H    0.356523
   116  C    0.764796
   117  O   -0.568393
   118  H    0.421805
 Sum of Mulliken charges =   1.00000

 Dipole moment (field-independent basis, Debye):
    X=             -3.4327    Y=             16.2363    Z=            -25.1526  Tot=             30.1339
 Quadrupole moment (field-independent basis, Debye-Ang):
   XX=           -283.2302   YY=           -264.8161   ZZ=           -198.3594
   XY=             10.5831   XZ=             31.9851   YZ=            -45.3413

 Normal termination of Gaussian 16 at Sun Jul 17 00:19:04 2022.
