 Gaussian 16, Revision C.01,
 Gaussian 16:  ES64L-G16RevC.01  3-Jul-2019

 ----------------------------------------------------------------------
 # B3LYP/6-31G* empiricaldispersion=gd3bj guess=read geom=check nosymm
 integral(ultrafinegrid)
 ----------------------------------------------------------------------

 ------------------------------------------------------
 Candidate Structure: Conf:883 Charge calc in gas phase
 ------------------------------------------------------
 Structure from the checkpoint file:  "conf-883.chk"
 Charge =  1 Multiplicity = 1

                          Input orientation:
 ---------------------------------------------------------------------
 Center     Atomic      Atomic             Coordinates (Angstroms)
 Number     Number       Type             X           Y           Z
 ---------------------------------------------------------------------
      1          7           0       -3.595553    0.777312  -10.247467
      2          1           0       -4.350807    1.431810  -10.462869
      3          1           0       -3.545684    0.038062  -10.968933
      4          1           0       -2.698138    1.321604  -10.126114
      5          6           0       -3.746277    0.107004   -8.912992
      6          1           0       -4.802155    0.091051   -8.633872
      7          6           0       -2.866152    0.960047   -7.970895
      8          6           0       -3.178905   -1.337288   -9.065010
      9          1           0       -2.086100   -1.259863   -9.084817
     10          8           0       -2.009976    1.681335   -8.507482
     11          6           0       -3.622908   -2.267831   -7.947113
     12          1           0       -3.285746   -1.929893   -6.962237
     13          1           0       -4.717860   -2.347769   -7.920199
     14          1           0       -3.205597   -3.263520   -8.121364
     15          8           0       -3.540974   -1.821032  -10.363076
     16          1           0       -4.351197   -2.351896  -10.287894
     17          7           0       -3.081440    0.783997   -6.680546
     18          1           0       -3.743193    0.079670   -6.340976
     19          6           0       -2.186660    1.181200   -5.589807
     20          1           0       -1.190663    1.361812   -5.998478
     21          6           0       -2.207262   -0.056623   -4.669403
     22          6           0       -2.725759    2.461115   -4.888641
     23          1           0       -2.943061    3.156207   -5.713147
     24          8           0       -3.204431   -0.806711   -4.717963
     25          6           0       -1.693046    3.134828   -3.970372
     26          1           0       -1.447030    2.450367   -3.150977
     27          1           0       -2.202181    3.990182   -3.506693
     28          6           0       -4.022034    2.185147   -4.115139
     29          1           0       -3.821997    1.558867   -3.239712
     30          1           0       -4.776342    1.681195   -4.728806
     31          1           0       -4.451830    3.129655   -3.765276
     32          6           0       -0.422137    3.620117   -4.674673
     33          1           0        0.146016    4.282767   -4.010786
     34          1           0       -0.664594    4.187922   -5.582620
     35          1           0        0.238989    2.785744   -4.927651
     36          7           0       -1.157165   -0.212346   -3.875762
     37          1           0       -0.284251    0.360605   -4.005625
     38          6           0       -1.136926   -1.212461   -2.819697
     39          1           0       -2.088539   -1.749347   -2.883326
     40          6           0       -1.149511   -0.447510   -1.476176
     41          6           0        0.024437   -2.190681   -3.019566
     42          1           0       -0.014482   -3.005706   -2.289273
     43          1           0        0.991677   -1.685918   -2.939322
     44          1           0       -0.045611   -2.635539   -4.016206
     45          8           0       -1.844624    0.561413   -1.338834
     46          7           0       -0.385023   -0.960392   -0.484364
     47          1           0        0.326151   -1.653587   -0.702119
     48          6           0       -0.011687   -0.143203    0.658911
     49          1           0       -0.018808    0.895651    0.326792
     50          6           0        1.447937   -0.489266    0.973246
     51          6           0       -0.952874   -0.263589    1.880881
     52          1           0       -0.367928   -0.268783    2.805776
     53          1           0       -1.478462   -1.221190    1.823128
     54          8           0        2.016112   -1.436407    0.429331
     55          6           0       -1.964440    0.881893    1.925458
     56          1           0       -2.474652    0.952007    0.956529
     57          1           0       -2.728224    0.698942    2.691726
     58          6           0       -1.300222    2.227045    2.202034
     59          7           0       -2.159190    3.256734    2.420362
     60          1           0       -3.160354    3.137275    2.395720
     61          1           0       -1.780938    4.177084    2.593133
     62          8           0       -0.080007    2.401899    2.219754
     63          7           0        2.052053    0.354739    1.847637
     64          1           0        1.520661    1.159510    2.182077
     65          6           0        3.491096    0.453175    1.847311
     66          1           0        3.900314   -0.545591    1.682281
     67          6           0        3.993369    1.096615    3.133695
     68          6           0        3.993399    1.435998    0.725723
     69          1           0        5.078684    1.328334    0.632938
     70          1           0        3.808032    2.437669    1.124294
     71          8           0        3.308342    1.888095    3.768163
     72          6           0        3.313724    1.323257   -0.609004
     73          6           0        3.797727    0.491878   -1.636857
     74          1           0        4.716002   -0.068958   -1.471154
     75          6           0        2.101393    2.003329   -0.851234
     76          1           0        1.681588    2.626056   -0.061364
     77          6           0        3.136661    0.373536   -2.851741
     78          1           0        3.523050   -0.277990   -3.631443
     79          6           0        1.415663    1.882257   -2.050819
     80          1           0        0.478216    2.408318   -2.191574
     81          8           0        1.260801    0.885087   -4.225199
     82          6           0        1.891789    1.042985   -3.113570
     83          7           0        5.319356    0.854715    3.416245
     84          1           0        5.832209    0.343992    2.705265
     85          6           0        6.115798    1.910272    4.035260
     86          1           0        5.429383    2.492656    4.653752
     87          6           0        6.683337    2.775086    2.895857
     88          6           0        7.254392    1.333332    4.879327
     89          1           0        7.834303    2.134520    5.349773
     90          1           0        6.845519    0.687941    5.661032
     91          1           0        7.932915    0.743869    4.253754
     92          8           0        7.102389    2.258213    1.860549
     93          7           0        6.667796    4.123523    3.082079
     94          1           0        6.453579    4.513258    3.992320
     95          6           0        7.275277    5.015275    2.112715
     96          1           0        7.986033    4.422380    1.529324
     97          6           0        8.020407    6.104171    2.865809
     98          6           0        6.253384    5.656499    1.132748
     99          1           0        6.827645    6.131905    0.328207
    100          1           0        5.702324    6.454236    1.649212
    101          8           0        7.922712    6.307431    4.055072
    102          6           0        5.257022    4.627477    0.594324
    103          1           0        4.675152    4.251363    1.439984
    104          1           0        5.785138    3.764356    0.177228
    105          6           0        4.262066    5.178994   -0.429790
    106          1           0        3.833816    6.126622   -0.085851
    107          1           0        3.427162    4.487083   -0.565426
    108          7           0        4.842792    5.430031   -1.757834
    109          1           0        5.472711    6.215530   -1.851105
    110          7           0        4.295862    3.369866   -2.700393
    111          1           0        3.998177    2.827269   -3.502276
    112          1           0        4.075776    2.907029   -1.809879
    113          7           0        5.244616    5.037533   -3.999721
    114          1           0        5.240207    4.407912   -4.789644
    115          1           0        5.192016    6.022468   -4.217219
    116          6           0        4.774243    4.593916   -2.805659
    117          8           0        8.775558    6.851305    2.036168
    118          1           0        9.201935    7.538709    2.583415
 ---------------------------------------------------------------------

 SCF Done:  E(RB3LYP) =  -2837.89048893     A.U. after    2 cycles

 Alpha  occ. eigenvalues --  -19.28565 -19.27759 -19.23567 -19.22144 -19.18650
 Alpha  occ. eigenvalues --  -19.17225 -19.17014 -19.16805 -19.15556 -19.15431
 Alpha  occ. eigenvalues --  -19.11208 -14.57104 -14.49173 -14.48982 -14.47181
 Alpha  occ. eigenvalues --  -14.45878 -14.43525 -14.41047 -14.40832 -14.39437
 Alpha  occ. eigenvalues --  -14.39085 -14.38804 -10.44903 -10.40454 -10.40117
 Alpha  occ. eigenvalues --  -10.37952 -10.37531 -10.35545 -10.34378 -10.33936
 Alpha  occ. eigenvalues --  -10.33633 -10.32833 -10.32441 -10.32334 -10.31793
 Alpha  occ. eigenvalues --  -10.29817 -10.29194 -10.28792 -10.28100 -10.27601
 Alpha  occ. eigenvalues --  -10.27266 -10.27234 -10.26386 -10.26329 -10.25101
 Alpha  occ. eigenvalues --  -10.23955 -10.23873 -10.23745 -10.23177 -10.22721
 Alpha  occ. eigenvalues --  -10.22645 -10.22327 -10.22314 -10.22224 -10.22170
 Alpha  occ. eigenvalues --  -10.21110 -10.20728 -10.20644  -1.18723  -1.16910
 Alpha  occ. eigenvalues --   -1.15243  -1.13469  -1.10883  -1.10840  -1.09781
 Alpha  occ. eigenvalues --   -1.09013  -1.08757  -1.08512  -1.07671  -1.06772
 Alpha  occ. eigenvalues --   -1.03022  -1.02718  -1.01268  -1.00227  -1.00096
 Alpha  occ. eigenvalues --   -0.97737  -0.96755  -0.96395  -0.95921  -0.95668
 Alpha  occ. eigenvalues --   -0.90896  -0.89155  -0.88025  -0.86927  -0.85074
 Alpha  occ. eigenvalues --   -0.84372  -0.83077  -0.82961  -0.81435  -0.80864
 Alpha  occ. eigenvalues --   -0.78924  -0.78397  -0.77619  -0.76828  -0.76463
 Alpha  occ. eigenvalues --   -0.75265  -0.75102  -0.74584  -0.71815  -0.71778
 Alpha  occ. eigenvalues --   -0.70591  -0.70323  -0.70125  -0.70045  -0.69351
 Alpha  occ. eigenvalues --   -0.69159  -0.68504  -0.67290  -0.66819  -0.66485
 Alpha  occ. eigenvalues --   -0.66092  -0.64375  -0.63898  -0.63509  -0.63180
 Alpha  occ. eigenvalues --   -0.62693  -0.62410  -0.62189  -0.61917  -0.61836
 Alpha  occ. eigenvalues --   -0.61114  -0.60883  -0.60840  -0.60037  -0.59925
 Alpha  occ. eigenvalues --   -0.58747  -0.58504  -0.57899  -0.56866  -0.56582
 Alpha  occ. eigenvalues --   -0.56390  -0.56074  -0.55606  -0.54977  -0.54534
 Alpha  occ. eigenvalues --   -0.54233  -0.53975  -0.53576  -0.53148  -0.52986
 Alpha  occ. eigenvalues --   -0.52546  -0.52444  -0.51863  -0.51699  -0.51453
 Alpha  occ. eigenvalues --   -0.51091  -0.50763  -0.50701  -0.50419  -0.50036
 Alpha  occ. eigenvalues --   -0.49600  -0.49044  -0.49001  -0.48731  -0.48649
 Alpha  occ. eigenvalues --   -0.48420  -0.48218  -0.48117  -0.47739  -0.47130
 Alpha  occ. eigenvalues --   -0.46821  -0.46672  -0.46580  -0.46356  -0.46254
 Alpha  occ. eigenvalues --   -0.45911  -0.45792  -0.45587  -0.45307  -0.44879
 Alpha  occ. eigenvalues --   -0.44651  -0.44317  -0.44226  -0.44124  -0.43936
 Alpha  occ. eigenvalues --   -0.43275  -0.43012  -0.42643  -0.42445  -0.42416
 Alpha  occ. eigenvalues --   -0.42209  -0.42114  -0.41800  -0.41665  -0.41481
 Alpha  occ. eigenvalues --   -0.41299  -0.40916  -0.40720  -0.40512  -0.40127
 Alpha  occ. eigenvalues --   -0.39891  -0.39812  -0.39373  -0.38957  -0.38576
 Alpha  occ. eigenvalues --   -0.38248  -0.38125  -0.37805  -0.37678  -0.37290
 Alpha  occ. eigenvalues --   -0.37162  -0.36725  -0.35828  -0.34933  -0.33979
 Alpha  occ. eigenvalues --   -0.33224  -0.32864  -0.32185  -0.31593  -0.31534
 Alpha  occ. eigenvalues --   -0.30906  -0.30651  -0.30246  -0.29809  -0.29451
 Alpha  occ. eigenvalues --   -0.28874  -0.28601  -0.27961  -0.25439  -0.22151
 Alpha virt. eigenvalues --   -0.09466  -0.09305  -0.08218  -0.07015  -0.05659
 Alpha virt. eigenvalues --   -0.04998  -0.04341  -0.03907  -0.03652  -0.03265
 Alpha virt. eigenvalues --   -0.02564  -0.02219  -0.02140  -0.01713  -0.01315

 Mulliken charges:
               1
     1  N   -0.749002
     2  H    0.408501
     3  H    0.421090
     4  H    0.422855
     5  C   -0.141530
     6  H    0.198285
     7  C    0.644043
     8  C    0.127055
     9  H    0.193004
    10  O   -0.545668
    11  C   -0.518011
    12  H    0.222051
    13  H    0.157266
    14  H    0.198004
    15  O   -0.632988
    16  H    0.420170
    17  N   -0.591386
    18  H    0.371062
    19  C   -0.099932
    20  H    0.203808
    21  C    0.638235
    22  C   -0.065042
    23  H    0.126437
    24  O   -0.591652
    25  C   -0.282501
    26  H    0.194869
    27  H    0.127686
    28  C   -0.471996
    29  H    0.195600
    30  H    0.126650
    31  H    0.143954
    32  C   -0.482406
    33  H    0.123368
    34  H    0.123413
    35  H    0.198606
    36  N   -0.612601
    37  H    0.423916
    38  C   -0.074595
    39  H    0.195543
    40  C    0.625394
    41  C   -0.489992
    42  H    0.157315
    43  H    0.196051
    44  H    0.155352
    45  O   -0.542964
    46  N   -0.626738
    47  H    0.368359
    48  C   -0.036245
    49  H    0.197200
    50  C    0.601294
    51  C   -0.270381
    52  H    0.168546
    53  H    0.158174
    54  O   -0.548016
    55  C   -0.393862
    56  H    0.216355
    57  H    0.156980
    58  C    0.617610
    59  N   -0.743631
    60  H    0.345848
    61  H    0.343799
    62  O   -0.528624
    63  N   -0.626527
    64  H    0.395362
    65  C   -0.046614
    66  H    0.180244
    67  C    0.600746
    68  C   -0.386083
    69  H    0.165698
    70  H    0.140849
    71  O   -0.514664
    72  C    0.059848
    73  C   -0.144353
    74  H    0.120521
    75  C   -0.229128
    76  H    0.139588
    77  C   -0.244141
    78  H    0.115266
    79  C   -0.227644
    80  H    0.133926
    81  O   -0.698828
    82  C    0.395035
    83  N   -0.572349
    84  H    0.338301
    85  C   -0.081075
    86  H    0.185301
    87  C    0.627307
    88  C   -0.451695
    89  H    0.158824
    90  H    0.181158
    91  H    0.166896
    92  O   -0.541074
    93  N   -0.605738
    94  H    0.356276
    95  C   -0.039333
    96  H    0.210426
    97  C    0.582793
    98  C   -0.281647
    99  H    0.147777
   100  H    0.153332
   101  O   -0.455065
   102  C   -0.279954
   103  H    0.188707
   104  H    0.185726
   105  C   -0.191928
   106  H    0.179244
   107  H    0.203470
   108  N   -0.594060
   109  H    0.354638
   110  N   -0.763967
   111  H    0.382864
   112  H    0.405847
   113  N   -0.760346
   114  H    0.375036
   115  H    0.368022
   116  C    0.802477
   117  O   -0.565049
   118  H    0.425775
 Sum of Mulliken charges =   1.00000

 Dipole moment (field-independent basis, Debye):
    X=              1.1565    Y=             17.7451    Z=            -29.8230  Tot=             34.7223
 Quadrupole moment (field-independent basis, Debye-Ang):
   XX=           -170.9822   YY=           -218.3550   ZZ=            -25.4285
   XY=             96.0337   XZ=            104.3647   YZ=            -23.5799

 Normal termination of Gaussian 16 at Sun Jul 17 00:18:24 2022.
