 Gaussian 16, Revision C.01,
 Gaussian 16:  ES64L-G16RevC.01  3-Jul-2019

 ----------------------------------------------------------------------
 # B3LYP/6-31G* empiricaldispersion=gd3bj guess=read geom=check nosymm
 integral(ultrafinegrid)
 ----------------------------------------------------------------------

 ------------------------------------------------------
 Candidate Structure: Conf:197 Charge calc in gas phase
 ------------------------------------------------------
 Structure from the checkpoint file:  "conf-197.chk"
 Charge =  1 Multiplicity = 1

                          Input orientation:
 ---------------------------------------------------------------------
 Center     Atomic      Atomic             Coordinates (Angstroms)
 Number     Number       Type             X           Y           Z
 ---------------------------------------------------------------------
      1          7           0       -8.663732   -4.318453   -7.377514
      2          1           0       -9.049321   -5.236060   -7.141179
      3          1           0       -8.788465   -4.129466   -8.387407
      4          1           0       -9.111883   -3.598473   -6.756704
      5          6           0       -7.200669   -4.185566   -7.065672
      6          1           0       -6.738873   -5.175224   -7.091325
      7          6           0       -7.172067   -3.526725   -5.670137
      8          6           0       -6.590903   -3.251636   -8.156066
      9          1           0       -6.909233   -2.228344   -7.926853
     10          8           0       -8.196730   -2.937660   -5.300120
     11          6           0       -5.073253   -3.331189   -8.217678
     12          1           0       -4.604940   -3.021287   -7.279000
     13          1           0       -4.743783   -4.354619   -8.439680
     14          1           0       -4.708845   -2.669116   -9.007892
     15          8           0       -7.215145   -3.566081   -9.402426
     16          1           0       -6.651450   -4.182557   -9.898803
     17          7           0       -6.022713   -3.606483   -5.016043
     18          1           0       -5.188835   -4.026050   -5.432686
     19          6           0       -5.689022   -2.839996   -3.817780
     20          1           0       -6.233073   -1.892987   -3.858516
     21          6           0       -4.172131   -2.598081   -3.958386
     22          6           0       -6.091024   -3.611970   -2.529538
     23          1           0       -7.150814   -3.858277   -2.682988
     24          8           0       -3.524470   -3.233406   -4.803723
     25          6           0       -6.004884   -2.767024   -1.244018
     26          1           0       -4.957761   -2.586662   -0.973768
     27          1           0       -6.412808   -3.386889   -0.436365
     28          6           0       -5.296866   -4.914527   -2.385255
     29          1           0       -4.232174   -4.715071   -2.219668
     30          1           0       -5.385425   -5.548927   -3.273549
     31          1           0       -5.663279   -5.487853   -1.528227
     32          6           0       -6.770468   -1.440587   -1.282967
     33          1           0       -6.784649   -0.978516   -0.291709
     34          1           0       -7.808658   -1.588800   -1.602912
     35          1           0       -6.317674   -0.708481   -1.962929
     36          7           0       -3.639168   -1.703986   -3.123155
     37          1           0       -4.184731   -1.250975   -2.392853
     38          6           0       -2.207582   -1.490500   -2.975683
     39          1           0       -1.700634   -2.456347   -3.074209
     40          6           0       -2.028606   -0.949961   -1.544796
     41          6           0       -1.655362   -0.516123   -4.026154
     42          1           0       -0.579960   -0.363441   -3.892455
     43          1           0       -2.154701    0.454436   -3.944403
     44          1           0       -1.827114   -0.923753   -5.025711
     45          8           0       -3.008228   -0.581632   -0.887425
     46          7           0       -0.760963   -0.920453   -1.107789
     47          1           0        0.012425   -1.092265   -1.748789
     48          6           0       -0.325881   -0.226752    0.094737
     49          1           0       -1.049530    0.565249    0.317764
     50          6           0        1.042014    0.387254   -0.266687
     51          6           0       -0.191857   -1.172971    1.301805
     52          1           0        0.261581   -0.622863    2.134957
     53          1           0        0.496855   -1.985097    1.049480
     54          8           0        1.631545    0.042260   -1.295611
     55          6           0       -1.522691   -1.778709    1.750728
     56          1           0       -2.200015   -1.002042    2.124447
     57          1           0       -2.028966   -2.240233    0.895864
     58          6           0       -1.293198   -2.879223    2.783640
     59          7           0       -2.216617   -2.939699    3.789621
     60          1           0       -2.871801   -2.191700    3.958014
     61          1           0       -2.063924   -3.614339    4.526963
     62          8           0       -0.374258   -3.679912    2.687413
     63          7           0        1.530383    1.269562    0.617204
     64          1           0        1.032817    1.533677    1.463128
     65          6           0        2.840662    1.882480    0.489278
     66          1           0        3.553518    1.125175    0.149551
     67          6           0        3.201218    2.377443    1.894433
     68          6           0        2.823527    3.045481   -0.539667
     69          1           0        2.136715    3.815657   -0.170765
     70          1           0        2.397217    2.632351   -1.459865
     71          8           0        2.310926    2.601885    2.722075
     72          6           0        4.191463    3.622858   -0.796903
     73          6           0        4.579691    4.854783   -0.259868
     74          1           0        3.864461    5.429446    0.324999
     75          6           0        5.135240    2.906276   -1.547227
     76          1           0        4.854757    1.948343   -1.981096
     77          6           0        5.858720    5.366101   -0.463696
     78          1           0        6.137342    6.334486   -0.061935
     79          6           0        6.420705    3.396237   -1.748980
     80          1           0        7.152436    2.837658   -2.323664
     81          8           0        8.054980    5.077554   -1.444212
     82          6           0        6.798186    4.632851   -1.206264
     83          7           0        4.510199    2.554425    2.142168
     84          1           0        5.211416    2.447843    1.413959
     85          6           0        4.987331    3.129122    3.386359
     86          1           0        4.387852    4.017282    3.621079
     87          6           0        6.447219    3.532614    3.154972
     88          6           0        4.883038    2.131724    4.553984
     89          1           0        5.234047    2.579725    5.489546
     90          1           0        3.839662    1.834789    4.677184
     91          1           0        5.487986    1.244251    4.343746
     92          8           0        7.091668    3.107145    2.201596
     93          7           0        6.959284    4.367701    4.097535
     94          1           0        6.425521    4.549071    4.940038
     95          6           0        8.386955    4.608749    4.218584
     96          1           0        8.914176    3.795318    3.708725
     97          6           0        8.725084    4.570609    5.700380
     98          6           0        8.832093    5.949761    3.594595
     99          1           0        9.906138    6.070790    3.777818
    100          1           0        8.319536    6.768213    4.118715
    101          8           0        7.903077    4.560283    6.592789
    102          6           0        8.533887    6.006406    2.098511
    103          1           0        7.459811    5.887128    1.928530
    104          1           0        9.014703    5.164249    1.588670
    105          6           0        8.992189    7.307280    1.438673
    106          1           0       10.072637    7.447137    1.610525
    107          1           0        8.482940    8.162329    1.920420
    108          7           0        8.697672    7.236538    0.018916
    109          1           0        8.291850    5.819175   -0.800887
    110          7           0        9.341972    9.495238   -0.365381
    111          1           0        8.970620   10.301791   -0.851006
    112          1           0        9.460330    9.642923    0.627098
    113          7           0        8.407607    8.207372   -2.061339
    114          1           0        9.010825    8.686383   -2.720026
    115          1           0        8.192277    7.257389   -2.351486
    116          6           0        8.820910    8.272231   -0.739957
    117          8           0       10.053413    4.583899    5.914051
    118          1           0       10.184308    4.585442    6.881486
 ---------------------------------------------------------------------

 SCF Done:  E(RB3LYP) =  -2837.90706223     A.U. after    3 cycles

 Alpha  occ. eigenvalues --  -19.30450 -19.26081 -19.25499 -19.21644 -19.19982
 Alpha  occ. eigenvalues --  -19.19444 -19.17560 -19.17187 -19.16774 -19.16348
 Alpha  occ. eigenvalues --  -19.15462 -14.59291 -14.48811 -14.44849 -14.42706
 Alpha  occ. eigenvalues --  -14.41255 -14.40940 -14.40583 -14.40367 -14.40194
 Alpha  occ. eigenvalues --  -14.38910 -14.35009 -10.43074 -10.40215 -10.39648
 Alpha  occ. eigenvalues --  -10.38510 -10.37835 -10.36317 -10.34540 -10.33948
 Alpha  occ. eigenvalues --  -10.33720 -10.33616 -10.33382 -10.33305 -10.31464
 Alpha  occ. eigenvalues --  -10.31063 -10.29572 -10.28971 -10.28639 -10.28118
 Alpha  occ. eigenvalues --  -10.28013 -10.26682 -10.26186 -10.25834 -10.25679
 Alpha  occ. eigenvalues --  -10.25671 -10.25170 -10.24618 -10.24477 -10.23853
 Alpha  occ. eigenvalues --  -10.23136 -10.22465 -10.21908 -10.21743 -10.21690
 Alpha  occ. eigenvalues --  -10.21604 -10.20787 -10.20636  -1.19141  -1.17523
 Alpha  occ. eigenvalues --   -1.16536  -1.13674  -1.13008  -1.11271  -1.09521
 Alpha  occ. eigenvalues --   -1.08982  -1.07997  -1.07522  -1.07422  -1.05700
 Alpha  occ. eigenvalues --   -1.05700  -1.03027  -1.01698  -0.99643  -0.98039
 Alpha  occ. eigenvalues --   -0.97909  -0.96971  -0.94883  -0.93314  -0.92561
 Alpha  occ. eigenvalues --   -0.91894  -0.90349  -0.87980  -0.86654  -0.85594
 Alpha  occ. eigenvalues --   -0.85128  -0.84424  -0.82969  -0.82264  -0.80867
 Alpha  occ. eigenvalues --   -0.80081  -0.78752  -0.78555  -0.77473  -0.77076
 Alpha  occ. eigenvalues --   -0.75532  -0.74013  -0.73950  -0.72723  -0.72201
 Alpha  occ. eigenvalues --   -0.72046  -0.70876  -0.70475  -0.69742  -0.69478
 Alpha  occ. eigenvalues --   -0.67527  -0.66762  -0.66388  -0.65744  -0.65319
 Alpha  occ. eigenvalues --   -0.64867  -0.64536  -0.64472  -0.63639  -0.63477
 Alpha  occ. eigenvalues --   -0.63085  -0.62920  -0.62454  -0.62007  -0.61128
 Alpha  occ. eigenvalues --   -0.60868  -0.59417  -0.59049  -0.58798  -0.58336
 Alpha  occ. eigenvalues --   -0.58289  -0.57878  -0.57548  -0.57235  -0.56506
 Alpha  occ. eigenvalues --   -0.55859  -0.55619  -0.54907  -0.54688  -0.54396
 Alpha  occ. eigenvalues --   -0.53957  -0.53297  -0.53153  -0.53030  -0.52837
 Alpha  occ. eigenvalues --   -0.52739  -0.51855  -0.51731  -0.51587  -0.51355
 Alpha  occ. eigenvalues --   -0.51030  -0.50998  -0.50889  -0.50726  -0.50593
 Alpha  occ. eigenvalues --   -0.50422  -0.50244  -0.49766  -0.49459  -0.49002
 Alpha  occ. eigenvalues --   -0.48904  -0.48686  -0.48603  -0.48008  -0.47712
 Alpha  occ. eigenvalues --   -0.47699  -0.47572  -0.47123  -0.46602  -0.46477
 Alpha  occ. eigenvalues --   -0.46079  -0.46038  -0.45882  -0.45161  -0.44946
 Alpha  occ. eigenvalues --   -0.44777  -0.44675  -0.44439  -0.44307  -0.44144
 Alpha  occ. eigenvalues --   -0.44106  -0.43795  -0.43730  -0.43496  -0.43044
 Alpha  occ. eigenvalues --   -0.42396  -0.42261  -0.42201  -0.41941  -0.41775
 Alpha  occ. eigenvalues --   -0.41505  -0.41032  -0.40995  -0.40819  -0.40663
 Alpha  occ. eigenvalues --   -0.40142  -0.40091  -0.39715  -0.39421  -0.39241
 Alpha  occ. eigenvalues --   -0.39061  -0.38024  -0.37895  -0.37754  -0.37254
 Alpha  occ. eigenvalues --   -0.36063  -0.35769  -0.34938  -0.34721  -0.33613
 Alpha  occ. eigenvalues --   -0.33542  -0.32798  -0.32227  -0.31804  -0.31345
 Alpha  occ. eigenvalues --   -0.31231  -0.31023  -0.30682  -0.30226  -0.29927
 Alpha  occ. eigenvalues --   -0.29529  -0.29265  -0.27832  -0.27586  -0.23619
 Alpha virt. eigenvalues --   -0.12044  -0.10116  -0.07361  -0.05378  -0.05093
 Alpha virt. eigenvalues --   -0.04734  -0.04443  -0.03708  -0.02878  -0.02807
 Alpha virt. eigenvalues --   -0.02538  -0.01912  -0.01395  -0.01180  -0.01132

 Mulliken charges:
               1
     1  N   -0.746664
     2  H    0.414274
     3  H    0.426205
     4  H    0.426372
     5  C   -0.141138
     6  H    0.202956
     7  C    0.645867
     8  C    0.128637
     9  H    0.192987
    10  O   -0.538202
    11  C   -0.514192
    12  H    0.208310
    13  H    0.164398
    14  H    0.205741
    15  O   -0.629769
    16  H    0.424151
    17  N   -0.600215
    18  H    0.374342
    19  C   -0.085780
    20  H    0.195076
    21  C    0.632012
    22  C   -0.073786
    23  H    0.149491
    24  O   -0.564492
    25  C   -0.285668
    26  H    0.161344
    27  H    0.155081
    28  C   -0.463857
    29  H    0.166810
    30  H    0.137008
    31  H    0.167858
    32  C   -0.462772
    33  H    0.172754
    34  H    0.155512
    35  H    0.142442
    36  N   -0.621867
    37  H    0.385127
    38  C   -0.054055
    39  H    0.189942
    40  C    0.621107
    41  C   -0.453158
    42  H    0.177917
    43  H    0.164826
    44  H    0.175919
    45  O   -0.554231
    46  N   -0.601771
    47  H    0.363900
    48  C   -0.074527
    49  H    0.177635
    50  C    0.631455
    51  C   -0.263357
    52  H    0.156076
    53  H    0.187387
    54  O   -0.553121
    55  C   -0.355164
    56  H    0.140823
    57  H    0.182419
    58  C    0.593864
    59  N   -0.747486
    60  H    0.335559
    61  H    0.344818
    62  O   -0.503930
    63  N   -0.620020
    64  H    0.356627
    65  C   -0.039070
    66  H    0.181249
    67  C    0.621616
    68  C   -0.351929
    69  H    0.148913
    70  H    0.173976
    71  O   -0.560250
    72  C    0.141580
    73  C   -0.194267
    74  H    0.118855
    75  C   -0.206776
    76  H    0.131833
    77  C   -0.192860
    78  H    0.135011
    79  C   -0.155816
    80  H    0.135119
    81  O   -0.711393
    82  C    0.358442
    83  N   -0.616773
    84  H    0.374095
    85  C   -0.031455
    86  H    0.173091
    87  C    0.613792
    88  C   -0.457317
    89  H    0.154067
    90  H    0.191328
    91  H    0.163908
    92  O   -0.522417
    93  N   -0.609659
    94  H    0.351679
    95  C   -0.048695
    96  H    0.203890
    97  C    0.583050
    98  C   -0.268186
    99  H    0.161709
   100  H    0.138896
   101  O   -0.469238
   102  C   -0.278043
   103  H    0.162254
   104  H    0.172351
   105  C   -0.144459
   106  H    0.139940
   107  H    0.117322
   108  N   -0.561416
   109  H    0.463936
   110  N   -0.760356
   111  H    0.340827
   112  H    0.346811
   113  N   -0.768940
   114  H    0.330862
   115  H    0.352782
   116  C    0.676432
   117  O   -0.558289
   118  H    0.422180
 Sum of Mulliken charges =   1.00000

 Dipole moment (field-independent basis, Debye):
    X=            -21.8956    Y=             -6.1610    Z=            -22.6293  Tot=             32.0852
 Quadrupole moment (field-independent basis, Debye-Ang):
   XX=            -25.2340   YY=           -167.0353   ZZ=            -90.5388
   XY=            236.5608   XZ=            235.4567   YZ=            141.7132

 Normal termination of Gaussian 16 at Sun Jul 17 00:19:05 2022.
