 Gaussian 16, Revision C.01,
 Gaussian 16:  ES64L-G16RevC.01  3-Jul-2019

 ----------------------------------------------------------------------
 # B3LYP/6-31G* empiricaldispersion=gd3 guess=read geom=check nosymm in
 tegral(ultrafinegrid)
 ----------------------------------------------------------------------

 ------------------------------------------------------
 Candidate Structure: Conf:197 Charge calc in gas phase
 ------------------------------------------------------
 Structure from the checkpoint file:  "conf-197.chk"
 Charge =  1 Multiplicity = 1

                          Input orientation:
 ---------------------------------------------------------------------
 Center     Atomic      Atomic             Coordinates (Angstroms)
 Number     Number       Type             X           Y           Z
 ---------------------------------------------------------------------
      1          7           0       -5.797632   -0.117427    3.806966
      2          1           0       -6.293037    0.623296    3.282093
      3          1           0       -5.919283   -0.989484    3.266388
      4          1           0       -6.125837   -0.206289    4.798914
      5          6           0       -4.313946    0.144923    3.854483
      6          1           0       -4.180417    1.196476    4.119161
      7          6           0       -3.844808   -0.180768    2.422498
      8          6           0       -3.661031   -0.780559    4.891006
      9          1           0       -3.781655   -1.820857    4.560355
     10          1           0       -2.585806   -0.574895    4.905242
     11          8           0       -4.352482   -1.164834    1.880729
     12          6           0       -4.284780   -0.634824    6.282274
     13          7           0       -3.470963   -0.836051    7.332590
     14          1           0       -3.866730   -0.804247    8.264274
     15          1           0       -2.490952   -1.059323    7.234819
     16          8           0       -5.486701   -0.368366    6.417331
     17          7           0       -2.974793    0.663660    1.864602
     18          1           0       -2.517285    1.414647    2.376913
     19          6           0       -2.695506    0.675637    0.436576
     20          1           0       -2.774240   -0.347286    0.062016
     21          6           0       -1.278524    1.256694    0.282981
     22          6           0       -3.706385    1.611275   -0.309969
     23          1           0       -3.368010    2.644295   -0.171951
     24          1           0       -3.640816    1.391035   -1.380818
     25          8           0       -0.833710    1.995390    1.167336
     26          6           0       -5.127972    1.477563    0.190597
     27          6           0       -5.612699    2.354800    1.171067
     28          1           0       -4.983177    3.173319    1.512781
     29          6           0       -5.966105    0.446022   -0.254116
     30          1           0       -5.602951   -0.249564   -1.005807
     31          6           0       -6.903915    2.209833    1.695359
     32          1           0       -7.278116    2.929399    2.420093
     33          6           0       -7.250795    0.289717    0.266208
     34          1           0       -7.885621   -0.512822   -0.097801
     35          6           0       -7.727215    1.170609    1.243221
     36          1           0       -8.738093    1.066346    1.628270
     37          7           0       -0.656230    0.959821   -0.861854
     38          1           0       -1.047981    0.325094   -1.557085
     39          6           0        0.629733    1.510619   -1.261281
     40          1           0        0.642746    2.591402   -1.094238
     41          6           0        0.772575    1.162467   -2.755465
     42          6           0        1.789378    0.879368   -0.459559
     43          1           0        1.907827   -0.172382   -0.734490
     44          1           0        1.529051    0.937310    0.604067
     45          8           0        0.051114    0.299315   -3.257801
     46          6           0        3.098299    1.642600   -0.640221
     47          7           0        4.232441    0.924265   -0.379867
     48          1           0        5.081121    1.423932   -0.622470
     49          1           0        4.219410   -0.031624   -0.719265
     50          8           0        3.115088    2.842409   -0.913209
     51          7           0        1.748368    1.819578   -3.422311
     52          1           0        2.360767    2.388860   -2.844370
     53          6           0        2.371271    1.171801   -4.577538
     54          1           0        1.579005    0.897402   -5.278054
     55          6           0        3.095554   -0.138147   -4.118444
     56          6           0        3.330876    2.201542   -5.231957
     57          1           0        2.859849    3.180982   -5.094409
     58          1           0        4.266321    2.233862   -4.655255
     59          8           0        3.436917   -0.238882   -2.930451
     60          6           0        3.635201    2.040300   -6.744028
     61          1           0        2.858811    1.432497   -7.225379
     62          1           0        3.587395    3.024086   -7.224457
     63          6           0        5.011031    1.454235   -7.094666
     64          1           0        5.162742    1.500343   -8.181139
     65          1           0        5.805007    2.045716   -6.620042
     66          7           0        5.085584    0.068486   -6.633026
     67          1           0        4.189965   -0.336525   -6.269064
     68          7           0        7.400147   -0.073299   -6.368429
     69          1           0        8.201543   -0.532266   -5.961467
     70          1           0        7.560361    0.427642   -7.230042
     71          7           0        5.951148   -1.523647   -5.231944
     72          1           0        6.702555   -2.126844   -4.935097
     73          1           0        4.973028   -1.652911   -4.894139
     74          6           0        6.148924   -0.515896   -6.086103
     75          8           0        3.316231   -0.991684   -5.049332
 ---------------------------------------------------------------------

 SCF Done:  E(RB3LYP) =  -1917.47569866     A.U. after    3 cycles

 Alpha  occ. eigenvalues --  -19.25689 -19.24113 -19.19811 -19.17369 -19.17016
 Alpha  occ. eigenvalues --  -19.14385 -19.13576 -14.56179 -14.49143 -14.47847
 Alpha  occ. eigenvalues --  -14.46667 -14.43980 -14.43481 -14.43285 -14.40036
 Alpha  occ. eigenvalues --  -14.39656 -10.43336 -10.41546 -10.41301 -10.39425
 Alpha  occ. eigenvalues --  -10.37044 -10.34680 -10.34353 -10.34006 -10.33417
 Alpha  occ. eigenvalues --  -10.31700 -10.30401 -10.29637 -10.29535 -10.29399
 Alpha  occ. eigenvalues --  -10.29213 -10.29168 -10.29091 -10.28768 -10.28643
 Alpha  occ. eigenvalues --  -10.26911 -10.26030 -10.25155 -10.25118  -1.17566
 Alpha  occ. eigenvalues --   -1.16537  -1.11877  -1.10949  -1.10072  -1.09278
 Alpha  occ. eigenvalues --   -1.08496  -1.07021  -1.04438  -1.04070  -1.00089
 Alpha  occ. eigenvalues --   -0.99738  -0.98321  -0.97913  -0.96963  -0.95603
 Alpha  occ. eigenvalues --   -0.94989  -0.92757  -0.88931  -0.86141  -0.85116
 Alpha  occ. eigenvalues --   -0.84346  -0.83508  -0.80965  -0.79836  -0.76202
 Alpha  occ. eigenvalues --   -0.74760  -0.73542  -0.72829  -0.71662  -0.71523
 Alpha  occ. eigenvalues --   -0.70708  -0.69931  -0.69362  -0.68054  -0.67319
 Alpha  occ. eigenvalues --   -0.66938  -0.66394  -0.65999  -0.64702  -0.64162
 Alpha  occ. eigenvalues --   -0.63141  -0.62356  -0.61743  -0.61216  -0.60431
 Alpha  occ. eigenvalues --   -0.58953  -0.58697  -0.58185  -0.58124  -0.57526
 Alpha  occ. eigenvalues --   -0.57177  -0.56990  -0.55955  -0.55565  -0.55181
 Alpha  occ. eigenvalues --   -0.54689  -0.54467  -0.54237  -0.54014  -0.53338
 Alpha  occ. eigenvalues --   -0.53211  -0.51921  -0.51731  -0.51543  -0.50569
 Alpha  occ. eigenvalues --   -0.50440  -0.50139  -0.50061  -0.49463  -0.49202
 Alpha  occ. eigenvalues --   -0.48866  -0.48265  -0.47627  -0.47412  -0.46279
 Alpha  occ. eigenvalues --   -0.46033  -0.45730  -0.45455  -0.45144  -0.44431
 Alpha  occ. eigenvalues --   -0.43835  -0.43578  -0.43538  -0.42580  -0.41753
 Alpha  occ. eigenvalues --   -0.41089  -0.40828  -0.40554  -0.40366  -0.39915
 Alpha  occ. eigenvalues --   -0.39146  -0.38680  -0.37715  -0.37146  -0.34959
 Alpha  occ. eigenvalues --   -0.34804  -0.33932  -0.33843  -0.33340  -0.32922
 Alpha  occ. eigenvalues --   -0.32210  -0.31100  -0.30181  -0.29618  -0.28070
 Alpha  occ. eigenvalues --   -0.27628
 Alpha virt. eigenvalues --   -0.11946  -0.11033  -0.10603  -0.10014  -0.05974
 Alpha virt. eigenvalues --   -0.05704  -0.05595  -0.03680  -0.03381  -0.03120
 Alpha virt. eigenvalues --   -0.02948  -0.02676  -0.00734  -0.00039   0.00055

 Mulliken charges:
               1
     1  N   -0.761366
     2  H    0.407611
     3  H    0.409062
     4  H    0.434866
     5  C   -0.116489
     6  H    0.205090
     7  C    0.657441
     8  C   -0.395209
     9  H    0.227427
    10  H    0.201939
    11  O   -0.531620
    12  C    0.643113
    13  N   -0.729633
    14  H    0.378742
    15  H    0.368604
    16  O   -0.534744
    17  N   -0.601143
    18  H    0.358670
    19  C   -0.062600
    20  H    0.196421
    21  C    0.636809
    22  C   -0.368641
    23  H    0.179761
    24  H    0.185454
    25  O   -0.551837
    26  C    0.167315
    27  C   -0.194353
    28  H    0.147064
    29  C   -0.145396
    30  H    0.156246
    31  C   -0.200876
    32  H    0.158229
    33  C   -0.131285
    34  H    0.161468
    35  C   -0.157108
    36  H    0.159185
    37  N   -0.628892
    38  H    0.360839
    39  C   -0.050769
    40  H    0.201338
    41  C    0.620665
    42  C   -0.354665
    43  H    0.182035
    44  H    0.196127
    45  O   -0.543332
    46  C    0.592917
    47  N   -0.722442
    48  H    0.329458
    49  H    0.358574
    50  O   -0.526335
    51  N   -0.617720
    52  H    0.361568
    53  C   -0.037067
    54  H    0.177192
    55  C    0.607325
    56  C   -0.308581
    57  H    0.167711
    58  H    0.148810
    59  O   -0.577868
    60  C   -0.302610
    61  H    0.172331
    62  H    0.161723
    63  C   -0.147974
    64  H    0.163870
    65  H    0.162511
    66  N   -0.609446
    67  H    0.410015
    68  N   -0.755736
    69  H    0.361062
    70  H    0.370136
    71  N   -0.776898
    72  H    0.345935
    73  H    0.417998
    74  C    0.769445
    75  O   -0.637469
 Sum of Mulliken charges =   1.00000

 Dipole moment (field-independent basis, Debye):
    X=             -3.7553    Y=             -0.4010    Z=              5.5372  Tot=              6.7025
 Quadrupole moment (field-independent basis, Debye-Ang):
   XX=             -9.9172   YY=           -224.6627   ZZ=            -49.5876
   XY=            -11.9560   XZ=           -158.0449   YZ=            -21.8739

 Normal termination of Gaussian 16 at Tue May 31 12:10:10 2022.
