 Gaussian 16, Revision C.01,
 Gaussian 16:  ES64L-G16RevC.01  3-Jul-2019

 ----------------------------------------------------------------------
 # B3LYP/6-31G* empiricaldispersion=gd3 guess=read geom=check nosymm in
 tegral(ultrafinegrid)
 ----------------------------------------------------------------------

 ------------------------------------------------------
 Candidate Structure: Conf:472 Charge calc in gas phase
 ------------------------------------------------------
 Structure from the checkpoint file:  "conf-472.chk"
 Charge =  1 Multiplicity = 1

                          Input orientation:
 ---------------------------------------------------------------------
 Center     Atomic      Atomic             Coordinates (Angstroms)
 Number     Number       Type             X           Y           Z
 ---------------------------------------------------------------------
      1          7           0       -4.096199   -1.954671    0.759018
      2          1           0       -4.690792   -2.195276    1.556739
      3          1           0       -4.675954   -1.427296    0.083365
      4          1           0       -3.636267   -2.823598    0.346894
      5          6           0       -2.956868   -1.052364    1.140610
      6          1           0       -2.598443   -1.362781    2.125365
      7          6           0       -3.476736    0.398002    1.080209
      8          6           0       -1.852984   -1.148568    0.079433
      9          1           0       -2.207942   -0.680006   -0.848366
     10          1           0       -0.992709   -0.559585    0.396936
     11          8           0       -4.447949    0.640588    0.369868
     12          6           0       -1.409419   -2.565729   -0.262219
     13          7           0       -0.172133   -2.656118   -0.757904
     14          1           0        0.168315   -3.557508   -1.067724
     15          1           0        0.393064   -1.819181   -0.904416
     16          8           0       -2.182014   -3.531104   -0.112144
     17          7           0       -2.672643    1.298495    1.674221
     18          1           0       -1.950594    0.961670    2.299687
     19          6           0       -2.722070    2.746933    1.443807
     20          1           0       -3.420134    2.889847    0.612425
     21          6           0       -1.309669    3.234407    1.018677
     22          6           0       -3.234202    3.505469    2.682292
     23          1           0       -2.491565    3.418074    3.483646
     24          1           0       -3.276239    4.566945    2.420836
     25          8           0       -0.851858    4.298455    1.408895
     26          6           0       -4.578625    2.979108    3.129666
     27          6           0       -5.745112    3.319572    2.432541
     28          1           0       -5.686135    4.009861    1.593774
     29          6           0       -4.676008    2.091366    4.208064
     30          1           0       -3.780639    1.831227    4.769605
     31          6           0       -6.979136    2.787109    2.804160
     32          1           0       -7.874869    3.067833    2.257290
     33          6           0       -5.909884    1.557111    4.585965
     34          1           0       -5.970243    0.883907    5.437189
     35          6           0       -7.064821    1.902494    3.882240
     36          1           0       -8.027551    1.495558    4.178691
     37          7           0       -0.633527    2.372928    0.209651
     38          1           0       -1.056492    1.501168   -0.073963
     39          6           0        0.778440    2.494325   -0.108226
     40          1           0        0.957722    3.448728   -0.615192
     41          6           0        1.148205    1.320779   -1.037413
     42          6           0        1.653797    2.431817    1.184977
     43          1           0        1.308372    1.592615    1.792922
     44          1           0        1.508265    3.363215    1.739094
     45          8           0        0.542716    0.236858   -0.946801
     46          6           0        3.109177    2.151118    0.820188
     47          7           0        3.839009    3.225821    0.405252
     48          1           0        4.638982    3.025517   -0.189023
     49          1           0        3.440576    4.153258    0.370211
     50          8           0        3.537047    1.004982    0.797746
     51          7           0        2.154849    1.560822   -1.881746
     52          1           0        2.662961    2.440021   -1.806680
     53          6           0        2.972027    0.530839   -2.523274
     54          1           0        2.712160   -0.439345   -2.099451
     55          6           0        4.464043    0.819108   -2.223029
     56          6           0        2.718610    0.547496   -4.053155
     57          1           0        1.698454    0.185631   -4.223417
     58          1           0        2.715121    1.598433   -4.374752
     59          8           0        5.236616   -0.142006   -2.193155
     60          6           0        3.726700   -0.265039   -4.905242
     61          1           0        4.298743   -0.945830   -4.267448
     62          1           0        3.184152   -0.875199   -5.637065
     63          6           0        4.704964    0.610492   -5.711966
     64          1           0        5.318088   -0.020982   -6.360635
     65          1           0        4.150330    1.284940   -6.373375
     66          7           0        5.578884    1.454676   -4.883978
     67          1           0        5.086955    2.066432   -4.229320
     68          7           0        7.562840    0.233331   -5.090318
     69          1           0        8.453012   -0.057511   -4.716557
     70          1           0        7.352313   -0.034386   -6.038624
     71          7           0        7.244402    1.721863   -3.320240
     72          1           0        8.119182    1.406381   -2.923829
     73          1           0        6.492389    1.973565   -2.641705
     74          6           0        6.792757    1.111643   -4.421398
     75          8           0        4.772124    2.075668   -2.192126
 ---------------------------------------------------------------------

 SCF Done:  E(RB3LYP) =  -1917.47225430     A.U. after    1 cycles

 Alpha  occ. eigenvalues --  -19.25582 -19.25001 -19.22151 -19.21082 -19.17842
 Alpha  occ. eigenvalues --  -19.17067 -19.15559 -14.57405 -14.49560 -14.47949
 Alpha  occ. eigenvalues --  -14.47221 -14.46216 -14.45641 -14.44726 -14.44649
 Alpha  occ. eigenvalues --  -14.42042 -10.42939 -10.42815 -10.42180 -10.39971
 Alpha  occ. eigenvalues --  -10.38761 -10.38498 -10.35751 -10.34072 -10.34013
 Alpha  occ. eigenvalues --  -10.33640 -10.33433 -10.32434 -10.29681 -10.27827
 Alpha  occ. eigenvalues --  -10.27763 -10.27225 -10.27197 -10.27079 -10.26414
 Alpha  occ. eigenvalues --  -10.26284 -10.26134 -10.26069 -10.26009  -1.18004
 Alpha  occ. eigenvalues --   -1.16305  -1.13667  -1.12846  -1.11941  -1.11674
 Alpha  occ. eigenvalues --   -1.09812  -1.09355  -1.06234  -1.02764  -1.02019
 Alpha  occ. eigenvalues --   -1.01843  -1.01266  -1.00312  -0.99173  -0.96932
 Alpha  occ. eigenvalues --   -0.93526  -0.92631  -0.88728  -0.87938  -0.86462
 Alpha  occ. eigenvalues --   -0.82973  -0.82401  -0.81612  -0.80742  -0.77602
 Alpha  occ. eigenvalues --   -0.75823  -0.74211  -0.73518  -0.72595  -0.72449
 Alpha  occ. eigenvalues --   -0.72055  -0.69895  -0.68878  -0.68500  -0.68254
 Alpha  occ. eigenvalues --   -0.67755  -0.67301  -0.66405  -0.65557  -0.65366
 Alpha  occ. eigenvalues --   -0.64884  -0.64709  -0.62828  -0.62341  -0.60808
 Alpha  occ. eigenvalues --   -0.60484  -0.60270  -0.59161  -0.58756  -0.58420
 Alpha  occ. eigenvalues --   -0.57999  -0.57652  -0.56964  -0.56554  -0.56276
 Alpha  occ. eigenvalues --   -0.55854  -0.55134  -0.54676  -0.54100  -0.53556
 Alpha  occ. eigenvalues --   -0.53354  -0.52830  -0.52488  -0.52202  -0.52097
 Alpha  occ. eigenvalues --   -0.51946  -0.51410  -0.50267  -0.50041  -0.49315
 Alpha  occ. eigenvalues --   -0.49204  -0.49170  -0.48810  -0.48181  -0.47954
 Alpha  occ. eigenvalues --   -0.47425  -0.47039  -0.46355  -0.45895  -0.45758
 Alpha  occ. eigenvalues --   -0.45123  -0.44572  -0.43742  -0.43338  -0.43103
 Alpha  occ. eigenvalues --   -0.43055  -0.41906  -0.41421  -0.41238  -0.40020
 Alpha  occ. eigenvalues --   -0.39466  -0.39081  -0.38873  -0.38340  -0.36662
 Alpha  occ. eigenvalues --   -0.35649  -0.35373  -0.34927  -0.34628  -0.33739
 Alpha  occ. eigenvalues --   -0.32217  -0.32123  -0.31787  -0.31631  -0.31312
 Alpha  occ. eigenvalues --   -0.29056
 Alpha virt. eigenvalues --   -0.11657  -0.10177  -0.08612  -0.08172  -0.07728
 Alpha virt. eigenvalues --   -0.07581  -0.07383  -0.07049  -0.04953  -0.04616
 Alpha virt. eigenvalues --   -0.04275  -0.02516  -0.02258  -0.00728  -0.00429

 Mulliken charges:
               1
     1  N   -0.749316
     2  H    0.409821
     3  H    0.412162
     4  H    0.443032
     5  C   -0.125042
     6  H    0.209317
     7  C    0.638105
     8  C   -0.415603
     9  H    0.217940
    10  H    0.227895
    11  O   -0.505520
    12  C    0.632559
    13  N   -0.744163
    14  H    0.367734
    15  H    0.410416
    16  O   -0.553067
    17  N   -0.600715
    18  H    0.346305
    19  C   -0.082540
    20  H    0.216236
    21  C    0.623629
    22  C   -0.360095
    23  H    0.160072
    24  H    0.195962
    25  O   -0.505314
    26  C    0.175660
    27  C   -0.169624
    28  H    0.134769
    29  C   -0.198786
    30  H    0.118666
    31  C   -0.127250
    32  H    0.146456
    33  C   -0.137404
    34  H    0.138387
    35  C   -0.133211
    36  H    0.143963
    37  N   -0.643726
    38  H    0.353706
    39  C   -0.018227
    40  H    0.177095
    41  C    0.605500
    42  C   -0.352446
    43  H    0.158674
    44  H    0.197537
    45  O   -0.588246
    46  C    0.565982
    47  N   -0.742324
    48  H    0.374741
    49  H    0.335607
    50  O   -0.496909
    51  N   -0.574097
    52  H    0.353804
    53  C   -0.043806
    54  H    0.170863
    55  C    0.617063
    56  C   -0.288021
    57  H    0.156830
    58  H    0.141089
    59  O   -0.548292
    60  C   -0.278460
    61  H    0.196716
    62  H    0.151402
    63  C   -0.168739
    64  H    0.149503
    65  H    0.180320
    66  N   -0.592673
    67  H    0.372504
    68  N   -0.763100
    69  H    0.372356
    70  H    0.372998
    71  N   -0.745187
    72  H    0.347350
    73  H    0.403961
    74  C    0.794669
    75  O   -0.667457
 Sum of Mulliken charges =   1.00000

 Dipole moment (field-independent basis, Debye):
    X=              0.9162    Y=             -1.5958    Z=             -7.7949  Tot=              8.0092
 Quadrupole moment (field-independent basis, Debye-Ang):
   XX=            -76.4885   YY=           -211.6059   ZZ=           -145.9903
   XY=             25.0887   XZ=            -97.5423   YZ=             -7.1920

 Normal termination of Gaussian 16 at Tue May 31 12:09:32 2022.
