 Gaussian 16, Revision C.01,
 Gaussian 16:  ES64L-G16RevC.01  3-Jul-2019

 ----------------------------------------------------------------------
 # B3LYP/6-31G* empiricaldispersion=gd3 guess=read geom=check nosymm in
 tegral(ultrafinegrid)
 ----------------------------------------------------------------------

 -----------------------------------------------------
 Candidate Structure: Conf:34 Charge calc in gas phase
 -----------------------------------------------------
 Structure from the checkpoint file:  "conf-34.chk"
 Charge =  1 Multiplicity = 1

                          Input orientation:
 ---------------------------------------------------------------------
 Center     Atomic      Atomic             Coordinates (Angstroms)
 Number     Number       Type             X           Y           Z
 ---------------------------------------------------------------------
      1          7           0       -1.473479   -1.559777   -1.399387
      2          1           0       -1.147510   -2.524566   -1.476584
      3          1           0       -2.345729   -1.381042   -1.935504
      4          1           0       -0.785101   -0.885528   -1.800593
      5          6           0       -1.772910   -1.125201    0.018559
      6          1           0       -2.286846   -1.943371    0.531024
      7          6           0       -2.767391    0.049406   -0.211489
      8          6           0       -0.430273   -0.814533    0.693097
      9          1           0        0.190572   -1.720808    0.665650
     10          1           0        0.116950   -0.052379    0.133142
     11          8           0       -3.252385    0.174541   -1.346960
     12          6           0       -0.549639   -0.404372    2.158535
     13          7           0        0.580944    0.116709    2.670275
     14          1           0        0.571460    0.416586    3.636657
     15          1           0        1.343663    0.410825    2.058503
     16          8           0       -1.597374   -0.563653    2.793228
     17          7           0       -2.988437    0.891927    0.795886
     18          1           0       -2.661359    0.628535    1.724925
     19          6           0       -3.621410    2.204576    0.585785
     20          1           0       -4.306894    2.100933   -0.260324
     21          6           0       -2.463909    3.185220    0.236717
     22          6           0       -4.378312    2.642923    1.846092
     23          1           0       -3.651504    2.808191    2.648903
     24          1           0       -4.825651    3.620018    1.638428
     25          8           0       -2.166658    4.120662    0.962385
     26          6           0       -5.423724    1.630097    2.255954
     27          6           0       -6.685414    1.622670    1.647818
     28          1           0       -6.928971    2.384043    0.909452
     29          6           0       -5.129604    0.648506    3.211265
     30          1           0       -4.156073    0.641297    3.697780
     31          6           0       -7.633555    0.656766    1.985668
     32          1           0       -8.610817    0.669602    1.510915
     33          6           0       -6.075446   -0.320489    3.550647
     34          1           0       -5.833552   -1.071132    4.298105
     35          6           0       -7.329850   -0.318820    2.938213
     36          1           0       -8.069525   -1.068023    3.206318
     37          7           0       -1.736383    2.821856   -0.870269
     38          1           0       -2.074617    2.031246   -1.409644
     39          6           0       -0.297218    3.031723   -0.970902
     40          1           0       -0.074495    4.006544   -1.421963
     41          6           0        0.264383    1.921788   -1.892609
     42          6           0        0.388935    2.972473    0.444452
     43          1           0       -0.142485    2.241797    1.054257
     44          1           0        0.273949    3.945365    0.925335
     45          8           0       -0.319840    0.825383   -1.986711
     46          6           0        1.835442    2.518495    0.363111
     47          7           0        2.762384    3.471682    0.126146
     48          1           0        3.630603    3.177077   -0.320841
     49          1           0        2.478524    4.429597   -0.028085
     50          8           0        2.125742    1.317076    0.454074
     51          7           0        1.398097    2.212239   -2.532599
     52          1           0        1.889563    3.080196   -2.328036
     53          6           0        2.288641    1.222176   -3.136319
     54          1           0        1.950089    0.227092   -2.847297
     55          6           0        3.718304    1.449950   -2.582456
     56          6           0        2.279833    1.363959   -4.681657
     57          1           0        1.330801    0.963240   -5.054160
     58          1           0        2.276522    2.434940   -4.924855
     59          8           0        4.459568    0.425104   -2.625761
     60          6           0        3.468656    0.677381   -5.387954
     61          1           0        3.758038   -0.221834   -4.837995
     62          1           0        3.173011    0.373152   -6.399491
     63          6           0        4.684437    1.620211   -5.485045
     64          1           0        4.514100    2.364722   -6.271530
     65          1           0        4.840693    2.178172   -4.561133
     66          7           0        5.941411    0.933136   -5.808204
     67          1           0        6.028328    0.543743   -6.737870
     68          7           0        6.828623    0.803972   -3.651423
     69          1           0        7.665222    0.784085   -3.084230
     70          1           0        5.881442    0.728595   -3.141935
     71          7           0        8.127994    0.268086   -5.513938
     72          1           0        8.879078   -0.048029   -4.918137
     73          1           0        8.389834    0.583516   -6.437171
     74          6           0        6.953470    0.675690   -4.961256
     75          8           0        4.031000    2.622562   -2.271853
 ---------------------------------------------------------------------

 SCF Done:  E(RB3LYP) =  -1917.48524265     A.U. after    1 cycles

 Alpha  occ. eigenvalues --  -19.23708 -19.23302 -19.21777 -19.21023 -19.20586
 Alpha  occ. eigenvalues --  -19.17534 -19.17293 -14.56328 -14.48919 -14.48865
 Alpha  occ. eigenvalues --  -14.46538 -14.46059 -14.45938 -14.44846 -14.44125
 Alpha  occ. eigenvalues --  -14.44079 -10.44528 -10.40832 -10.39931 -10.39672
 Alpha  occ. eigenvalues --  -10.38391 -10.38153 -10.37404 -10.35326 -10.34359
 Alpha  occ. eigenvalues --  -10.32347 -10.32303 -10.31359 -10.30670 -10.29025
 Alpha  occ. eigenvalues --  -10.27836 -10.27656 -10.26412 -10.25707 -10.24677
 Alpha  occ. eigenvalues --  -10.24670 -10.24598 -10.24588 -10.24448  -1.16396
 Alpha  occ. eigenvalues --   -1.14609  -1.13455  -1.12903  -1.12404  -1.12305
 Alpha  occ. eigenvalues --   -1.10879  -1.10663  -1.03569  -1.03107  -1.02578
 Alpha  occ. eigenvalues --   -1.01784  -1.00995  -1.00279  -1.00233  -0.99270
 Alpha  occ. eigenvalues --   -0.91644  -0.90524  -0.89173  -0.87514  -0.86029
 Alpha  occ. eigenvalues --   -0.83353  -0.81336  -0.80037  -0.79485  -0.78587
 Alpha  occ. eigenvalues --   -0.76217  -0.74025  -0.72772  -0.71845  -0.70887
 Alpha  occ. eigenvalues --   -0.70337  -0.69946  -0.68945  -0.68332  -0.67942
 Alpha  occ. eigenvalues --   -0.67118  -0.66583  -0.66099  -0.65849  -0.64936
 Alpha  occ. eigenvalues --   -0.64335  -0.62801  -0.62328  -0.62073  -0.61921
 Alpha  occ. eigenvalues --   -0.61376  -0.60284  -0.59276  -0.58634  -0.58165
 Alpha  occ. eigenvalues --   -0.57797  -0.57282  -0.57168  -0.56436  -0.56007
 Alpha  occ. eigenvalues --   -0.55632  -0.54969  -0.54704  -0.54501  -0.53375
 Alpha  occ. eigenvalues --   -0.52892  -0.52425  -0.51885  -0.51420  -0.51268
 Alpha  occ. eigenvalues --   -0.50872  -0.50701  -0.50174  -0.49795  -0.49134
 Alpha  occ. eigenvalues --   -0.48722  -0.48195  -0.47920  -0.47612  -0.47448
 Alpha  occ. eigenvalues --   -0.47167  -0.47080  -0.46500  -0.46135  -0.46032
 Alpha  occ. eigenvalues --   -0.45591  -0.45046  -0.44927  -0.43993  -0.43445
 Alpha  occ. eigenvalues --   -0.42176  -0.41342  -0.39894  -0.39706  -0.39515
 Alpha  occ. eigenvalues --   -0.38331  -0.37774  -0.37560  -0.37309  -0.37016
 Alpha  occ. eigenvalues --   -0.36619  -0.36197  -0.35640  -0.34913  -0.34142
 Alpha  occ. eigenvalues --   -0.33232  -0.33100  -0.31666  -0.31447  -0.30621
 Alpha  occ. eigenvalues --   -0.30097
 Alpha virt. eigenvalues --   -0.10895  -0.09160  -0.09145  -0.08253  -0.07862
 Alpha virt. eigenvalues --   -0.06778  -0.05953  -0.05843  -0.05575  -0.05477
 Alpha virt. eigenvalues --   -0.03365  -0.02187  -0.01542  -0.01270  -0.00483

 Mulliken charges:
               1
     1  N   -0.757655
     2  H    0.397988
     3  H    0.421546
     4  H    0.442267
     5  C   -0.116025
     6  H    0.235171
     7  C    0.649242
     8  C   -0.406219
     9  H    0.193696
    10  H    0.232575
    11  O   -0.553642
    12  C    0.593160
    13  N   -0.754181
    14  H    0.357681
    15  H    0.400462
    16  O   -0.531722
    17  N   -0.616428
    18  H    0.403814
    19  C   -0.076468
    20  H    0.205049
    21  C    0.621710
    22  C   -0.387905
    23  H    0.172076
    24  H    0.183074
    25  O   -0.496240
    26  C    0.177124
    27  C   -0.180604
    28  H    0.129437
    29  C   -0.197705
    30  H    0.139374
    31  C   -0.128114
    32  H    0.141765
    33  C   -0.133004
    34  H    0.140273
    35  C   -0.129642
    36  H    0.141067
    37  N   -0.642604
    38  H    0.376938
    39  C   -0.003989
    40  H    0.173570
    41  C    0.598964
    42  C   -0.372847
    43  H    0.164943
    44  H    0.212013
    45  O   -0.602559
    46  C    0.579976
    47  N   -0.721072
    48  H    0.389685
    49  H    0.342691
    50  O   -0.545870
    51  N   -0.564898
    52  H    0.350011
    53  C   -0.036172
    54  H    0.160608
    55  C    0.610903
    56  C   -0.279896
    57  H    0.157098
    58  H    0.151648
    59  O   -0.604842
    60  C   -0.273849
    61  H    0.182171
    62  H    0.141455
    63  C   -0.181464
    64  H    0.171668
    65  H    0.219035
    66  N   -0.597278
    67  H    0.350722
    68  N   -0.768968
    69  H    0.351024
    70  H    0.448855
    71  N   -0.764120
    72  H    0.368106
    73  H    0.366907
    74  C    0.779317
    75  O   -0.600879
 Sum of Mulliken charges =   1.00000

 Dipole moment (field-independent basis, Debye):
    X=             13.3147    Y=             -0.5746    Z=            -15.3475  Tot=             20.3262
 Quadrupole moment (field-independent basis, Debye-Ang):
   XX=            -68.2211   YY=           -203.3799   ZZ=           -126.3072
   XY=             21.2971   XZ=            -97.7826   YZ=             -7.0444

 Normal termination of Gaussian 16 at Tue May 31 12:09:45 2022.
