 Gaussian 16, Revision C.01,
 Gaussian 16:  ES64L-G16RevC.01  3-Jul-2019

 ----------------------------------------------------------------------
 # B3LYP/6-31G* empiricaldispersion=gd3 guess=read geom=check nosymm in
 tegral(ultrafinegrid)
 ----------------------------------------------------------------------

 ------------------------------------------------------
 Candidate Structure: Conf:474 Charge calc in gas phase
 ------------------------------------------------------
 Structure from the checkpoint file:  "conf-474.chk"
 Charge =  1 Multiplicity = 1

                          Input orientation:
 ---------------------------------------------------------------------
 Center     Atomic      Atomic             Coordinates (Angstroms)
 Number     Number       Type             X           Y           Z
 ---------------------------------------------------------------------
      1          7           0       -3.506937   -3.903576    2.487628
      2          1           0       -3.359841   -4.031258    1.468438
      3          1           0       -2.543327   -4.098228    2.980451
      4          1           0       -4.251816   -4.508394    2.835036
      5          6           0       -3.761548   -2.434585    2.698010
      6          1           0       -4.817280   -2.281695    2.939128
      7          6           0       -3.414796   -1.761419    1.345154
      8          6           0       -2.862009   -1.906856    3.843061
      9          1           0       -2.926644   -0.818173    3.891718
     10          1           0       -3.226909   -2.304954    4.796379
     11          8           0       -2.961060   -2.446344    0.432467
     12          6           0       -1.412927   -2.381399    3.673810
     13          7           0       -0.459695   -1.466272    3.679943
     14          1           0        0.526481   -1.709729    3.468739
     15          1           0       -0.700641   -0.486292    3.551717
     16          8           0       -1.216009   -3.616295    3.551687
     17          7           0       -3.614495   -0.424604    1.286287
     18          1           0       -3.833061    0.040097    2.160035
     19          6           0       -2.816587    0.404408    0.372175
     20          1           0       -2.772173   -0.113946   -0.587379
     21          6           0       -1.411477    0.538254    0.998147
     22          6           0       -3.462093    1.793409    0.205386
     23          1           0       -4.466396    1.660791   -0.212084
     24          1           0       -3.570115    2.244440    1.199605
     25          8           0       -1.323687    0.791103    2.209405
     26          6           0       -2.616070    2.685183   -0.677713
     27          6           0       -1.675679    3.556765   -0.113320
     28          1           0       -1.582407    3.616217    0.968478
     29          6           0       -2.711687    2.600332   -2.072100
     30          1           0       -3.438602    1.927002   -2.521347
     31          6           0       -0.855663    4.337158   -0.927783
     32          1           0       -0.137592    5.015685   -0.474587
     33          6           0       -1.889235    3.375936   -2.889205
     34          1           0       -1.976427    3.301306   -3.969361
     35          6           0       -0.963128    4.248393   -2.316523
     36          1           0       -0.330210    4.860693   -2.953150
     37          7           0       -0.386060    0.337011    0.163901
     38          1           0       -0.537749    0.355467   -0.844653
     39          6           0        1.024807    0.445407    0.509364
     40          1           0        1.113200    1.023291    1.433656
     41          6           0        1.678081    1.164314   -0.696415
     42          6           0        1.668355   -0.977382    0.679348
     43          1           0        2.173728   -1.265049   -0.248690
     44          1           0        0.860408   -1.691633    0.851006
     45          8           0        1.079755    1.190852   -1.778173
     46          6           0        2.620060   -1.110417    1.875344
     47          7           0        3.893870   -0.737412    1.699857
     48          1           0        4.497628   -0.812616    2.510924
     49          1           0        4.321749   -0.319555    0.852268
     50          8           0        2.207406   -1.542811    2.964117
     51          7           0        2.913847    1.652504   -0.503181
     52          1           0        3.416635    1.421144    0.354602
     53          6           0        3.855642    1.833480   -1.609814
     54          1           0        3.531277    1.192174   -2.437752
     55          6           0        5.290551    1.363309   -1.140324
     56          6           0        3.939138    3.271251   -2.120918
     57          1           0        4.321553    3.891443   -1.292365
     58          1           0        4.719832    3.256759   -2.890193
     59          8           0        6.209699    1.657778   -1.913406
     60          6           0        2.621787    3.846651   -2.660497
     61          1           0        2.070795    3.078801   -3.211575
     62          1           0        1.964171    4.147243   -1.837584
     63          6           0        2.853362    5.027180   -3.608263
     64          1           0        3.330639    4.668795   -4.530633
     65          1           0        1.911273    5.526367   -3.865657
     66          7           0        3.744862    6.022556   -2.974688
     67          1           0        4.304286    5.674368   -2.203924
     68          7           0        3.583907    7.602526   -4.665070
     69          1           0        3.621168    8.569131   -4.954127
     70          1           0        3.135678    6.945686   -5.286381
     71          7           0        4.798155    8.080591   -2.754137
     72          1           0        5.317261    8.810523   -3.221727
     73          1           0        5.113531    7.832944   -1.826504
     74          6           0        4.049175    7.215465   -3.467734
     75          8           0        5.320354    0.769484   -0.018723
 ---------------------------------------------------------------------

 SCF Done:  E(RB3LYP) =  -1917.44066417     A.U. after    1 cycles

 Alpha  occ. eigenvalues --  -19.25365 -19.22519 -19.21333 -19.18785 -19.17305
 Alpha  occ. eigenvalues --  -19.11264 -19.10045 -14.54455 -14.52847 -14.52461
 Alpha  occ. eigenvalues --  -14.52092 -14.48296 -14.44929 -14.43381 -14.41369
 Alpha  occ. eigenvalues --  -14.39465 -10.48820 -10.42145 -10.39665 -10.38952
 Alpha  occ. eigenvalues --  -10.38286 -10.35569 -10.35099 -10.34896 -10.33783
 Alpha  occ. eigenvalues --  -10.32748 -10.31846 -10.29166 -10.29000 -10.28068
 Alpha  occ. eigenvalues --  -10.27551 -10.27182 -10.27123 -10.27042 -10.26980
 Alpha  occ. eigenvalues --  -10.26940 -10.26792 -10.26390 -10.25529  -1.17501
 Alpha  occ. eigenvalues --   -1.17339  -1.14014  -1.12990  -1.10451  -1.09189
 Alpha  occ. eigenvalues --   -1.08645  -1.06368  -1.05637  -1.04969  -1.04183
 Alpha  occ. eigenvalues --   -1.01538  -0.99760  -0.98194  -0.95693  -0.94600
 Alpha  occ. eigenvalues --   -0.93988  -0.91418  -0.89653  -0.88447  -0.85557
 Alpha  occ. eigenvalues --   -0.82775  -0.82450  -0.82339  -0.79666  -0.79575
 Alpha  occ. eigenvalues --   -0.76741  -0.75590  -0.74175  -0.73457  -0.71447
 Alpha  occ. eigenvalues --   -0.71040  -0.70553  -0.70126  -0.68806  -0.67852
 Alpha  occ. eigenvalues --   -0.66924  -0.66708  -0.66428  -0.65993  -0.65500
 Alpha  occ. eigenvalues --   -0.64415  -0.64309  -0.63389  -0.62085  -0.61399
 Alpha  occ. eigenvalues --   -0.61037  -0.60208  -0.59278  -0.58992  -0.58213
 Alpha  occ. eigenvalues --   -0.57938  -0.57598  -0.57299  -0.56443  -0.56003
 Alpha  occ. eigenvalues --   -0.55281  -0.54396  -0.53882  -0.53721  -0.53312
 Alpha  occ. eigenvalues --   -0.52703  -0.52503  -0.52249  -0.51435  -0.51372
 Alpha  occ. eigenvalues --   -0.50710  -0.50254  -0.49916  -0.49604  -0.48968
 Alpha  occ. eigenvalues --   -0.48808  -0.48225  -0.47815  -0.47012  -0.46609
 Alpha  occ. eigenvalues --   -0.46325  -0.46209  -0.45416  -0.45043  -0.44464
 Alpha  occ. eigenvalues --   -0.43894  -0.43807  -0.43133  -0.42510  -0.42465
 Alpha  occ. eigenvalues --   -0.42127  -0.42022  -0.41320  -0.40739  -0.40409
 Alpha  occ. eigenvalues --   -0.39452  -0.38741  -0.38425  -0.37111  -0.36135
 Alpha  occ. eigenvalues --   -0.35317  -0.34707  -0.33048  -0.32912  -0.32609
 Alpha  occ. eigenvalues --   -0.32173  -0.31730  -0.31257  -0.26490  -0.26046
 Alpha  occ. eigenvalues --   -0.24309
 Alpha virt. eigenvalues --   -0.12813  -0.11595  -0.08834  -0.08670  -0.08571
 Alpha virt. eigenvalues --   -0.08353  -0.07414  -0.06258  -0.05078  -0.04780
 Alpha virt. eigenvalues --   -0.03648  -0.03324  -0.03168  -0.03112  -0.01756

 Mulliken charges:
               1
     1  N   -0.773738
     2  H    0.417936
     3  H    0.451520
     4  H    0.395861
     5  C   -0.120950
     6  H    0.213475
     7  C    0.639199
     8  C   -0.388964
     9  H    0.194331
    10  H    0.211676
    11  O   -0.504770
    12  C    0.617837
    13  N   -0.763733
    14  H    0.420858
    15  H    0.389646
    16  O   -0.564193
    17  N   -0.580124
    18  H    0.346808
    19  C   -0.065397
    20  H    0.194291
    21  C    0.634511
    22  C   -0.371300
    23  H    0.175818
    24  H    0.163805
    25  O   -0.588577
    26  C    0.146653
    27  C   -0.179194
    28  H    0.147160
    29  C   -0.182966
    30  H    0.137025
    31  C   -0.124730
    32  H    0.129250
    33  C   -0.116482
    34  H    0.142588
    35  C   -0.111711
    36  H    0.115225
    37  N   -0.579419
    38  H    0.369617
    39  C   -0.068484
    40  H    0.191697
    41  C    0.608335
    42  C   -0.368498
    43  H    0.189839
    44  H    0.182436
    45  O   -0.550162
    46  C    0.582889
    47  N   -0.748109
    48  H    0.345498
    49  H    0.402950
    50  O   -0.549418
    51  N   -0.596970
    52  H    0.340236
    53  C   -0.089199
    54  H    0.167989
    55  C    0.596273
    56  C   -0.291356
    57  H    0.120636
    58  H    0.180583
    59  O   -0.558972
    60  C   -0.301850
    61  H    0.202099
    62  H    0.163540
    63  C   -0.171141
    64  H    0.186570
    65  H    0.172751
    66  N   -0.594878
    67  H    0.375653
    68  N   -0.757008
    69  H    0.385356
    70  H    0.394610
    71  N   -0.758610
    72  H    0.382801
    73  H    0.386518
    74  C    0.826030
    75  O   -0.619479
 Sum of Mulliken charges =   1.00000

 Dipole moment (field-independent basis, Debye):
    X=             -8.5932    Y=             20.8664    Z=             -5.1975  Tot=             23.1573
 Quadrupole moment (field-independent basis, Debye-Ang):
   XX=           -179.0998   YY=             17.5204   ZZ=           -149.5247
   XY=            144.9919   XZ=            -71.2904   YZ=           -119.5567

 Normal termination of Gaussian 16 at Tue May 31 12:09:34 2022.
