 Gaussian 16, Revision C.01,
 Gaussian 16:  ES64L-G16RevC.01  3-Jul-2019

 ----------------------------------------------------------------------
 # B3LYP/6-31G* empiricaldispersion=gd3 guess=read geom=check nosymm in
 tegral(ultrafinegrid)
 ----------------------------------------------------------------------

 ------------------------------------------------------
 Candidate Structure: Conf:876 Charge calc in gas phase
 ------------------------------------------------------
 Structure from the checkpoint file:  "conf-876.chk"
 Charge =  1 Multiplicity = 1

                          Input orientation:
 ---------------------------------------------------------------------
 Center     Atomic      Atomic             Coordinates (Angstroms)
 Number     Number       Type             X           Y           Z
 ---------------------------------------------------------------------
      1          7           0       -1.719301   -1.530038    2.146705
      2          1           0       -1.892685   -2.034334    1.270597
      3          1           0       -0.934777   -0.824949    1.976435
      4          1           0       -1.513761   -2.141457    2.955515
      5          6           0       -2.945882   -0.732106    2.487841
      6          1           0       -3.752679   -1.451956    2.661945
      7          6           0       -3.275138    0.034594    1.191503
      8          6           0       -2.694212    0.087170    3.756640
      9          1           0       -1.887389    0.806675    3.568711
     10          1           0       -3.603854    0.646396    4.004507
     11          8           0       -3.115822   -0.561621    0.124710
     12          6           0       -2.308070   -0.803907    4.944288
     13          7           0       -2.463410   -0.252766    6.165832
     14          1           0       -2.164006   -0.782164    6.974614
     15          1           0       -2.797089    0.689697    6.305188
     16          8           0       -1.870681   -1.947187    4.788051
     17          7           0       -3.736632    1.289756    1.299537
     18          1           0       -3.729337    1.756630    2.195106
     19          6           0       -3.957494    2.140209    0.122443
     20          1           0       -4.261741    1.468766   -0.684256
     21          6           0       -2.598890    2.807407   -0.202665
     22          6           0       -5.049265    3.181239    0.410813
     23          1           0       -4.624897    3.950125    1.064754
     24          1           0       -5.284728    3.683603   -0.534272
     25          8           0       -2.335769    3.946141    0.175032
     26          6           0       -6.282314    2.559676    1.026111
     27          6           0       -7.139602    1.756276    0.262835
     28          1           0       -6.941911    1.620289   -0.798450
     29          6           0       -6.558330    2.727159    2.388855
     30          1           0       -5.914699    3.368498    2.988983
     31          6           0       -8.242665    1.133964    0.846690
     32          1           0       -8.900895    0.519262    0.238780
     33          6           0       -7.662392    2.106884    2.978479
     34          1           0       -7.868948    2.258763    4.034653
     35          6           0       -8.506233    1.305601    2.208311
     36          1           0       -9.368950    0.826011    2.661955
     37          7           0       -1.719806    2.004700   -0.844702
     38          1           0       -1.953528    1.042604   -1.077760
     39          6           0       -0.328780    2.373124   -1.004805
     40          1           0       -0.276936    3.366898   -1.464380
     41          6           0        0.324499    1.330692   -1.936133
     42          6           0        0.429907    2.478097    0.356360
     43          1           0       -0.147037    3.147375    0.997668
     44          1           0        1.415702    2.922411    0.193715
     45          8           0       -0.297597    0.331946   -2.307151
     46          6           0        0.572653    1.138626    1.052034
     47          7           0        1.730699    0.506803    0.900811
     48          1           0        1.854516   -0.386386    1.361366
     49          1           0        2.526145    0.888283    0.317436
     50          8           0       -0.393698    0.674559    1.714588
     51          7           0        1.609644    1.591167   -2.261301
     52          1           0        2.096456    2.288279   -1.699073
     53          6           0        2.551059    0.524153   -2.610832
     54          1           0        2.084510   -0.432014   -2.341173
     55          6           0        3.842194    0.693562   -1.717580
     56          6           0        2.897032    0.501280   -4.097648
     57          1           0        3.302659    1.480712   -4.386207
     58          1           0        3.702488   -0.229514   -4.224063
     59          8           0        4.837224    0.066773   -2.083402
     60          6           0        1.689757    0.156750   -4.973765
     61          1           0        1.284070   -0.820370   -4.682633
     62          1           0        0.892150    0.893226   -4.809888
     63          6           0        2.072421    0.131083   -6.450953
     64          1           0        2.456206    1.112270   -6.760244
     65          1           0        2.849285   -0.621786   -6.629649
     66          7           0        0.895216   -0.212523   -7.279132
     67          1           0       -0.005958   -0.167244   -6.818544
     68          7           0        2.052681   -0.371027   -9.281116
     69          1           0        2.170836   -0.826630  -10.174684
     70          1           0        2.863975    0.076103   -8.879079
     71          7           0       -0.171873   -1.002955   -9.187477
     72          1           0       -0.255573   -0.980698  -10.193821
     73          1           0       -0.997863   -1.253152   -8.662997
     74          6           0        0.924445   -0.521566   -8.569953
     75          8           0        3.684312    1.457174   -0.700794
 ---------------------------------------------------------------------

 SCF Done:  E(RB3LYP) =  -1917.45759490     A.U. after    3 cycles

 Alpha  occ. eigenvalues --  -19.23123 -19.22064 -19.20558 -19.18563 -19.18423
 Alpha  occ. eigenvalues --  -19.11890 -19.10807 -14.53254 -14.53211 -14.52919
 Alpha  occ. eigenvalues --  -14.52105 -14.46745 -14.46621 -14.42407 -14.41746
 Alpha  occ. eigenvalues --  -14.40768 -10.49477 -10.40884 -10.39684 -10.37025
 Alpha  occ. eigenvalues --  -10.36594 -10.35663 -10.35272 -10.35131 -10.32035
 Alpha  occ. eigenvalues --  -10.31690 -10.30897 -10.29671 -10.28074 -10.26586
 Alpha  occ. eigenvalues --  -10.26510 -10.26486 -10.26321 -10.25788 -10.25716
 Alpha  occ. eigenvalues --  -10.25624 -10.25543 -10.25436 -10.24756  -1.17909
 Alpha  occ. eigenvalues --   -1.15014  -1.14397  -1.11187  -1.10641  -1.09761
 Alpha  occ. eigenvalues --   -1.07500  -1.06931  -1.06172  -1.04738  -1.03003
 Alpha  occ. eigenvalues --   -1.01648  -0.99163  -0.98234  -0.97260  -0.95782
 Alpha  occ. eigenvalues --   -0.92379  -0.90145  -0.89980  -0.86608  -0.85078
 Alpha  occ. eigenvalues --   -0.82791  -0.81228  -0.81039  -0.79706  -0.78892
 Alpha  occ. eigenvalues --   -0.76600  -0.75722  -0.74191  -0.72199  -0.71253
 Alpha  occ. eigenvalues --   -0.70769  -0.69751  -0.68831  -0.67662  -0.67161
 Alpha  occ. eigenvalues --   -0.66666  -0.66527  -0.66258  -0.65534  -0.65079
 Alpha  occ. eigenvalues --   -0.64476  -0.64192  -0.63095  -0.62054  -0.61483
 Alpha  occ. eigenvalues --   -0.60281  -0.59620  -0.59414  -0.59338  -0.58247
 Alpha  occ. eigenvalues --   -0.57020  -0.56941  -0.56654  -0.56171  -0.56084
 Alpha  occ. eigenvalues --   -0.54215  -0.53548  -0.53114  -0.52788  -0.52465
 Alpha  occ. eigenvalues --   -0.51899  -0.51636  -0.51530  -0.51029  -0.50352
 Alpha  occ. eigenvalues --   -0.49973  -0.49660  -0.48682  -0.48626  -0.48433
 Alpha  occ. eigenvalues --   -0.47952  -0.47659  -0.47268  -0.47161  -0.46388
 Alpha  occ. eigenvalues --   -0.45994  -0.45674  -0.44958  -0.44334  -0.44251
 Alpha  occ. eigenvalues --   -0.43736  -0.43417  -0.42404  -0.42202  -0.42050
 Alpha  occ. eigenvalues --   -0.41459  -0.41443  -0.40747  -0.40571  -0.40530
 Alpha  occ. eigenvalues --   -0.38704  -0.37940  -0.37363  -0.36968  -0.36067
 Alpha  occ. eigenvalues --   -0.35066  -0.34673  -0.32795  -0.32227  -0.31950
 Alpha  occ. eigenvalues --   -0.31673  -0.31527  -0.30875  -0.27371  -0.26603
 Alpha  occ. eigenvalues --   -0.24739
 Alpha virt. eigenvalues --   -0.13227  -0.09316  -0.09263  -0.08392  -0.07098
 Alpha virt. eigenvalues --   -0.06837  -0.05839  -0.05359  -0.05085  -0.04547
 Alpha virt. eigenvalues --   -0.04141  -0.03909  -0.03152  -0.01360  -0.00647

 Mulliken charges:
               1
     1  N   -0.760340
     2  H    0.401740
     3  H    0.419113
     4  H    0.419716
     5  C   -0.107595
     6  H    0.221651
     7  C    0.685511
     8  C   -0.434107
     9  H    0.244009
    10  H    0.184964
    11  O   -0.546435
    12  C    0.642378
    13  N   -0.737710
    14  H    0.371699
    15  H    0.359834
    16  O   -0.529379
    17  N   -0.602585
    18  H    0.349301
    19  C   -0.067297
    20  H    0.188100
    21  C    0.639592
    22  C   -0.397529
    23  H    0.183138
    24  H    0.176669
    25  O   -0.529264
    26  C    0.187520
    27  C   -0.178687
    28  H    0.129150
    29  C   -0.210721
    30  H    0.122719
    31  C   -0.128447
    32  H    0.142606
    33  C   -0.129852
    34  H    0.137948
    35  C   -0.130871
    36  H    0.143732
    37  N   -0.619780
    38  H    0.374158
    39  C   -0.051525
    40  H    0.193150
    41  C    0.587421
    42  C   -0.376863
    43  H    0.205181
    44  H    0.192822
    45  O   -0.554561
    46  C    0.605900
    47  N   -0.752832
    48  H    0.328782
    49  H    0.438717
    50  O   -0.611888
    51  N   -0.594370
    52  H    0.346777
    53  C   -0.083519
    54  H    0.157243
    55  C    0.585312
    56  C   -0.257529
    57  H    0.140238
    58  H    0.177577
    59  O   -0.538846
    60  C   -0.311007
    61  H    0.166380
    62  H    0.166576
    63  C   -0.148252
    64  H    0.183482
    65  H    0.187855
    66  N   -0.605719
    67  H    0.370699
    68  N   -0.756670
    69  H    0.386185
    70  H    0.398807
    71  N   -0.764981
    72  H    0.385088
    73  H    0.385155
    74  C    0.836776
    75  O   -0.632210
 Sum of Mulliken charges =   1.00000

 Dipole moment (field-independent basis, Debye):
    X=            -12.4734    Y=             -3.7397    Z=            -20.7167  Tot=             24.4694
 Quadrupole moment (field-independent basis, Debye-Ang):
   XX=           -218.9223   YY=           -227.4176   ZZ=            148.4133
   XY=             -3.9269   XZ=            -55.3100   YZ=             24.4493

 Normal termination of Gaussian 16 at Tue May 31 12:09:58 2022.
