 Gaussian 16, Revision C.01,
 Gaussian 16:  ES64L-G16RevC.01  3-Jul-2019

 ----------------------------------------------------------------------
 # B3LYP/6-31G* empiricaldispersion=gd3 guess=read geom=check nosymm in
 tegral(ultrafinegrid)
 ----------------------------------------------------------------------

 ------------------------------------------------------
 Candidate Structure: Conf:156 Charge calc in gas phase
 ------------------------------------------------------
 Structure from the checkpoint file:  "conf-156.chk"
 Charge =  1 Multiplicity = 1

                          Input orientation:
 ---------------------------------------------------------------------
 Center     Atomic      Atomic             Coordinates (Angstroms)
 Number     Number       Type             X           Y           Z
 ---------------------------------------------------------------------
      1          7           0       -5.320632   -0.809208    1.289872
      2          1           0       -6.006970   -0.072035    1.510910
      3          1           0       -5.318979   -0.906361    0.260470
      4          1           0       -5.508151   -1.707462    1.799303
      5          6           0       -3.938216   -0.362297    1.677970
      6          1           0       -4.025841    0.144687    2.640989
      7          6           0       -3.525536    0.618212    0.564960
      8          6           0       -2.974522   -1.551493    1.779930
      9          1           0       -2.862039   -2.016530    0.791258
     10          1           0       -1.996469   -1.151732    2.070362
     11          8           0       -4.026149    0.486444   -0.552477
     12          6           0       -3.487780   -2.615424    2.750485
     13          7           0       -2.565063   -3.262306    3.482030
     14          1           0       -2.867817   -4.002064    4.103699
     15          1           0       -1.582381   -3.032555    3.446879
     16          8           0       -4.697769   -2.872634    2.828147
     17          7           0       -2.661731    1.561123    0.948733
     18          1           0       -2.210265    1.480473    1.859911
     19          6           0       -2.373298    2.757930    0.157320
     20          1           0       -2.478587    2.484431   -0.896468
     21          6           0       -0.910214    3.081950    0.522028
     22          6           0       -3.351957    3.905513    0.525475
     23          1           0       -2.981525    4.374046    1.441943
     24          1           0       -3.305548    4.662294   -0.265406
     25          8           0       -0.624845    3.890098    1.398640
     26          6           0       -4.764291    3.393830    0.717144
     27          6           0       -5.621018    3.189553   -0.372599
     28          1           0       -5.297687    3.483414   -1.367764
     29          6           0       -5.201310    2.999427    1.990048
     30          1           0       -4.557286    3.169681    2.849875
     31          6           0       -6.868900    2.589647   -0.203382
     32          1           0       -7.517282    2.442649   -1.062260
     33          6           0       -6.450871    2.396018    2.170383
     34          1           0       -6.784302    2.129444    3.170748
     35          6           0       -7.288121    2.182525    1.067961
     36          1           0       -8.272364    1.741555    1.204365
     37          7           0        0.003150    2.274881   -0.073822
     38          1           0       -0.256844    1.615502   -0.799363
     39          6           0        1.342187    2.117214    0.451021
     40          1           0        1.684039    3.089486    0.816798
     41          6           0        2.234836    1.594176   -0.686706
     42          6           0        1.402465    1.060323    1.600470
     43          1           0        2.432441    1.001141    1.971848
     44          1           0        1.133252    0.086371    1.183293
     45          8           0        1.745089    0.934493   -1.605188
     46          6           0        0.432191    1.342414    2.742520
     47          7           0        0.859165    2.204157    3.689062
     48          1           0        0.187435    2.533492    4.370140
     49          1           0        1.688335    2.765557    3.554216
     50          8           0       -0.679313    0.796136    2.805062
     51          7           0        3.547642    1.856866   -0.545589
     52          1           0        3.901529    2.291731    0.302531
     53          6           0        4.576756    1.155137   -1.299844
     54          1           0        4.129748    0.239359   -1.686952
     55          6           0        5.697175    0.785468   -0.306411
     56          6           0        5.126298    2.008936   -2.463452
     57          1           0        5.320717    3.015103   -2.074190
     58          1           0        6.097821    1.609523   -2.770639
     59          8           0        6.556876   -0.134798   -0.703947
     60          6           0        4.182728    2.098138   -3.674003
     61          1           0        3.204684    2.478904   -3.355841
     62          1           0        4.595117    2.829660   -4.381630
     63          6           0        3.949022    0.765662   -4.412265
     64          1           0        3.412082    0.065742   -3.766749
     65          1           0        3.297110    0.933632   -5.274790
     66          7           0        5.173330    0.131924   -4.907281
     67          1           0        5.570132    0.527645   -5.750095
     68          7           0        5.725755   -1.226164   -3.025550
     69          1           0        6.279910   -0.600525   -1.571574
     70          1           0        4.728680   -1.434064   -3.012844
     71          7           0        7.373323   -0.437226   -4.433430
     72          1           0        8.010150   -0.953941   -3.841049
     73          1           0        7.728602    0.438674   -4.792921
     74          6           0        6.050071   -0.527680   -4.078877
     75          8           0        5.776664    1.353596    0.768901
 ---------------------------------------------------------------------

 SCF Done:  E(RB3LYP) =  -1917.47679778     A.U. after    1 cycles

 Alpha  occ. eigenvalues --  -19.25393 -19.24455 -19.23254 -19.22982 -19.21828
 Alpha  occ. eigenvalues --  -19.21386 -19.19460 -14.56347 -14.48903 -14.47612
 Alpha  occ. eigenvalues --  -14.46485 -14.45932 -14.45044 -14.43645 -14.42959
 Alpha  occ. eigenvalues --  -14.37313 -10.42969 -10.41490 -10.40519 -10.39027
 Alpha  occ. eigenvalues --  -10.39005 -10.38509 -10.37926 -10.37401 -10.34383
 Alpha  occ. eigenvalues --  -10.34209 -10.33982 -10.31303 -10.30556 -10.30196
 Alpha  occ. eigenvalues --  -10.29399 -10.29207 -10.28964 -10.28833 -10.28573
 Alpha  occ. eigenvalues --  -10.28570 -10.28376 -10.27086 -10.26564  -1.17348
 Alpha  occ. eigenvalues --   -1.16582  -1.15025  -1.14499  -1.13820  -1.12999
 Alpha  occ. eigenvalues --   -1.11069  -1.07102  -1.06384  -1.05026  -1.03805
 Alpha  occ. eigenvalues --   -1.02646  -1.01735  -1.01333  -0.97227  -0.95329
 Alpha  occ. eigenvalues --   -0.92667  -0.92620  -0.89589  -0.88441  -0.87094
 Alpha  occ. eigenvalues --   -0.84401  -0.84068  -0.82033  -0.80935  -0.78880
 Alpha  occ. eigenvalues --   -0.76102  -0.74823  -0.73293  -0.71699  -0.70825
 Alpha  occ. eigenvalues --   -0.70116  -0.69779  -0.69370  -0.69238  -0.68761
 Alpha  occ. eigenvalues --   -0.68136  -0.67899  -0.66719  -0.66471  -0.65891
 Alpha  occ. eigenvalues --   -0.65353  -0.64281  -0.63783  -0.62961  -0.62162
 Alpha  occ. eigenvalues --   -0.61120  -0.60222  -0.59791  -0.59468  -0.58334
 Alpha  occ. eigenvalues --   -0.57845  -0.57586  -0.57214  -0.56795  -0.56114
 Alpha  occ. eigenvalues --   -0.55919  -0.55712  -0.55302  -0.54650  -0.54418
 Alpha  occ. eigenvalues --   -0.53737  -0.53620  -0.53221  -0.52323  -0.51887
 Alpha  occ. eigenvalues --   -0.51569  -0.51396  -0.51227  -0.51023  -0.50847
 Alpha  occ. eigenvalues --   -0.50324  -0.49894  -0.49353  -0.48998  -0.48571
 Alpha  occ. eigenvalues --   -0.48483  -0.47912  -0.47430  -0.47116  -0.46321
 Alpha  occ. eigenvalues --   -0.45876  -0.45650  -0.45485  -0.43904  -0.43531
 Alpha  occ. eigenvalues --   -0.43459  -0.43295  -0.42194  -0.41513  -0.40114
 Alpha  occ. eigenvalues --   -0.39751  -0.38792  -0.38614  -0.37886  -0.37097
 Alpha  occ. eigenvalues --   -0.36591  -0.36216  -0.36186  -0.35487  -0.34916
 Alpha  occ. eigenvalues --   -0.34526  -0.34234  -0.33989  -0.33966  -0.33050
 Alpha  occ. eigenvalues --   -0.31094
 Alpha virt. eigenvalues --   -0.11425  -0.10815  -0.10325  -0.10213  -0.09795
 Alpha virt. eigenvalues --   -0.08279  -0.06509  -0.05889  -0.05118  -0.04064
 Alpha virt. eigenvalues --   -0.03265  -0.03061  -0.02083  -0.01314  -0.00270

 Mulliken charges:
               1
     1  N   -0.754595
     2  H    0.404049
     3  H    0.408729
     4  H    0.435066
     5  C   -0.121418
     6  H    0.211524
     7  C    0.649944
     8  C   -0.413267
     9  H    0.214568
    10  H    0.228106
    11  O   -0.532669
    12  C    0.644216
    13  N   -0.729368
    14  H    0.376255
    15  H    0.369289
    16  O   -0.538779
    17  N   -0.621672
    18  H    0.392307
    19  C   -0.049321
    20  H    0.189844
    21  C    0.601459
    22  C   -0.360798
    23  H    0.190073
    24  H    0.175575
    25  O   -0.519731
    26  C    0.153887
    27  C   -0.146944
    28  H    0.148830
    29  C   -0.187794
    30  H    0.139711
    31  C   -0.124265
    32  H    0.157849
    33  C   -0.178801
    34  H    0.151701
    35  C   -0.170636
    36  H    0.155062
    37  N   -0.594507
    38  H    0.354605
    39  C   -0.063805
    40  H    0.190055
    41  C    0.628547
    42  C   -0.362830
    43  H    0.188733
    44  H    0.180624
    45  O   -0.545487
    46  C    0.611246
    47  N   -0.699699
    48  H    0.358684
    49  H    0.360408
    50  O   -0.566556
    51  N   -0.595250
    52  H    0.351282
    53  C   -0.083933
    54  H    0.168659
    55  C    0.602960
    56  C   -0.268841
    57  H    0.161815
    58  H    0.152814
    59  O   -0.597569
    60  C   -0.262265
    61  H    0.164100
    62  H    0.141893
    63  C   -0.169513
    64  H    0.176843
    65  H    0.168486
    66  N   -0.578403
    67  H    0.330494
    68  N   -0.742167
    69  H    0.465453
    70  H    0.299705
    71  N   -0.738205
    72  H    0.360982
    73  H    0.335659
    74  C    0.653870
    75  O   -0.486870
 Sum of Mulliken charges =   1.00000

 Dipole moment (field-independent basis, Debye):
    X=             -8.0514    Y=              1.7883    Z=              1.9459  Tot=              8.4741
 Quadrupole moment (field-independent basis, Debye-Ang):
   XX=           -123.5669   YY=           -203.6756   ZZ=           -160.9176
   XY=             18.2245   XZ=            -63.4332   YZ=            -19.2899

 Normal termination of Gaussian 16 at Tue May 31 12:09:42 2022.
