 Gaussian 16, Revision C.01,
 Gaussian 16:  ES64L-G16RevC.01  3-Jul-2019

 ----------------------------------------------------------------------
 # B3LYP/6-31G* empiricaldispersion=gd3 guess=read geom=check nosymm in
 tegral(ultrafinegrid)
 ----------------------------------------------------------------------

 ------------------------------------------------------
 Candidate Structure: Conf:584 Charge calc in gas phase
 ------------------------------------------------------
 Structure from the checkpoint file:  "conf-584.chk"
 Charge =  1 Multiplicity = 1

                          Input orientation:
 ---------------------------------------------------------------------
 Center     Atomic      Atomic             Coordinates (Angstroms)
 Number     Number       Type             X           Y           Z
 ---------------------------------------------------------------------
      1          7           0       -4.927264    0.905715    5.712707
      2          1           0       -5.579302    1.695610    5.738409
      3          1           0       -5.306017    0.180669    5.025197
      4          1           0       -4.834395    0.521429    6.656781
      5          6           0       -3.603598    1.245299    5.055923
      6          1           0       -3.434272    2.320985    5.132481
      7          6           0       -3.844042    0.790513    3.587523
      8          6           0       -2.470453    0.438343    5.732435
      9          1           0       -2.217994    0.896179    6.696334
     10          1           0       -2.804003   -0.590423    5.898099
     11          8           0       -4.744176   -0.042666    3.403446
     12          6           0       -1.264605    0.337376    4.775948
     13          7           0       -0.420930    1.398678    4.783456
     14          1           0        0.247462    1.472979    4.024064
     15          1           0       -0.419409    2.106915    5.502376
     16          8           0       -1.194530   -0.592700    3.990524
     17          7           0       -3.045522    1.319798    2.674311
     18          1           0       -2.261738    1.923079    2.945495
     19          6           0       -2.786564    0.698155    1.375760
     20          1           0       -2.889564   -0.385725    1.494245
     21          6           0       -1.308346    1.048458    1.080391
     22          6           0       -3.755741    1.195127    0.272337
     23          1           0       -3.627287    0.554296   -0.607178
     24          1           0       -4.773875    1.020640    0.637933
     25          8           0       -0.677496    1.784712    1.848942
     26          6           0       -3.540537    2.645339   -0.099449
     27          6           0       -4.088508    3.673086    0.679067
     28          1           0       -4.727123    3.420746    1.522782
     29          6           0       -2.742829    2.983731   -1.201648
     30          1           0       -2.322154    2.198859   -1.824741
     31          6           0       -3.834562    5.010921    0.374921
     32          1           0       -4.272867    5.798126    0.982732
     33          6           0       -2.485528    4.321383   -1.504564
     34          1           0       -1.863500    4.566892   -2.361212
     35          6           0       -3.026415    5.338344   -0.715918
     36          1           0       -2.828241    6.379545   -0.954194
     37          7           0       -0.805290    0.526512   -0.042782
     38          1           0       -1.400329    0.053935   -0.720114
     39          6           0        0.461017    0.958745   -0.610029
     40          1           0        0.699536    1.956445   -0.232787
     41          6           0        0.248455    0.988217   -2.141573
     42          6           0        1.619114    0.013675   -0.204543
     43          1           0        1.431936   -0.997709   -0.582097
     44          1           0        1.643221   -0.027578    0.889158
     45          8           0       -0.743267    0.433491   -2.633980
     46          6           0        2.934147    0.613531   -0.703585
     47          7           0        3.721811   -0.174209   -1.483633
     48          1           0        4.347045    0.331448   -2.106113
     49          1           0        3.338793   -1.027223   -1.867970
     50          8           0        3.206814    1.781595   -0.437660
     51          7           0        1.202674    1.610490   -2.853695
     52          1           0        2.018289    2.002376   -2.387722
     53          6           0        1.339492    1.478260   -4.304502
     54          1           0        0.655302    0.695165   -4.635753
     55          6           0        2.806851    1.061438   -4.592462
     56          6           0        0.960235    2.824628   -4.973930
     57          1           0        0.024026    3.140237   -4.499424
     58          1           0        1.716888    3.570822   -4.695634
     59          8           0        2.985333    0.276581   -5.584633
     60          6           0        0.739232    2.821487   -6.506067
     61          1           0        0.404504    1.830702   -6.840664
     62          1           0       -0.081854    3.508476   -6.742003
     63          6           0        1.926628    3.271119   -7.373799
     64          1           0        1.588540    3.413686   -8.408139
     65          1           0        2.304298    4.233721   -7.007222
     66          7           0        3.003467    2.278881   -7.338892
     67          1           0        2.747414    1.358909   -6.939542
     68          7           0        4.799576    3.756817   -7.536299
     69          1           0        5.794605    3.919441   -7.486136
     70          1           0        4.294391    4.325781   -8.199695
     71          7           0        5.098578    1.578020   -6.719782
     72          1           0        6.064606    1.783150   -6.509452
     73          1           0        4.608287    0.855621   -6.150437
     74          6           0        4.303793    2.542279   -7.195715
     75          8           0        3.692876    1.573533   -3.881097
 ---------------------------------------------------------------------

 SCF Done:  E(RB3LYP) =  -1917.45177979     A.U. after    1 cycles

 Alpha  occ. eigenvalues --  -19.26530 -19.22491 -19.21061 -19.18310 -19.16535
 Alpha  occ. eigenvalues --  -19.14840 -19.14274 -14.60659 -14.48232 -14.46803
 Alpha  occ. eigenvalues --  -14.46793 -14.44087 -14.44083 -14.43767 -14.41597
 Alpha  occ. eigenvalues --  -14.40251 -10.43070 -10.41652 -10.41507 -10.40862
 Alpha  occ. eigenvalues --  -10.37950 -10.35313 -10.34780 -10.34361 -10.33437
 Alpha  occ. eigenvalues --  -10.32356 -10.30855 -10.30526 -10.28028 -10.27471
 Alpha  occ. eigenvalues --  -10.26716 -10.26375 -10.26284 -10.25989 -10.25783
 Alpha  occ. eigenvalues --  -10.25516 -10.25460 -10.25259 -10.25209  -1.19135
 Alpha  occ. eigenvalues --   -1.14638  -1.14215  -1.12895  -1.10380  -1.10037
 Alpha  occ. eigenvalues --   -1.08414  -1.07810  -1.05383  -1.01729  -1.00968
 Alpha  occ. eigenvalues --   -1.00075  -0.99018  -0.98098  -0.97869  -0.95340
 Alpha  occ. eigenvalues --   -0.93859  -0.92428  -0.88209  -0.86470  -0.84745
 Alpha  occ. eigenvalues --   -0.83266  -0.81060  -0.80914  -0.80396  -0.75664
 Alpha  occ. eigenvalues --   -0.75227  -0.74523  -0.74183  -0.73621  -0.71931
 Alpha  occ. eigenvalues --   -0.70110  -0.69918  -0.67881  -0.67408  -0.67136
 Alpha  occ. eigenvalues --   -0.66524  -0.66134  -0.65036  -0.64863  -0.64387
 Alpha  occ. eigenvalues --   -0.63790  -0.63295  -0.63204  -0.61958  -0.59607
 Alpha  occ. eigenvalues --   -0.58934  -0.58742  -0.58390  -0.58093  -0.58065
 Alpha  occ. eigenvalues --   -0.57353  -0.56325  -0.55977  -0.55140  -0.54927
 Alpha  occ. eigenvalues --   -0.54170  -0.53770  -0.53368  -0.52749  -0.52530
 Alpha  occ. eigenvalues --   -0.52209  -0.51879  -0.51785  -0.51601  -0.50877
 Alpha  occ. eigenvalues --   -0.50358  -0.50038  -0.49573  -0.49158  -0.48942
 Alpha  occ. eigenvalues --   -0.48555  -0.47808  -0.47342  -0.46886  -0.46570
 Alpha  occ. eigenvalues --   -0.46339  -0.46306  -0.45610  -0.44575  -0.44441
 Alpha  occ. eigenvalues --   -0.43242  -0.42762  -0.42524  -0.41914  -0.41694
 Alpha  occ. eigenvalues --   -0.41310  -0.40931  -0.40843  -0.40578  -0.39699
 Alpha  occ. eigenvalues --   -0.38497  -0.37759  -0.37330  -0.36399  -0.35365
 Alpha  occ. eigenvalues --   -0.34384  -0.34155  -0.32931  -0.32438  -0.32215
 Alpha  occ. eigenvalues --   -0.31632  -0.31195  -0.30158  -0.30130  -0.28676
 Alpha  occ. eigenvalues --   -0.28362
 Alpha virt. eigenvalues --   -0.12517  -0.11395  -0.10135  -0.07252  -0.06983
 Alpha virt. eigenvalues --   -0.06532  -0.06309  -0.06221  -0.04748  -0.04089
 Alpha virt. eigenvalues --   -0.02972  -0.02759  -0.02361  -0.01301  -0.01168

 Mulliken charges:
               1
     1  N   -0.751868
     2  H    0.417640
     3  H    0.434525
     4  H    0.415653
     5  C   -0.120425
     6  H    0.216714
     7  C    0.648534
     8  C   -0.376979
     9  H    0.183891
    10  H    0.208774
    11  O   -0.539350
    12  C    0.580374
    13  N   -0.732244
    14  H    0.392835
    15  H    0.347231
    16  O   -0.471255
    17  N   -0.582221
    18  H    0.380019
    19  C   -0.065459
    20  H    0.209411
    21  C    0.652890
    22  C   -0.376151
    23  H    0.176667
    24  H    0.178665
    25  O   -0.567340
    26  C    0.159741
    27  C   -0.175046
    28  H    0.099945
    29  C   -0.200317
    30  H    0.165891
    31  C   -0.127364
    32  H    0.132320
    33  C   -0.132755
    34  H    0.140497
    35  C   -0.125132
    36  H    0.142010
    37  N   -0.610131
    38  H    0.362566
    39  C   -0.069407
    40  H    0.215531
    41  C    0.607319
    42  C   -0.335392
    43  H    0.151485
    44  H    0.189683
    45  O   -0.555322
    46  C    0.567369
    47  N   -0.721764
    48  H    0.372490
    49  H    0.336167
    50  O   -0.516389
    51  N   -0.607912
    52  H    0.377688
    53  C   -0.050217
    54  H    0.178430
    55  C    0.580168
    56  C   -0.269638
    57  H    0.156670
    58  H    0.151113
    59  O   -0.630584
    60  C   -0.305705
    61  H    0.172097
    62  H    0.160018
    63  C   -0.146652
    64  H    0.168155
    65  H    0.162912
    66  N   -0.603037
    67  H    0.398807
    68  N   -0.755842
    69  H    0.364692
    70  H    0.369706
    71  N   -0.752454
    72  H    0.347521
    73  H    0.408153
    74  C    0.766905
    75  O   -0.575516
 Sum of Mulliken charges =   1.00000

 Dipole moment (field-independent basis, Debye):
    X=             -8.8375    Y=             12.8388    Z=              8.6594  Tot=             17.8304
 Quadrupole moment (field-independent basis, Debye-Ang):
   XX=           -114.7803   YY=           -182.0632   ZZ=             26.6273
   XY=              0.9143   XZ=           -159.1075   YZ=            -30.6068

 Normal termination of Gaussian 16 at Tue May 31 12:09:33 2022.
