 Gaussian 16, Revision C.01,
 Gaussian 16:  ES64L-G16RevC.01  3-Jul-2019

 -------------------------------------------------------------------
 # B3LYP/6-31G* guess=read geom=check nosymm integral(ultrafinegrid)
 -------------------------------------------------------------------

 ------------------------------------------------------
 Candidate Structure: Conf:883 Charge calc in gas phase
 ------------------------------------------------------
 Structure from the checkpoint file:  "conf-883.chk"
 Charge =  1 Multiplicity = 1

                          Input orientation:
 ---------------------------------------------------------------------
 Center     Atomic      Atomic             Coordinates (Angstroms)
 Number     Number       Type             X           Y           Z
 ---------------------------------------------------------------------
      1          7           0       -1.128486   -4.341748    2.682317
      2          1           0       -0.123616   -4.515329    2.682221
      3          1           0       -1.541829   -4.824384    3.477583
      4          1           0       -1.497522   -4.749126    1.823174
      5          6           0       -1.397580   -2.891381    2.707716
      6          1           0       -0.938153   -2.462512    3.606318
      7          6           0       -0.724068   -2.259056    1.482327
      8          6           0       -2.887637   -2.577880    2.733282
      9          1           0       -3.364149   -3.055533    1.878974
     10          1           0       -3.019286   -1.506640    2.599104
     11          8           0       -0.269427   -2.951350    0.585673
     12          6           0       -3.576153   -3.007481    4.025470
     13          1           0       -3.073159   -2.573440    4.894678
     14          1           0       -3.561912   -4.093195    4.155278
     15          6           0       -5.018333   -2.602162    4.081595
     16          8           0       -5.680049   -2.045494    3.271556
     17          8           0       -5.685236   -3.006532    5.336119
     18          7           0       -0.707785   -0.898229    1.481001
     19          1           0       -1.000969   -0.428977    2.318897
     20          6           0       -0.085918   -0.056304    0.466013
     21          1           0       -0.544040    0.932846    0.578613
     22          6           0        1.414779    0.097917    0.714862
     23          6           0       -0.315769   -0.517327   -0.978431
     24          1           0        0.165486   -1.473888   -1.147186
     25          1           0       -1.387639   -0.652584   -1.114653
     26          8           0        2.227365   -0.782166    0.471289
     27          6           0        0.213972    0.506332   -1.924604
     28          6           0       -0.528865    1.662165   -2.223385
     29          1           0       -1.529855    1.752941   -1.810001
     30          6           0        1.512587    0.385201   -2.446837
     31          1           0        2.103932   -0.489330   -2.179906
     32          6           0       -0.021723    2.667702   -3.007419
     33          1           0       -0.591203    3.559027   -3.235239
     34          6           0        2.061365    1.358927   -3.240204
     35          1           0        3.064916    1.274838   -3.636562
     36          8           0        1.809815    3.469604   -4.254317
     37          6           0        1.324816    2.574376   -3.551056
     38          7           0        1.803496    1.294699    1.224546
     39          1           0        1.163027    2.068598    1.250807
     40          6           0        3.204316    1.622730    1.284787
     41          1           0        3.753517    0.771628    1.683092
     42          6           0        3.336423    2.849728    2.244290
     43          6           0        3.772213    2.076094   -0.053032
     44          1           0        3.728499    1.249761   -0.769269
     45          1           0        3.124347    2.862879   -0.442966
     46          8           0        3.921692    2.676222    3.314914
     47          6           0        5.200506    2.585255    0.137815
     48          1           0        5.867412    1.717950    0.176823
     49          1           0        5.293583    3.067191    1.117575
     50          6           0        5.674813    3.535271   -0.959066
     51          1           0        6.708900    3.827035   -0.752330
     52          1           0        5.691351    3.009639   -1.919764
     53          6           0        4.825438    4.792374   -1.124415
     54          1           0        5.295271    5.455699   -1.854241
     55          1           0        3.846103    4.512754   -1.535064
     56          7           0        4.611732    5.513103    0.152186
     57          1           0        4.228135    6.446600   -0.004960
     58          1           0        5.490561    5.604126    0.660001
     59          1           0        3.952584    5.015005    0.756998
     60          8           0        2.830491    3.894344    1.791060
     61          1           0       -5.256095   -2.753067    6.184810
     62          1           0       -6.584562   -2.616873    5.300245
 ---------------------------------------------------------------------

 SCF Done:  E(RB3LYP) =  -1525.91181120     A.U. after    3 cycles

 Alpha  occ. eigenvalues --  -19.47241 -19.30519 -19.25736 -19.16493 -19.12179
 Alpha  occ. eigenvalues --  -19.10547 -19.08824 -14.64967 -14.53995 -14.49259
 Alpha  occ. eigenvalues --  -14.40582 -10.46707 -10.43533 -10.43376 -10.39203
 Alpha  occ. eigenvalues --  -10.37878 -10.33835 -10.32700 -10.31998 -10.27538
 Alpha  occ. eigenvalues --  -10.26543 -10.26320 -10.25095 -10.23596 -10.23592
 Alpha  occ. eigenvalues --  -10.23362 -10.22717 -10.22069 -10.21494 -10.21257
 Alpha  occ. eigenvalues --  -10.20988  -1.34857  -1.21532  -1.21225  -1.17154
 Alpha  occ. eigenvalues --   -1.09645  -1.09147  -1.05462  -1.04246  -1.02093
 Alpha  occ. eigenvalues --   -0.99643  -0.96892  -0.95045  -0.93234  -0.89333
 Alpha  occ. eigenvalues --   -0.87658  -0.85931  -0.84503  -0.83741  -0.81458
 Alpha  occ. eigenvalues --   -0.79644  -0.78869  -0.78108  -0.77967  -0.76887
 Alpha  occ. eigenvalues --   -0.75754  -0.72455  -0.70918  -0.69518  -0.68120
 Alpha  occ. eigenvalues --   -0.67783  -0.67562  -0.67269  -0.66664  -0.65141
 Alpha  occ. eigenvalues --   -0.64362  -0.63977  -0.62873  -0.62659  -0.61053
 Alpha  occ. eigenvalues --   -0.60070  -0.59528  -0.58924  -0.57756  -0.56891
 Alpha  occ. eigenvalues --   -0.55691  -0.55009  -0.54184  -0.53692  -0.53608
 Alpha  occ. eigenvalues --   -0.52519  -0.52220  -0.51646  -0.51183  -0.50136
 Alpha  occ. eigenvalues --   -0.49001  -0.48260  -0.47499  -0.47149  -0.46482
 Alpha  occ. eigenvalues --   -0.46203  -0.45844  -0.45307  -0.45031  -0.43449
 Alpha  occ. eigenvalues --   -0.43258  -0.42724  -0.42244  -0.41421  -0.40691
 Alpha  occ. eigenvalues --   -0.39758  -0.39448  -0.39308  -0.38783  -0.38362
 Alpha  occ. eigenvalues --   -0.38294  -0.37540  -0.37196  -0.34236  -0.30752
 Alpha  occ. eigenvalues --   -0.29932  -0.28749  -0.26331  -0.24967  -0.24779
 Alpha  occ. eigenvalues --   -0.22711  -0.20065
 Alpha virt. eigenvalues --   -0.19001  -0.16309  -0.14401  -0.12598  -0.09226
 Alpha virt. eigenvalues --   -0.08800  -0.08380  -0.07017  -0.05316  -0.04842
 Alpha virt. eigenvalues --   -0.04221  -0.03603  -0.02762  -0.02639  -0.01862

 Mulliken charges:
               1
     1  N   -0.696855
     2  H    0.440240
     3  H    0.396803
     4  H    0.426384
     5  C   -0.164824
     6  H    0.222486
     7  C    0.651854
     8  C   -0.282743
     9  H    0.207909
    10  H    0.225014
    11  O   -0.487255
    12  C   -0.365234
    13  H    0.169710
    14  H    0.166889
    15  C    0.470521
    16  O   -0.387380
    17  O   -0.569986
    18  N   -0.611189
    19  H    0.334427
    20  C   -0.059054
    21  H    0.156700
    22  C    0.636754
    23  C   -0.359850
    24  H    0.206005
    25  H    0.133244
    26  O   -0.530487
    27  C    0.125924
    28  C   -0.177120
    29  H    0.101684
    30  C   -0.165289
    31  H    0.146679
    32  C   -0.191275
    33  H    0.128906
    34  C   -0.198332
    35  H    0.123991
    36  O   -0.557663
    37  C    0.411409
    38  N   -0.613224
    39  H    0.331679
    40  C    0.011763
    41  H    0.156252
    42  C    0.503981
    43  C   -0.276504
    44  H    0.158993
    45  H    0.134073
    46  O   -0.560623
    47  C   -0.298431
    48  H    0.161291
    49  H    0.159898
    50  C   -0.292764
    51  H    0.147920
    52  H    0.187456
    53  C   -0.213715
    54  H    0.198348
    55  H    0.239588
    56  N   -0.743045
    57  H    0.405601
    58  H    0.402758
    59  H    0.445922
    60  O   -0.623865
    61  H    0.420687
    62  H    0.476964
 Sum of Mulliken charges =   1.00000

 Dipole moment (field-independent basis, Debye):
    X=            -14.5421    Y=            -14.0213    Z=             23.6056  Tot=             31.0692
 Quadrupole moment (field-independent basis, Debye-Ang):
   XX=            -64.4956   YY=            -45.1140   ZZ=           -112.8876
   XY=            102.2034   XZ=           -113.7832   YZ=            -85.0265

 Normal termination of Gaussian 16 at Tue May 24 03:32:57 2022.
