 Gaussian 16, Revision C.01,
 Gaussian 16:  ES64L-G16RevC.01  3-Jul-2019

 -------------------------------------------------------------------
 # B3LYP/6-31G* guess=read geom=check nosymm integral(ultrafinegrid)
 -------------------------------------------------------------------

 -----------------------------------------------------
 Candidate Structure: Conf:81 Charge calc in gas phase
 -----------------------------------------------------
 Structure from the checkpoint file:  "conf-81.chk"
 Charge =  1 Multiplicity = 1

                          Input orientation:
 ---------------------------------------------------------------------
 Center     Atomic      Atomic             Coordinates (Angstroms)
 Number     Number       Type             X           Y           Z
 ---------------------------------------------------------------------
      1          7           0        0.134659   -3.914206    2.492855
      2          1           0        1.087815   -3.539831    2.639949
      3          1           0       -0.073904   -4.585966    3.247089
      4          1           0        0.161570   -4.388262    1.562659
      5          6           0       -0.875663   -2.785106    2.359322
      6          1           0       -0.777258   -2.126427    3.229372
      7          6           0       -0.358726   -2.100681    1.064611
      8          6           0       -2.325609   -3.339385    2.287362
      9          1           0       -2.529005   -3.949399    3.190253
     10          1           0       -2.435340   -4.017386    1.429854
     11          8           0        0.251388   -2.891984    0.333434
     12          6           0       -3.378711   -2.191105    2.138689
     13          1           0       -4.374608   -2.649414    2.057563
     14          1           0       -3.176077   -1.635363    1.219399
     15          6           0       -3.379191   -1.157725    3.220228
     16          8           0       -2.882313   -0.053426    3.349302
     17          8           0       -4.148727   -1.660896    4.554265
     18          7           0       -0.637107   -0.808868    0.938291
     19          1           0       -1.102573   -0.350788    1.718784
     20          6           0       -0.217718    0.099050   -0.178628
     21          1           0       -0.817011    1.003625   -0.039716
     22          6           0        1.282016    0.482471    0.042150
     23          6           0       -0.460529   -0.429322   -1.621521
     24          1           0        0.111935   -1.349540   -1.772006
     25          1           0       -1.533924   -0.684728   -1.713393
     26          8           0        2.134370   -0.218203   -0.514470
     27          6           0       -0.028056    0.613994   -2.642957
     28          6           0       -0.750947    1.811695   -2.860873
     29          1           0       -1.693462    1.977588   -2.330601
     30          6           0        1.188234    0.447787   -3.352369
     31          1           0        1.779081   -0.445537   -3.171565
     32          6           0       -0.275260    2.797423   -3.717136
     33          1           0       -0.828504    3.726511   -3.858682
     34          6           0        1.660870    1.421774   -4.217402
     35          1           0        2.607859    1.291089   -4.737908
     36          8           0        1.474741    3.612864   -5.173391
     37          6           0        0.968407    2.651293   -4.417017
     38          7           0        1.491014    1.544201    0.836441
     39          1           0        0.848932    1.885424    1.580950
     40          6           0        2.853880    1.986795    1.159946
     41          1           0        3.548499    1.150986    1.070795
     42          6           0        2.780662    2.453127    2.681309
     43          6           0        3.342857    3.132019    0.241016
     44          1           0        2.626358    3.968509    0.299204
     45          1           0        4.290702    3.494846    0.658796
     46          8           0        3.899946    2.689352    3.202480
     47          6           0        3.510602    2.644107   -1.216712
     48          1           0        2.609959    2.096874   -1.507905
     49          1           0        4.336798    1.923993   -1.254252
     50          6           0        3.773117    3.697202   -2.314810
     51          1           0        4.718529    4.230255   -2.123460
     52          1           0        3.887583    3.163541   -3.270681
     53          6           0        2.648047    4.729843   -2.455948
     54          1           0        1.667025    4.297855   -2.250942
     55          1           0        2.777423    5.574695   -1.772679
     56          7           0        2.603765    5.248317   -3.879860
     57          1           0        2.035145    6.095555   -3.971579
     58          1           0        2.147251    4.445953   -4.540959
     59          1           0        3.545524    5.472461   -4.224013
     60          8           0        1.612001    2.542513    3.171168
     61          1           0       -3.918440   -2.579738    4.973182
     62          1           0       -4.035752   -0.960033    5.253796
 ---------------------------------------------------------------------

 SCF Done:  E(RB3LYP) =  -1525.94476850     A.U. after    3 cycles

 Alpha  occ. eigenvalues --  -19.47106 -19.35469 -19.27307 -19.17331 -19.14629
 Alpha  occ. eigenvalues --  -19.12535 -19.11768 -14.64171 -14.51792 -14.47063
 Alpha  occ. eigenvalues --  -14.40882 -10.50595 -10.45117 -10.44547 -10.40834
 Alpha  occ. eigenvalues --  -10.40748 -10.35018 -10.33462 -10.30443 -10.29821
 Alpha  occ. eigenvalues --  -10.28732 -10.27388 -10.25779 -10.25426 -10.25146
 Alpha  occ. eigenvalues --  -10.24728 -10.23815 -10.23197 -10.22993 -10.22856
 Alpha  occ. eigenvalues --  -10.22616  -1.31675  -1.23490  -1.21072  -1.16249
 Alpha  occ. eigenvalues --   -1.09262  -1.07310  -1.04708  -1.04329  -1.01061
 Alpha  occ. eigenvalues --   -1.00317  -0.97564  -0.95477  -0.92817  -0.89999
 Alpha  occ. eigenvalues --   -0.86859  -0.85354  -0.84046  -0.81525  -0.80752
 Alpha  occ. eigenvalues --   -0.79624  -0.79094  -0.78515  -0.77372  -0.75592
 Alpha  occ. eigenvalues --   -0.74507  -0.74113  -0.70709  -0.70036  -0.69092
 Alpha  occ. eigenvalues --   -0.68047  -0.66453  -0.65400  -0.64985  -0.64741
 Alpha  occ. eigenvalues --   -0.63788  -0.63178  -0.62680  -0.62590  -0.60940
 Alpha  occ. eigenvalues --   -0.60688  -0.59805  -0.59306  -0.58029  -0.57425
 Alpha  occ. eigenvalues --   -0.57310  -0.55455  -0.55126  -0.54581  -0.54039
 Alpha  occ. eigenvalues --   -0.53516  -0.53255  -0.51999  -0.51188  -0.50625
 Alpha  occ. eigenvalues --   -0.49827  -0.49603  -0.48745  -0.47958  -0.47456
 Alpha  occ. eigenvalues --   -0.46467  -0.46236  -0.45465  -0.44579  -0.44199
 Alpha  occ. eigenvalues --   -0.43917  -0.42852  -0.42537  -0.42233  -0.41604
 Alpha  occ. eigenvalues --   -0.41225  -0.40840  -0.40010  -0.39907  -0.38943
 Alpha  occ. eigenvalues --   -0.37933  -0.37849  -0.37352  -0.35366  -0.31282
 Alpha  occ. eigenvalues --   -0.31051  -0.29785  -0.28988  -0.26911  -0.26142
 Alpha  occ. eigenvalues --   -0.24617  -0.24468
 Alpha virt. eigenvalues --   -0.23141  -0.20090  -0.14832  -0.13523  -0.11691
 Alpha virt. eigenvalues --   -0.10488  -0.08844  -0.08076  -0.07050  -0.05359
 Alpha virt. eigenvalues --   -0.05001  -0.04685  -0.03830  -0.03121  -0.02718

 Mulliken charges:
               1
     1  N   -0.726738
     2  H    0.443322
     3  H    0.405536
     4  H    0.437751
     5  C   -0.142706
     6  H    0.215171
     7  C    0.686390
     8  C   -0.294420
     9  H    0.151918
    10  H    0.218783
    11  O   -0.528539
    12  C   -0.368140
    13  H    0.230201
    14  H    0.251160
    15  C    0.489548
    16  O   -0.365325
    17  O   -0.632790
    18  N   -0.636411
    19  H    0.367465
    20  C   -0.068577
    21  H    0.169988
    22  C    0.632733
    23  C   -0.350949
    24  H    0.196137
    25  H    0.126851
    26  O   -0.527267
    27  C    0.133241
    28  C   -0.182074
    29  H    0.108879
    30  C   -0.161356
    31  H    0.149391
    32  C   -0.187808
    33  H    0.120510
    34  C   -0.181897
    35  H    0.132499
    36  O   -0.721953
    37  C    0.388809
    38  N   -0.601980
    39  H    0.339057
    40  C   -0.070360
    41  H    0.166126
    42  C    0.587718
    43  C   -0.261598
    44  H    0.128754
    45  H    0.169779
    46  O   -0.511905
    47  C   -0.277199
    48  H    0.174925
    49  H    0.150990
    50  C   -0.292209
    51  H    0.148922
    52  H    0.161574
    53  C   -0.167544
    54  H    0.196896
    55  H    0.180119
    56  N   -0.772019
    57  H    0.371187
    58  H    0.476292
    59  H    0.367577
    60  O   -0.603291
    61  H    0.465812
    62  H    0.493043
 Sum of Mulliken charges =   1.00000

 Dipole moment (field-independent basis, Debye):
    X=            -15.4679    Y=            -16.0631    Z=             13.9358  Tot=             26.2961
 Quadrupole moment (field-independent basis, Debye-Ang):
   XX=           -137.0003   YY=            -72.5200   ZZ=           -126.6084
   XY=             39.2042   XZ=            -90.1832   YZ=           -112.7347

 Normal termination of Gaussian 16 at Tue May 24 03:25:35 2022.
