 Gaussian 16, Revision C.01,
 Gaussian 16:  ES64L-G16RevC.01  3-Jul-2019

 -------------------------------------------------------------------
 # B3LYP/6-31G* guess=read geom=check nosymm integral(ultrafinegrid)
 -------------------------------------------------------------------

 ------------------------------------------------------
 Candidate Structure: Conf:879 Charge calc in gas phase
 ------------------------------------------------------
 Structure from the checkpoint file:  "conf-879.chk"
 Charge =  1 Multiplicity = 1

                          Input orientation:
 ---------------------------------------------------------------------
 Center     Atomic      Atomic             Coordinates (Angstroms)
 Number     Number       Type             X           Y           Z
 ---------------------------------------------------------------------
      1          7           0        0.541293   -0.845886    3.463976
      2          1           0        1.347866    0.596994    3.062789
      3          1           0        0.447076   -1.119976    4.441116
      4          1           0        1.126346   -1.546834    3.003888
      5          6           0       -0.784697   -0.857549    2.801899
      6          1           0       -1.359492   -0.013271    3.203882
      7          6           0       -0.499370   -0.636493    1.301538
      8          6           0       -1.550702   -2.173246    3.048811
      9          1           0       -1.513765   -2.398371    4.121047
     10          1           0       -1.021145   -2.989949    2.544794
     11          8           0        0.429414   -1.228456    0.759585
     12          6           0       -3.016098   -2.146800    2.606820
     13          1           0       -3.127520   -1.974140    1.530181
     14          1           0       -3.565529   -1.332057    3.100110
     15          6           0       -3.725361   -3.440973    2.953966
     16          8           0       -3.259029   -4.345255    3.608484
     17          8           0       -4.981783   -3.472464    2.445585
     18          7           0       -1.274690    0.272939    0.642798
     19          1           0       -2.094523    0.639146    1.107182
     20          6           0       -1.084783    0.602794   -0.780522
     21          1           0       -1.680557    1.510000   -0.943006
     22          6           0        0.394515    0.977941   -1.059428
     23          6           0       -1.572166   -0.489347   -1.754168
     24          1           0       -1.308191   -0.154629   -2.762906
     25          1           0       -0.991190   -1.397071   -1.569251
     26          8           0        0.973909    0.635077   -2.077760
     27          6           0       -3.055432   -0.765896   -1.643954
     28          6           0       -3.529690   -1.985200   -1.148337
     29          1           0       -2.819278   -2.759586   -0.867014
     30          6           0       -4.006415    0.191657   -2.033581
     31          1           0       -3.674780    1.141667   -2.449422
     32          6           0       -4.896776   -2.242465   -1.024296
     33          1           0       -5.237250   -3.194232   -0.622469
     34          6           0       -5.371697   -0.046294   -1.919277
     35          1           0       -6.102331    0.694545   -2.228303
     36          8           0       -7.173097   -1.446055   -1.308820
     37          6           0       -5.823730   -1.268733   -1.406021
     38          7           0        0.979899    1.771666   -0.096457
     39          1           0        0.442995    1.863572    0.759681
     40          6           0        2.404234    1.591084    0.187480
     41          1           0        2.763268    0.776242   -0.449263
     42          6           0        2.597100    1.102030    1.635030
     43          6           0        3.267225    2.829837   -0.111619
     44          1           0        2.954543    3.656154    0.542761
     45          1           0        4.300927    2.573027    0.157069
     46          8           0        3.605143    0.536334    1.993342
     47          6           0        3.178801    3.234734   -1.591195
     48          1           0        2.200969    3.686328   -1.796208
     49          1           0        3.224107    2.337719   -2.217468
     50          6           0        4.301629    4.183073   -2.053554
     51          1           0        5.274531    3.695217   -1.897870
     52          1           0        4.196248    4.369215   -3.131462
     53          6           0        4.278625    5.510926   -1.307781
     54          1           0        3.352498    6.068010   -1.470490
     55          1           0        4.443954    5.398076   -0.234592
     56          7           0        5.407879    6.420978   -1.806923
     57          1           0        5.420856    7.328807   -1.326140
     58          1           0        5.315407    6.600433   -2.814481
     59          1           0        6.323461    5.977141   -1.662656
     60          8           0        1.534356    1.365252    2.412131
     61          1           0       -7.354817   -2.330839   -0.954877
     62          1           0       -5.370396   -4.319438    2.737419
 ---------------------------------------------------------------------

 SCF Done:  E(RB3LYP) =  -1526.19186687     A.U. after    1 cycles

 Alpha  occ. eigenvalues --  -19.26014 -19.23870 -19.23340 -19.20408 -19.20241
 Alpha  occ. eigenvalues --  -19.20085 -19.19371 -14.65457 -14.45278 -14.42563
 Alpha  occ. eigenvalues --  -14.42503 -10.42201 -10.38673 -10.38351 -10.37380
 Alpha  occ. eigenvalues --  -10.36338 -10.34610 -10.31760 -10.31712 -10.31254
 Alpha  occ. eigenvalues --  -10.30682 -10.30328 -10.29253 -10.27473 -10.26956
 Alpha  occ. eigenvalues --  -10.25213 -10.25149 -10.25085 -10.25060 -10.24778
 Alpha  occ. eigenvalues --  -10.24409  -1.19304  -1.16869  -1.15488  -1.12405
 Alpha  occ. eigenvalues --   -1.11434  -1.10950  -1.07931  -1.07257  -1.01376
 Alpha  occ. eigenvalues --   -0.99500  -0.98608  -0.95639  -0.91283  -0.88513
 Alpha  occ. eigenvalues --   -0.87276  -0.85428  -0.83280  -0.80692  -0.80472
 Alpha  occ. eigenvalues --   -0.78831  -0.78160  -0.77896  -0.75529  -0.73198
 Alpha  occ. eigenvalues --   -0.71275  -0.69874  -0.68043  -0.67853  -0.67591
 Alpha  occ. eigenvalues --   -0.66717  -0.65446  -0.65100  -0.63689  -0.62529
 Alpha  occ. eigenvalues --   -0.62222  -0.60193  -0.60135  -0.58608  -0.57533
 Alpha  occ. eigenvalues --   -0.56900  -0.55745  -0.55615  -0.55014  -0.54558
 Alpha  occ. eigenvalues --   -0.54385  -0.53613  -0.53564  -0.52800  -0.52247
 Alpha  occ. eigenvalues --   -0.51934  -0.51515  -0.51005  -0.50143  -0.49820
 Alpha  occ. eigenvalues --   -0.49325  -0.49103  -0.48214  -0.48052  -0.47577
 Alpha  occ. eigenvalues --   -0.47070  -0.46684  -0.46361  -0.46087  -0.45476
 Alpha  occ. eigenvalues --   -0.45244  -0.44999  -0.44542  -0.43731  -0.43346
 Alpha  occ. eigenvalues --   -0.42550  -0.42360  -0.42026  -0.40997  -0.39439
 Alpha  occ. eigenvalues --   -0.38571  -0.38214  -0.37653  -0.35720  -0.35534
 Alpha  occ. eigenvalues --   -0.34937  -0.34041  -0.33643  -0.32426  -0.31848
 Alpha  occ. eigenvalues --   -0.31102  -0.27476
 Alpha virt. eigenvalues --   -0.15814  -0.09177  -0.09082  -0.07354  -0.06955
 Alpha virt. eigenvalues --   -0.06620  -0.06078  -0.05426  -0.05271  -0.04572
 Alpha virt. eigenvalues --   -0.03026  -0.01820  -0.01160  -0.00094   0.00326

 Mulliken charges:
               1
     1  N   -0.777267
     2  H    0.460518
     3  H    0.334602
     4  H    0.356504
     5  C   -0.064669
     6  H    0.146352
     7  C    0.636613
     8  C   -0.268728
     9  H    0.166768
    10  H    0.180110
    11  O   -0.524708
    12  C   -0.388843
    13  H    0.196656
    14  H    0.176910
    15  C    0.587435
    16  O   -0.448723
    17  O   -0.570738
    18  N   -0.625694
    19  H    0.342053
    20  C   -0.063449
    21  H    0.168412
    22  C    0.622394
    23  C   -0.353836
    24  H    0.179311
    25  H    0.185640
    26  O   -0.509125
    27  C    0.167117
    28  C   -0.215523
    29  H    0.138303
    30  C   -0.199556
    31  H    0.123479
    32  C   -0.183571
    33  H    0.131948
    34  C   -0.155251
    35  H    0.149040
    36  O   -0.635533
    37  C    0.350208
    38  N   -0.609265
    39  H    0.352040
    40  C   -0.061110
    41  H    0.209748
    42  C    0.593100
    43  C   -0.280747
    44  H    0.136110
    45  H    0.160632
    46  O   -0.460689
    47  C   -0.271362
    48  H    0.168214
    49  H    0.203886
    50  C   -0.299716
    51  H    0.170314
    52  H    0.169222
    53  C   -0.204764
    54  H    0.227676
    55  H    0.234075
    56  N   -0.731466
    57  H    0.431464
    58  H    0.427339
    59  H    0.428596
    60  O   -0.638035
    61  H    0.412803
    62  H    0.416777
 Sum of Mulliken charges =   1.00000

 Dipole moment (field-independent basis, Debye):
    X=             14.7196    Y=             25.9675    Z=             -3.8310  Tot=             30.0941
 Quadrupole moment (field-independent basis, Debye-Ang):
   XX=            -45.0147   YY=              2.9555   ZZ=           -159.9305
   XY=            159.6695   XZ=            -53.6139   YZ=            -52.1569

 Normal termination of Gaussian 16 at Tue May 24 03:32:30 2022.
