 Gaussian 16, Revision C.01,
 Gaussian 16:  ES64L-G16RevC.01  3-Jul-2019

 -------------------------------------------------------------------
 # B3LYP/6-31G* guess=read geom=check nosymm integral(ultrafinegrid)
 -------------------------------------------------------------------

 ------------------------------------------------------
 Candidate Structure: Conf:549 Charge calc in gas phase
 ------------------------------------------------------
 Structure from the checkpoint file:  "conf-549.chk"
 Charge =  1 Multiplicity = 1

                          Input orientation:
 ---------------------------------------------------------------------
 Center     Atomic      Atomic             Coordinates (Angstroms)
 Number     Number       Type             X           Y           Z
 ---------------------------------------------------------------------
      1          7           0       -1.576800   -3.213971    3.639098
      2          1           0       -0.762129   -2.821581    4.234820
      3          1           0       -2.238239   -3.739806    4.252383
      4          1           0       -1.166530   -3.849493    2.904473
      5          6           0       -2.210714   -2.057041    2.883461
      6          1           0       -2.243182   -1.206280    3.574325
      7          6           0       -1.210101   -1.821673    1.736601
      8          6           0       -3.650126   -2.366225    2.371047
      9          1           0       -3.970366   -1.481803    1.807179
     10          1           0       -4.323588   -2.458042    3.240116
     11          8           0       -0.689410   -2.888054    1.319386
     12          6           0       -3.820713   -3.665341    1.470450
     13          1           0       -3.509731   -4.564585    2.015005
     14          1           0       -3.179657   -3.581570    0.572695
     15          6           0       -5.240010   -3.990555    1.108633
     16          8           0       -6.130895   -4.706586    1.560914
     17          8           0       -5.932247   -2.608059    0.332688
     18          7           0       -1.098964   -0.576668    1.289848
     19          1           0       -1.560502    0.141001    1.847357
     20          6           0       -0.242863   -0.053101    0.184607
     21          1           0       -0.447969    1.020082    0.169842
     22          6           0        1.295611   -0.150370    0.521035
     23          6           0       -0.642997   -0.662004   -1.220909
     24          1           0       -0.339552   -1.719305   -1.270392
     25          1           0       -1.749798   -0.620673   -1.282612
     26          8           0        1.835057    0.898009    0.922737
     27          6           0       -0.039245    0.103001   -2.390160
     28          6           0       -0.664940    1.309488   -2.844088
     29          1           0       -1.589515    1.645770   -2.365236
     30          6           0        1.173140   -0.339973   -2.990529
     31          1           0        1.666488   -1.244849   -2.628126
     32          6           0       -0.118349    2.047702   -3.872784
     33          1           0       -0.579716    2.964895   -4.233409
     34          6           0        1.727948    0.395539   -4.022388
     35          1           0        2.649389    0.071946   -4.502286
     36          8           0        1.629742    2.304313   -5.479354
     37          6           0        1.124261    1.632782   -4.531054
     38          7           0        1.860809   -1.339810    0.311230
     39          1           0        1.252365   -2.134276    0.145278
     40          6           0        3.286424   -1.734262    0.420154
     41          1           0        3.893472   -0.829344    0.450303
     42          6           0        3.617421   -2.590789   -0.869549
     43          6           0        3.618572   -2.582941    1.676967
     44          1           0        2.942121   -3.455519    1.685449
     45          1           0        4.644827   -2.946759    1.553035
     46          8           0        4.833214   -2.873391   -0.993596
     47          6           0        3.491311   -1.820656    3.011869
     48          1           0        2.469583   -1.381159    3.032486
     49          1           0        4.192987   -0.972644    3.003818
     50          6           0        3.703248   -2.661276    4.297128
     51          1           0        2.929277   -3.452390    4.344623
     52          1           0        4.673757   -3.171514    4.299879
     53          6           0        3.631646   -1.815734    5.576940
     54          1           0        3.794808   -2.391489    6.493148
     55          1           0        4.357212   -0.998330    5.568396
     56          7           0        2.243605   -1.156169    5.662068
     57          1           0        2.157482   -0.524655    6.479370
     58          1           0        1.474594   -1.873924    5.702412
     59          1           0        2.070382   -0.589406    4.786868
     60          8           0        2.593299   -2.908853   -1.548895
     61          1           0       -5.524123   -2.400978   -0.611725
     62          1           0       -6.901785   -2.813443    0.232620
 ---------------------------------------------------------------------

 SCF Done:  E(RB3LYP) =  -1525.84258271     A.U. after    3 cycles

 Alpha  occ. eigenvalues --  -19.40615 -19.30665 -19.27598 -19.17703 -19.15862
 Alpha  occ. eigenvalues --  -19.09087 -19.08552 -14.64101 -14.62781 -14.52457
 Alpha  occ. eigenvalues --  -14.42046 -10.45026 -10.44915 -10.43545 -10.41260
 Alpha  occ. eigenvalues --  -10.38306 -10.37914 -10.35839 -10.34388 -10.33675
 Alpha  occ. eigenvalues --  -10.30438 -10.29280 -10.28794 -10.27510 -10.27298
 Alpha  occ. eigenvalues --  -10.26276 -10.26154 -10.25582 -10.24394 -10.23665
 Alpha  occ. eigenvalues --  -10.23511  -1.24442  -1.19745  -1.17862  -1.17031
 Alpha  occ. eigenvalues --   -1.14918  -1.09190  -1.07553  -1.03337  -1.01700
 Alpha  occ. eigenvalues --   -0.97824  -0.96993  -0.94027  -0.93191  -0.91357
 Alpha  occ. eigenvalues --   -0.90080  -0.86894  -0.85996  -0.81624  -0.80471
 Alpha  occ. eigenvalues --   -0.79652  -0.78960  -0.76234  -0.75665  -0.75367
 Alpha  occ. eigenvalues --   -0.75073  -0.74254  -0.74152  -0.73173  -0.72373
 Alpha  occ. eigenvalues --   -0.70644  -0.68594  -0.67549  -0.65854  -0.65441
 Alpha  occ. eigenvalues --   -0.65397  -0.64268  -0.63457  -0.62399  -0.61700
 Alpha  occ. eigenvalues --   -0.60426  -0.60252  -0.60000  -0.58333  -0.57484
 Alpha  occ. eigenvalues --   -0.56695  -0.56630  -0.56034  -0.55132  -0.54593
 Alpha  occ. eigenvalues --   -0.54136  -0.53157  -0.52941  -0.52630  -0.51811
 Alpha  occ. eigenvalues --   -0.51609  -0.50302  -0.50015  -0.49884  -0.49183
 Alpha  occ. eigenvalues --   -0.47773  -0.47044  -0.46743  -0.46255  -0.45390
 Alpha  occ. eigenvalues --   -0.45223  -0.45069  -0.44569  -0.43294  -0.42773
 Alpha  occ. eigenvalues --   -0.42311  -0.41654  -0.41298  -0.41028  -0.40351
 Alpha  occ. eigenvalues --   -0.39460  -0.38500  -0.36242  -0.35925  -0.31865
 Alpha  occ. eigenvalues --   -0.31298  -0.30486  -0.27434  -0.24245  -0.23462
 Alpha  occ. eigenvalues --   -0.22386  -0.21962
 Alpha virt. eigenvalues --   -0.20656  -0.19539  -0.15377  -0.14809  -0.13466
 Alpha virt. eigenvalues --   -0.11037  -0.09283  -0.09115  -0.08507  -0.06711
 Alpha virt. eigenvalues --   -0.05857  -0.05702  -0.05562  -0.04892  -0.04600

 Mulliken charges:
               1
     1  N   -0.681825
     2  H    0.254161
     3  H    0.385289
     4  H    0.427546
     5  C   -0.123913
     6  H    0.177419
     7  C    0.654280
     8  C   -0.293655
     9  H    0.193515
    10  H    0.189682
    11  O   -0.556103
    12  C   -0.350129
    13  H    0.192618
    14  H    0.222518
    15  C    0.429437
    16  O   -0.378359
    17  O   -0.659647
    18  N   -0.610617
    19  H    0.349974
    20  C   -0.074334
    21  H    0.189904
    22  C    0.590613
    23  C   -0.367681
    24  H    0.200725
    25  H    0.117217
    26  O   -0.546496
    27  C    0.128658
    28  C   -0.162246
    29  H    0.108177
    30  C   -0.180299
    31  H    0.237964
    32  C   -0.167950
    33  H    0.151284
    34  C   -0.186544
    35  H    0.173881
    36  O   -0.500085
    37  C    0.422869
    38  N   -0.558833
    39  H    0.351133
    40  C   -0.085723
    41  H    0.172256
    42  C    0.600080
    43  C   -0.266495
    44  H    0.125019
    45  H    0.197871
    46  O   -0.567728
    47  C   -0.284261
    48  H    0.088075
    49  H    0.172937
    50  C   -0.281631
    51  H    0.140500
    52  H    0.213644
    53  C   -0.201163
    54  H    0.221361
    55  H    0.233151
    56  N   -0.707383
    57  H    0.413402
    58  H    0.318757
    59  H    0.412875
    60  O   -0.600788
    61  H    0.463843
    62  H    0.471251
 Sum of Mulliken charges =   1.00000

 Dipole moment (field-independent basis, Debye):
    X=            -19.6574    Y=            -10.4649    Z=             36.7256  Tot=             42.9499
 Quadrupole moment (field-independent basis, Debye-Ang):
   XX=           -122.9333   YY=           -177.0883   ZZ=            -55.0150
   XY=             39.6298   XZ=             65.7814   YZ=            -52.1261

 Normal termination of Gaussian 16 at Tue May 24 03:32:57 2022.
