 Gaussian 16, Revision C.01,
 Gaussian 16:  ES64L-G16RevC.01  3-Jul-2019

 -------------------------------------------------------------------
 # B3LYP/6-31G* guess=read geom=check nosymm integral(ultrafinegrid)
 -------------------------------------------------------------------

 -----------------------------------------------------
 Candidate Structure: Conf:34 Charge calc in gas phase
 -----------------------------------------------------
 Structure from the checkpoint file:  "conf-34.chk"
 Charge =  1 Multiplicity = 1

                          Input orientation:
 ---------------------------------------------------------------------
 Center     Atomic      Atomic             Coordinates (Angstroms)
 Number     Number       Type             X           Y           Z
 ---------------------------------------------------------------------
      1          7           0       -2.879034   -1.030736    2.981379
      2          1           0       -3.221832   -1.471771    2.117557
      3          1           0       -3.196170   -1.578390    3.780566
      4          1           0       -3.292117   -0.096738    3.037393
      5          6           0       -1.404639   -0.907385    2.947510
      6          1           0       -0.990788   -1.859484    2.591951
      7          6           0       -1.055149    0.151274    1.902175
      8          6           0       -0.795730   -0.600179    4.310611
      9          1           0        0.255968   -0.338605    4.176213
     10          1           0       -0.807654   -1.521367    4.895187
     11          8           0       -1.426003    1.314066    2.008562
     12          6           0       -1.504937    0.495665    5.101418
     13          1           0       -2.543725    0.218466    5.295852
     14          1           0       -1.530289    1.436219    4.552797
     15          6           0       -0.861084    0.758733    6.429353
     16          8           0        0.078603    0.241337    6.929888
     17          8           0       -1.516673    1.848379    7.182898
     18          7           0       -0.342563   -0.302051    0.842216
     19          1           0       -0.154807   -1.285696    0.779782
     20          6           0       -0.373094    0.448763   -0.401932
     21          1           0       -0.913059    1.363032   -0.152913
     22          6           0        1.058708    0.812570   -0.791358
     23          6           0       -1.108354   -0.312253   -1.514532
     24          1           0       -1.215713    0.353210   -2.372350
     25          1           0       -0.479327   -1.141940   -1.836641
     26          8           0        1.594719    0.428650   -1.821938
     27          6           0       -2.436801   -0.813198   -1.043997
     28          6           0       -2.545934   -2.088538   -0.477354
     29          1           0       -1.662432   -2.721735   -0.429582
     30          6           0       -3.578988   -0.001345   -1.080881
     31          1           0       -3.509502    0.990014   -1.520001
     32          6           0       -3.728821   -2.560898    0.036052
     33          1           0       -3.804449   -3.532511    0.512178
     34          6           0       -4.786481   -0.421307   -0.568645
     35          1           0       -5.663993    0.211093   -0.594720
     36          8           0       -5.992151   -2.125503    0.518783
     37          6           0       -4.925066   -1.731400    0.038237
     38          7           0        1.693051    1.598548    0.123097
     39          1           0        1.368533    1.642627    1.083508
     40          6           0        3.112940    1.772410    0.075936
     41          1           0        3.570625    0.971580   -0.522498
     42          6           0        3.610507    1.681279    1.555409
     43          6           0        3.563717    3.120982   -0.484058
     44          1           0        3.094512    3.933714    0.079521
     45          1           0        4.642885    3.187618   -0.315162
     46          8           0        4.830270    1.688410    1.728762
     47          6           0        3.261620    3.274750   -1.967182
     48          1           0        2.186480    3.276611   -2.132296
     49          1           0        3.654949    2.403797   -2.502170
     50          6           0        3.862060    4.542295   -2.546492
     51          1           0        3.457495    5.410787   -2.019866
     52          1           0        4.943849    4.545074   -2.386725
     53          6           0        3.580569    4.692019   -4.024862
     54          1           0        3.995699    3.833085   -4.557321
     55          1           0        2.499865    4.678085   -4.184712
     56          7           0        4.147605    5.943807   -4.585865
     57          1           0        3.953627    6.045376   -5.582617
     58          1           0        5.159557    5.972067   -4.465415
     59          1           0        3.762992    6.761017   -4.113131
     60          8           0        2.698495    1.606202    2.416231
     61          1           0       -2.492740    1.800631    7.305893
     62          1           0       -1.080379    1.875115    8.061396
 ---------------------------------------------------------------------

 SCF Done:  E(RB3LYP) =  -1525.91517349     A.U. after    3 cycles

 Alpha  occ. eigenvalues --  -19.48377 -19.32974 -19.23301 -19.15438 -19.10645
 Alpha  occ. eigenvalues --  -19.07483 -19.06793 -14.63705 -14.59955 -14.46260
 Alpha  occ. eigenvalues --  -14.37120 -10.49403 -10.40457 -10.39776 -10.38951
 Alpha  occ. eigenvalues --  -10.37531 -10.34914 -10.32112 -10.30802 -10.29148
 Alpha  occ. eigenvalues --  -10.26186 -10.25837 -10.25330 -10.24054 -10.23508
 Alpha  occ. eigenvalues --  -10.22726 -10.22658 -10.22486 -10.22461 -10.21675
 Alpha  occ. eigenvalues --  -10.20854  -1.36038  -1.23494  -1.18558  -1.16877
 Alpha  occ. eigenvalues --   -1.14144  -1.07533  -1.02964  -1.01446  -1.01430
 Alpha  occ. eigenvalues --   -0.97370  -0.94856  -0.93110  -0.91984  -0.91232
 Alpha  occ. eigenvalues --   -0.88761  -0.85687  -0.84886  -0.84378  -0.82635
 Alpha  occ. eigenvalues --   -0.78894  -0.78519  -0.77906  -0.76756  -0.76584
 Alpha  occ. eigenvalues --   -0.75139  -0.74034  -0.72805  -0.70633  -0.69947
 Alpha  occ. eigenvalues --   -0.68582  -0.68234  -0.66933  -0.66897  -0.65702
 Alpha  occ. eigenvalues --   -0.64196  -0.63566  -0.62833  -0.61221  -0.60759
 Alpha  occ. eigenvalues --   -0.60658  -0.60222  -0.59846  -0.57637  -0.56444
 Alpha  occ. eigenvalues --   -0.54947  -0.53714  -0.53436  -0.53009  -0.52795
 Alpha  occ. eigenvalues --   -0.52209  -0.51908  -0.51090  -0.50307  -0.50211
 Alpha  occ. eigenvalues --   -0.49384  -0.48712  -0.48397  -0.47900  -0.47459
 Alpha  occ. eigenvalues --   -0.46422  -0.45900  -0.45034  -0.44613  -0.44105
 Alpha  occ. eigenvalues --   -0.42459  -0.42084  -0.41837  -0.41330  -0.40204
 Alpha  occ. eigenvalues --   -0.39537  -0.38664  -0.38458  -0.38170  -0.37408
 Alpha  occ. eigenvalues --   -0.37170  -0.36087  -0.35193  -0.34439  -0.29931
 Alpha  occ. eigenvalues --   -0.29141  -0.28730  -0.24131  -0.22974  -0.22609
 Alpha  occ. eigenvalues --   -0.20895  -0.20777
 Alpha virt. eigenvalues --   -0.19208  -0.16492  -0.13707  -0.11723  -0.09628
 Alpha virt. eigenvalues --   -0.09140  -0.07332  -0.07194  -0.05771  -0.04646
 Alpha virt. eigenvalues --   -0.04353  -0.03059  -0.02953  -0.02246  -0.00635

 Mulliken charges:
               1
     1  N   -0.724844
     2  H    0.416411
     3  H    0.404118
     4  H    0.413100
     5  C   -0.140160
     6  H    0.216309
     7  C    0.647613
     8  C   -0.301768
     9  H    0.269783
    10  H    0.189354
    11  O   -0.520416
    12  C   -0.380418
    13  H    0.136915
    14  H    0.265633
    15  C    0.529844
    16  O   -0.337672
    17  O   -0.572638
    18  N   -0.559928
    19  H    0.342891
    20  C   -0.090102
    21  H    0.201161
    22  C    0.599249
    23  C   -0.368810
    24  H    0.163870
    25  H    0.168701
    26  O   -0.542829
    27  C    0.155999
    28  C   -0.215534
    29  H    0.099246
    30  C   -0.177971
    31  H    0.110916
    32  C   -0.273084
    33  H    0.110421
    34  C   -0.221141
    35  H    0.121773
    36  O   -0.585021
    37  C    0.392679
    38  N   -0.590869
    39  H    0.343164
    40  C   -0.075018
    41  H    0.153280
    42  C    0.567793
    43  C   -0.258358
    44  H    0.127877
    45  H    0.164607
    46  O   -0.571549
    47  C   -0.263370
    48  H    0.151902
    49  H    0.165270
    50  C   -0.287385
    51  H    0.153661
    52  H    0.163530
    53  C   -0.230233
    54  H    0.231218
    55  H    0.225451
    56  N   -0.712433
    57  H    0.428366
    58  H    0.428249
    59  H    0.425698
    60  O   -0.637049
    61  H    0.461238
    62  H    0.491314
 Sum of Mulliken charges =   1.00000

 Dipole moment (field-independent basis, Debye):
    X=              2.1294    Y=             23.4220    Z=              6.7300  Tot=             24.4626
 Quadrupole moment (field-independent basis, Debye-Ang):
   XX=           -194.2569   YY=            -34.7134   ZZ=             83.2198
   XY=             56.7186   XZ=           -168.7972   YZ=            -98.0048

 Normal termination of Gaussian 16 at Tue May 24 03:25:27 2022.
