 Gaussian 16, Revision C.01,
 Gaussian 16:  ES64L-G16RevC.01  3-Jul-2019

 -------------------------------------------------------------------
 # B3LYP/6-31G* guess=read geom=check nosymm integral(ultrafinegrid)
 -------------------------------------------------------------------

 ------------------------------------------------------
 Candidate Structure: Conf:472 Charge calc in gas phase
 ------------------------------------------------------
 Structure from the checkpoint file:  "conf-472.chk"
 Charge =  1 Multiplicity = 1

                          Input orientation:
 ---------------------------------------------------------------------
 Center     Atomic      Atomic             Coordinates (Angstroms)
 Number     Number       Type             X           Y           Z
 ---------------------------------------------------------------------
      1          7           0        0.139189   -3.898010    2.496075
      2          1           0        1.113078   -3.667801    2.722085
      3          1           0       -0.192928   -4.599383    3.162505
      4          1           0        0.112189   -4.260258    1.493224
      5          6           0       -0.723403   -2.658210    2.360972
      6          1           0       -0.314962   -1.885068    3.016913
      7          6           0       -0.526146   -2.324837    0.839091
      8          6           0       -2.195822   -2.960545    2.677184
      9          1           0       -2.523156   -3.843263    2.117296
     10          1           0       -2.779300   -2.119835    2.289447
     11          8           0       -0.282773   -3.293010    0.108935
     12          6           0       -2.493037   -3.115715    4.194377
     13          1           0       -2.267276   -2.186653    4.732110
     14          1           0       -1.884014   -3.912502    4.646093
     15          6           0       -3.878433   -3.521484    4.481599
     16          8           0       -4.595914   -4.317099    4.944087
     17          8           0       -4.879508   -1.850708    4.249437
     18          7           0       -0.646937   -1.038242    0.510778
     19          1           0       -0.787337   -0.402341    1.288689
     20          6           0       -0.008631   -0.346756   -0.653016
     21          1           0       -0.518922    0.618752   -0.708024
     22          6           0        1.471713   -0.141274   -0.213801
     23          6           0       -0.130387   -1.050760   -2.018468
     24          1           0        0.307061   -2.046514   -1.943660
     25          1           0       -1.196020   -1.165398   -2.251048
     26          8           0        2.299084   -1.039498   -0.359042
     27          6           0        0.574496   -0.250982   -3.097861
     28          6           0       -0.027151    0.854805   -3.727347
     29          1           0       -1.054450    1.119339   -3.480866
     30          6           0        1.884764   -0.589857   -3.485116
     31          1           0        2.361912   -1.453156   -3.030550
     32          6           0        0.665177    1.632604   -4.645766
     33          1           0        0.200535    2.497113   -5.109786
     34          6           0        2.586357    0.170419   -4.406909
     35          1           0        3.592014   -0.114725   -4.702433
     36          8           0        2.704617    2.147901   -5.758466
     37          6           0        2.022535    1.347421   -4.978900
     38          7           0        1.658541    1.036208    0.398382
     39          1           0        0.900487    1.716109    0.545417
     40          6           0        2.909557    1.730554    0.687340
     41          1           0        3.631031    1.071191    1.177070
     42          6           0        2.503594    2.927398    1.640544
     43          6           0        3.437060    2.246187   -0.663771
     44          1           0        3.393402    1.390520   -1.345840
     45          1           0        2.691489    2.972541   -1.021135
     46          8           0        3.468753    3.479103    2.201555
     47          6           0        4.826681    2.890016   -0.744857
     48          1           0        5.600493    2.121692   -0.612682
     49          1           0        4.955964    3.617165    0.062450
     50          6           0        5.018774    3.573824   -2.124352
     51          1           0        4.461189    4.520235   -2.146674
     52          1           0        6.078240    3.813238   -2.281919
     53          6           0        4.504537    2.660673   -3.235630
     54          1           0        4.980496    1.676914   -3.177560
     55          1           0        3.434284    2.501183   -3.128803
     56          7           0        4.680249    3.127410   -4.645388
     57          1           0        3.813132    2.532030   -5.292666
     58          1           0        5.631773    2.985591   -4.987248
     59          1           0        4.468524    4.123555   -4.736576
     60          8           0        1.273826    3.181972    1.667414
     61          1           0       -4.960521   -1.421997    3.366330
     62          1           0       -5.792214   -2.068427    4.518205
 ---------------------------------------------------------------------

 SCF Done:  E(RB3LYP) =  -1525.96713461     A.U. after    3 cycles

 Alpha  occ. eigenvalues --  -19.39413 -19.38927 -19.28726 -19.18442 -19.16370
 Alpha  occ. eigenvalues --  -19.12548 -19.11877 -14.63480 -14.51822 -14.46655
 Alpha  occ. eigenvalues --  -14.41574 -10.51111 -10.45730 -10.44928 -10.42919
 Alpha  occ. eigenvalues --  -10.40827 -10.35887 -10.33857 -10.29924 -10.29687
 Alpha  occ. eigenvalues --  -10.29178 -10.27240 -10.26632 -10.25489 -10.25155
 Alpha  occ. eigenvalues --  -10.24611 -10.24158 -10.23574 -10.23442 -10.23164
 Alpha  occ. eigenvalues --  -10.23162  -1.29533  -1.23499  -1.21609  -1.16794
 Alpha  occ. eigenvalues --   -1.10475  -1.07714  -1.05360  -1.05333  -1.01727
 Alpha  occ. eigenvalues --   -1.01331  -0.98782  -0.96446  -0.94273  -0.90594
 Alpha  occ. eigenvalues --   -0.87286  -0.86084  -0.83912  -0.81223  -0.79495
 Alpha  occ. eigenvalues --   -0.78998  -0.77460  -0.76682  -0.75360  -0.74967
 Alpha  occ. eigenvalues --   -0.74640  -0.73757  -0.71007  -0.70450  -0.69352
 Alpha  occ. eigenvalues --   -0.68273  -0.66867  -0.66156  -0.65225  -0.64775
 Alpha  occ. eigenvalues --   -0.63908  -0.63320  -0.62977  -0.62631  -0.62158
 Alpha  occ. eigenvalues --   -0.61250  -0.59668  -0.58839  -0.58650  -0.58242
 Alpha  occ. eigenvalues --   -0.57672  -0.56623  -0.55692  -0.55064  -0.54754
 Alpha  occ. eigenvalues --   -0.53958  -0.53351  -0.52487  -0.51753  -0.51662
 Alpha  occ. eigenvalues --   -0.51375  -0.50077  -0.48682  -0.48570  -0.47380
 Alpha  occ. eigenvalues --   -0.47280  -0.46876  -0.46576  -0.45423  -0.44812
 Alpha  occ. eigenvalues --   -0.44463  -0.43990  -0.43206  -0.42799  -0.42455
 Alpha  occ. eigenvalues --   -0.41964  -0.40971  -0.40783  -0.40130  -0.39546
 Alpha  occ. eigenvalues --   -0.39217  -0.38235  -0.37883  -0.36272  -0.32214
 Alpha  occ. eigenvalues --   -0.31771  -0.30564  -0.30154  -0.27288  -0.26536
 Alpha  occ. eigenvalues --   -0.25002  -0.24628
 Alpha virt. eigenvalues --   -0.23532  -0.20119  -0.15477  -0.13852  -0.12842
 Alpha virt. eigenvalues --   -0.09877  -0.08744  -0.06470  -0.05656  -0.05385
 Alpha virt. eigenvalues --   -0.05196  -0.05012  -0.04152  -0.03629  -0.02681

 Mulliken charges:
               1
     1  N   -0.750338
     2  H    0.437255
     3  H    0.407123
     4  H    0.440241
     5  C   -0.133877
     6  H    0.224169
     7  C    0.660545
     8  C   -0.298427
     9  H    0.214419
    10  H    0.198242
    11  O   -0.515235
    12  C   -0.363908
    13  H    0.250972
    14  H    0.212258
    15  C    0.501838
    16  O   -0.267237
    17  O   -0.715873
    18  N   -0.597951
    19  H    0.350829
    20  C   -0.074950
    21  H    0.176096
    22  C    0.630482
    23  C   -0.354750
    24  H    0.193827
    25  H    0.148300
    26  O   -0.548616
    27  C    0.132653
    28  C   -0.184779
    29  H    0.116223
    30  C   -0.163434
    31  H    0.146957
    32  C   -0.171612
    33  H    0.136725
    34  C   -0.204336
    35  H    0.121799
    36  O   -0.701940
    37  C    0.398183
    38  N   -0.602708
    39  H    0.342527
    40  C   -0.079587
    41  H    0.152672
    42  C    0.599288
    43  C   -0.279780
    44  H    0.161657
    45  H    0.143484
    46  O   -0.518184
    47  C   -0.268720
    48  H    0.137448
    49  H    0.194643
    50  C   -0.280691
    51  H    0.152979
    52  H    0.144504
    53  C   -0.168789
    54  H    0.176813
    55  H    0.207203
    56  N   -0.786318
    57  H    0.467221
    58  H    0.362638
    59  H    0.368985
    60  O   -0.593499
    61  H    0.451248
    62  H    0.463095
 Sum of Mulliken charges =   1.00000

 Dipole moment (field-independent basis, Debye):
    X=            -10.9572    Y=            -18.4843    Z=             12.8463  Tot=             25.0351
 Quadrupole moment (field-independent basis, Debye-Ang):
   XX=            -87.0118   YY=           -132.2168   ZZ=           -121.7756
   XY=             34.0588   XZ=            -87.2417   YZ=           -100.7724

 Normal termination of Gaussian 16 at Tue May 24 03:32:58 2022.
