 Gaussian 16, Revision C.01,
 Gaussian 16:  ES64L-G16RevC.01  3-Jul-2019

 -------------------------------------------------------------------
 # B3LYP/6-31G* guess=read geom=check nosymm integral(ultrafinegrid)
 -------------------------------------------------------------------

 ------------------------------------------------------
 Candidate Structure: Conf:977 Charge calc in gas phase
 ------------------------------------------------------
 Structure from the checkpoint file:  "conf-977.chk"
 Charge =  1 Multiplicity = 1

                          Input orientation:
 ---------------------------------------------------------------------
 Center     Atomic      Atomic             Coordinates (Angstroms)
 Number     Number       Type             X           Y           Z
 ---------------------------------------------------------------------
      1          7           0       -0.573464   -4.715453    2.912168
      2          1           0        0.685691   -4.022924    3.921833
      3          1           0       -1.080730   -5.523978    3.267125
      4          1           0       -0.045380   -5.019071    2.091842
      5          6           0       -1.512220   -3.649390    2.499036
      6          1           0       -2.024989   -3.299885    3.403844
      7          6           0       -0.654774   -2.518910    1.908823
      8          6           0       -2.561034   -4.070770    1.445490
      9          1           0       -2.032070   -4.381939    0.536109
     10          1           0       -3.166291   -3.195519    1.181145
     11          8           0        0.232636   -2.766450    1.097501
     12          6           0       -3.491176   -5.199149    1.927859
     13          1           0       -3.985905   -4.899053    2.860762
     14          1           0       -2.940504   -6.125687    2.108357
     15          6           0       -4.565686   -5.526515    0.908576
     16          8           0       -4.677763   -6.571522    0.313943
     17          8           0       -5.408937   -4.476634    0.727980
     18          7           0       -0.892331   -1.250443    2.366418
     19          1           0       -1.734474   -1.077668    2.899135
     20          6           0       -0.200678   -0.088956    1.793081
     21          1           0       -0.492032    0.761319    2.422863
     22          6           0        1.335285   -0.241525    1.932599
     23          6           0       -0.609290    0.226109    0.333692
     24          1           0       -0.093688    1.148182    0.045049
     25          1           0       -0.224358   -0.567267   -0.311767
     26          8           0        2.091101    0.328820    1.127649
     27          6           0       -2.108025    0.361765    0.167315
     28          6           0       -2.831508   -0.557603   -0.600219
     29          1           0       -2.307527   -1.370509   -1.097532
     30          6           0       -2.820517    1.405344    0.780868
     31          1           0       -2.288989    2.152073    1.368726
     32          6           0       -4.214791   -0.448095   -0.755723
     33          1           0       -4.753496   -1.173751   -1.361666
     34          6           0       -4.198587    1.527197    0.641221
     35          1           0       -4.744288    2.340452    1.108789
     36          8           0       -6.252665    0.768852   -0.235554
     37          6           0       -4.905126    0.597144   -0.133749
     38          7           0        1.741921   -0.972958    3.001743
     39          1           0        0.977098   -1.365892    3.543519
     40          6           0        2.898151   -1.890343    3.004102
     41          1           0        3.162273   -2.081380    1.957555
     42          6           0        2.448365   -3.268234    3.523318
     43          6           0        4.158460   -1.308972    3.691306
     44          1           0        3.996328   -1.160940    4.764664
     45          1           0        4.979313   -2.022646    3.563945
     46          8           0        3.096020   -4.264222    3.308570
     47          6           0        4.394018    0.007574    2.953985
     48          1           0        3.549738    0.655624    3.219607
     49          1           0        4.249858   -0.252402    1.902604
     50          6           0        5.660330    0.856986    3.013741
     51          1           0        5.957460    1.121667    4.034873
     52          1           0        6.515149    0.348415    2.551756
     53          6           0        5.347478    2.173205    2.279136
     54          1           0        4.711693    2.819308    2.889251
     55          1           0        6.239224    2.730901    1.984781
     56          7           0        4.543225    1.933772    0.993480
     57          1           0        4.311128    2.824030    0.541047
     58          1           0        3.645482    1.405866    1.150800
     59          1           0        5.083379    1.383853    0.316038
     60          8           0        1.265731   -3.223189    4.161175
     61          1           0       -6.620297    0.123955   -0.859808
     62          1           0       -6.070670   -4.770100    0.072987
 ---------------------------------------------------------------------

 SCF Done:  E(RB3LYP) =  -1526.19996717     A.U. after    1 cycles

 Alpha  occ. eigenvalues --  -19.26970 -19.26016 -19.25123 -19.24489 -19.22632
 Alpha  occ. eigenvalues --  -19.22009 -19.21223 -14.60784 -14.47480 -14.46189
 Alpha  occ. eigenvalues --  -14.44304 -10.41070 -10.40462 -10.40144 -10.39607
 Alpha  occ. eigenvalues --  -10.39568 -10.34759 -10.34035 -10.33588 -10.33294
 Alpha  occ. eigenvalues --  -10.32655 -10.30899 -10.30065 -10.29030 -10.28822
 Alpha  occ. eigenvalues --  -10.28177 -10.27294 -10.27176 -10.27106 -10.26749
 Alpha  occ. eigenvalues --  -10.26319  -1.17735  -1.17592  -1.15519  -1.14877
 Alpha  occ. eigenvalues --   -1.14343  -1.13269  -1.09389  -1.08816  -1.04380
 Alpha  occ. eigenvalues --   -1.02525  -1.00433  -0.94394  -0.93333  -0.89908
 Alpha  occ. eigenvalues --   -0.88681  -0.87616  -0.83825  -0.82659  -0.82392
 Alpha  occ. eigenvalues --   -0.80442  -0.77917  -0.75116  -0.74171  -0.73284
 Alpha  occ. eigenvalues --   -0.72517  -0.70386  -0.70183  -0.69731  -0.69154
 Alpha  occ. eigenvalues --   -0.67914  -0.67813  -0.66312  -0.64385  -0.64098
 Alpha  occ. eigenvalues --   -0.62558  -0.62170  -0.61786  -0.60854  -0.58657
 Alpha  occ. eigenvalues --   -0.57356  -0.57204  -0.56886  -0.56210  -0.55997
 Alpha  occ. eigenvalues --   -0.55712  -0.55558  -0.55013  -0.54684  -0.54036
 Alpha  occ. eigenvalues --   -0.53883  -0.53473  -0.52542  -0.52483  -0.51653
 Alpha  occ. eigenvalues --   -0.51299  -0.50966  -0.50545  -0.50032  -0.49731
 Alpha  occ. eigenvalues --   -0.48938  -0.48355  -0.47866  -0.47620  -0.47406
 Alpha  occ. eigenvalues --   -0.47003  -0.46229  -0.46015  -0.45430  -0.45229
 Alpha  occ. eigenvalues --   -0.44800  -0.44293  -0.44207  -0.43243  -0.41415
 Alpha  occ. eigenvalues --   -0.40578  -0.39897  -0.39113  -0.38883  -0.38050
 Alpha  occ. eigenvalues --   -0.37291  -0.36231  -0.36076  -0.34745  -0.34296
 Alpha  occ. eigenvalues --   -0.33110  -0.29516
 Alpha virt. eigenvalues --   -0.11832  -0.10851  -0.09511  -0.08298  -0.07725
 Alpha virt. eigenvalues --   -0.06731  -0.06258  -0.05880  -0.04118  -0.03166
 Alpha virt. eigenvalues --   -0.02401  -0.01776  -0.00722  -0.00302  -0.00144

 Mulliken charges:
               1
     1  N   -0.774583
     2  H    0.461634
     3  H    0.343358
     4  H    0.352965
     5  C   -0.066189
     6  H    0.154920
     7  C    0.638804
     8  C   -0.291950
     9  H    0.176968
    10  H    0.181350
    11  O   -0.530817
    12  C   -0.346899
    13  H    0.176986
    14  H    0.173740
    15  C    0.564477
    16  O   -0.434977
    17  O   -0.564248
    18  N   -0.633052
    19  H    0.351101
    20  C   -0.060566
    21  H    0.178787
    22  C    0.649677
    23  C   -0.350525
    24  H    0.160694
    25  H    0.185411
    26  O   -0.580523
    27  C    0.165793
    28  C   -0.207597
    29  H    0.141832
    30  C   -0.203228
    31  H    0.122241
    32  C   -0.189341
    33  H    0.133221
    34  C   -0.155246
    35  H    0.155854
    36  O   -0.631159
    37  C    0.353816
    38  N   -0.606422
    39  H    0.380552
    40  C   -0.072328
    41  H    0.203298
    42  C    0.599337
    43  C   -0.264204
    44  H    0.168552
    45  H    0.182783
    46  O   -0.443752
    47  C   -0.293022
    48  H    0.158911
    49  H    0.138592
    50  C   -0.280210
    51  H    0.196611
    52  H    0.177394
    53  C   -0.196895
    54  H    0.219166
    55  H    0.215723
    56  N   -0.774824
    57  H    0.415428
    58  H    0.458890
    59  H    0.413899
    60  O   -0.633386
    61  H    0.415168
    62  H    0.418013
 Sum of Mulliken charges =   1.00000

 Dipole moment (field-independent basis, Debye):
    X=             10.1101    Y=              4.9972    Z=              8.3500  Tot=             14.0324
 Quadrupole moment (field-independent basis, Debye-Ang):
   XX=            -67.4368   YY=           -164.1231   ZZ=           -152.6893
   XY=             57.2879   XZ=             18.6126   YZ=              1.4486

 Normal termination of Gaussian 16 at Tue May 24 03:32:32 2022.
