 Gaussian 16, Revision C.01,
 Gaussian 16:  ES64L-G16RevC.01  3-Jul-2019

 -------------------------------------------------------------------
 # B3LYP/6-31G* guess=read geom=check nosymm integral(ultrafinegrid)
 -------------------------------------------------------------------

 ------------------------------------------------------
 Candidate Structure: Conf:156 Charge calc in gas phase
 ------------------------------------------------------
 Structure from the checkpoint file:  "conf-156.chk"
 Charge =  1 Multiplicity = 1

                          Input orientation:
 ---------------------------------------------------------------------
 Center     Atomic      Atomic             Coordinates (Angstroms)
 Number     Number       Type             X           Y           Z
 ---------------------------------------------------------------------
      1          7           0       -0.158350   -2.586575    3.380676
      2          1           0        0.683469   -2.048615    3.619579
      3          1           0       -0.535239   -3.014220    4.227675
      4          1           0        0.139138   -3.316403    2.718230
      5          6           0       -1.142259   -1.714506    2.683983
      6          1           0       -1.159811   -0.751985    3.204513
      7          6           0       -0.571446   -1.515949    1.272613
      8          6           0       -2.564436   -2.280434    2.669078
      9          1           0       -3.194498   -1.604312    2.088331
     10          1           0       -2.960965   -2.274485    3.687984
     11          8           0        0.181238   -2.365560    0.810709
     12          6           0       -2.663980   -3.697772    2.091217
     13          1           0       -2.110992   -4.411655    2.714631
     14          1           0       -2.217158   -3.751046    1.092223
     15          6           0       -4.085227   -4.143162    1.999835
     16          8           0       -5.123345   -3.622180    2.253687
     17          8           0       -4.209870   -5.497326    1.268946
     18          7           0       -0.915910   -0.375688    0.649264
     19          1           0       -1.555917    0.258416    1.104009
     20          6           0       -0.298541    0.053517   -0.610752
     21          1           0       -0.544582    1.118739   -0.666268
     22          6           0        1.230118   -0.060719   -0.432389
     23          6           0       -0.794674   -0.595395   -1.915615
     24          1           0       -0.464642   -1.633604   -1.957990
     25          1           0       -1.888924   -0.583314   -1.920263
     26          8           0        1.962338   -0.703319   -1.169233
     27          6           0       -0.219116    0.205596   -3.054954
     28          6           0       -0.635574    1.527413   -3.282819
     29          1           0       -1.479007    1.921958   -2.721417
     30          6           0        0.836568   -0.294108   -3.826998
     31          1           0        1.161584   -1.320160   -3.690004
     32          6           0        0.014969    2.351945   -4.185900
     33          1           0       -0.295242    3.379763   -4.336358
     34          6           0        1.526432    0.512509   -4.711472
     35          1           0        2.372786    0.126637   -5.270772
     36          8           0        1.916439    2.684534   -5.564627
     37          6           0        1.187127    1.898605   -4.886585
     38          7           0        1.673364    0.645801    0.632788
     39          1           0        1.100366    0.813104    1.460561
     40          6           0        3.061522    0.766686    0.976170
     41          1           0        3.626646   -0.083700    0.576487
     42          6           0        3.116484    0.734858    2.546733
     43          6           0        3.689257    2.066920    0.445301
     44          1           0        3.178490    2.928349    0.893673
     45          1           0        4.729364    2.092535    0.782843
     46          8           0        1.983693    0.775907    3.109644
     47          6           0        3.568229    2.160126   -1.077419
     48          1           0        2.506893    2.093778   -1.330844
     49          1           0        4.054819    1.291884   -1.535321
     50          6           0        4.106643    3.456839   -1.692200
     51          1           0        3.812056    4.306315   -1.065016
     52          1           0        5.202039    3.447163   -1.721029
     53          6           0        3.523984    3.712375   -3.083783
     54          1           0        2.434097    3.617464   -3.029966
     55          1           0        3.734796    4.731955   -3.417599
     56          7           0        3.994592    2.769858   -4.137453
     57          1           0        3.245278    2.708759   -4.894449
     58          1           0        4.146519    1.837325   -3.744927
     59          1           0        4.878783    3.082824   -4.542664
     60          8           0        4.238305    0.654971    3.056194
     61          1           0       -3.688014   -6.243196    1.607171
     62          1           0       -5.162087   -5.728951    1.281731
 ---------------------------------------------------------------------

 SCF Done:  E(RB3LYP) =  -1525.96400745     A.U. after    3 cycles

 Alpha  occ. eigenvalues --  -19.49113 -19.35546 -19.26674 -19.16810 -19.14534
 Alpha  occ. eigenvalues --  -19.10938 -19.09844 -14.63471 -14.50624 -14.50049
 Alpha  occ. eigenvalues --  -14.38931 -10.51292 -10.43802 -10.43045 -10.41157
 Alpha  occ. eigenvalues --  -10.39128 -10.34034 -10.32355 -10.31527 -10.28237
 Alpha  occ. eigenvalues --  -10.28225 -10.26629 -10.26244 -10.24209 -10.24161
 Alpha  occ. eigenvalues --  -10.24039 -10.23965 -10.23388 -10.22469 -10.22411
 Alpha  occ. eigenvalues --  -10.22119  -1.36302  -1.25587  -1.20525  -1.16948
 Alpha  occ. eigenvalues --   -1.09097  -1.07018  -1.06233  -1.03939  -1.03778
 Alpha  occ. eigenvalues --   -1.00717  -0.96881  -0.94665  -0.93817  -0.90146
 Alpha  occ. eigenvalues --   -0.87074  -0.86593  -0.86014  -0.84635  -0.81263
 Alpha  occ. eigenvalues --   -0.80303  -0.78929  -0.78372  -0.76825  -0.76251
 Alpha  occ. eigenvalues --   -0.75192  -0.73259  -0.71223  -0.70319  -0.69512
 Alpha  occ. eigenvalues --   -0.68897  -0.67948  -0.66262  -0.65738  -0.65320
 Alpha  occ. eigenvalues --   -0.64459  -0.63845  -0.63527  -0.63416  -0.61902
 Alpha  occ. eigenvalues --   -0.61541  -0.60151  -0.58555  -0.57571  -0.57263
 Alpha  occ. eigenvalues --   -0.57119  -0.56435  -0.55468  -0.54527  -0.53975
 Alpha  occ. eigenvalues --   -0.53164  -0.53008  -0.52182  -0.50758  -0.50449
 Alpha  occ. eigenvalues --   -0.50208  -0.49886  -0.49495  -0.48663  -0.47468
 Alpha  occ. eigenvalues --   -0.46738  -0.46179  -0.45569  -0.44448  -0.44379
 Alpha  occ. eigenvalues --   -0.43882  -0.43222  -0.42960  -0.42188  -0.41199
 Alpha  occ. eigenvalues --   -0.40946  -0.40129  -0.39951  -0.39349  -0.39154
 Alpha  occ. eigenvalues --   -0.38666  -0.38261  -0.37078  -0.35909  -0.31025
 Alpha  occ. eigenvalues --   -0.30206  -0.29248  -0.28338  -0.25988  -0.25544
 Alpha  occ. eigenvalues --   -0.23352  -0.23137
 Alpha virt. eigenvalues --   -0.21954  -0.18374  -0.13882  -0.13235  -0.10585
 Alpha virt. eigenvalues --   -0.09584  -0.07554  -0.07260  -0.05890  -0.04959
 Alpha virt. eigenvalues --   -0.04486  -0.03487  -0.03294  -0.03033  -0.02122

 Mulliken charges:
               1
     1  N   -0.725510
     2  H    0.454557
     3  H    0.411103
     4  H    0.420316
     5  C   -0.147437
     6  H    0.252601
     7  C    0.655816
     8  C   -0.295644
     9  H    0.226002
    10  H    0.203423
    11  O   -0.508841
    12  C   -0.376594
    13  H    0.166018
    14  H    0.249389
    15  C    0.507465
    16  O   -0.349839
    17  O   -0.606825
    18  N   -0.622111
    19  H    0.347333
    20  C   -0.049558
    21  H    0.179420
    22  C    0.613708
    23  C   -0.339623
    24  H    0.168773
    25  H    0.126625
    26  O   -0.523436
    27  C    0.139128
    28  C   -0.183965
    29  H    0.105608
    30  C   -0.128515
    31  H    0.133574
    32  C   -0.192262
    33  H    0.127003
    34  C   -0.234971
    35  H    0.111925
    36  O   -0.668868
    37  C    0.403881
    38  N   -0.597286
    39  H    0.318522
    40  C   -0.070707
    41  H    0.158571
    42  C    0.569355
    43  C   -0.252992
    44  H    0.132766
    45  H    0.167577
    46  O   -0.654181
    47  C   -0.278404
    48  H    0.150138
    49  H    0.137861
    50  C   -0.284669
    51  H    0.169466
    52  H    0.149726
    53  C   -0.190599
    54  H    0.214571
    55  H    0.189647
    56  N   -0.756611
    57  H    0.447833
    58  H    0.398402
    59  H    0.384772
    60  O   -0.543309
    61  H    0.490295
    62  H    0.499589
 Sum of Mulliken charges =   1.00000

 Dipole moment (field-independent basis, Debye):
    X=            -15.8077    Y=            -20.8910    Z=              7.8379  Tot=             27.3450
 Quadrupole moment (field-independent basis, Debye-Ang):
   XX=           -117.1311   YY=            -34.8412   ZZ=           -167.0495
   XY=             97.7260   XZ=            -82.8363   YZ=            -76.1148

 Normal termination of Gaussian 16 at Tue May 24 03:33:02 2022.
