 Gaussian 16, Revision C.01,
 Gaussian 16:  ES64L-G16RevC.01  3-Jul-2019

 -------------------------------------------------------------------
 # B3LYP/6-31G* guess=read geom=check nosymm integral(ultrafinegrid)
 -------------------------------------------------------------------

 ------------------------------------------------------
 Candidate Structure: Conf:966 Charge calc in gas phase
 ------------------------------------------------------
 Structure from the checkpoint file:  "conf-966.chk"
 Charge =  1 Multiplicity = 1

                          Input orientation:
 ---------------------------------------------------------------------
 Center     Atomic      Atomic             Coordinates (Angstroms)
 Number     Number       Type             X           Y           Z
 ---------------------------------------------------------------------
      1          7           0       -0.370785   -1.409886    3.391806
      2          1           0        0.330154   -0.044064    3.496248
      3          1           0       -0.492761   -1.799542    4.325042
      4          1           0        0.247543   -2.036003    2.870493
      5          6           0       -1.630782   -1.275083    2.633724
      6          1           0       -2.116458   -0.354711    2.980265
      7          6           0       -1.160455   -1.129002    1.159488
      8          6           0       -2.593099   -2.476584    2.734561
      9          1           0       -2.075778   -3.383917    2.415869
     10          1           0       -3.438540   -2.325146    2.054695
     11          8           0       -0.350643   -1.932185    0.722461
     12          6           0       -3.146078   -2.672765    4.177157
     13          1           0       -3.600295   -1.743167    4.555170
     14          1           0       -2.374416   -2.976346    4.891967
     15          6           0       -4.235258   -3.638051    4.243776
     16          8           0       -5.303174   -4.031498    4.280679
     17          8           0       -3.047268   -5.393842    3.690040
     18          7           0       -1.604539   -0.033902    0.488496
     19          1           0       -2.256739    0.579842    0.956634
     20          6           0       -0.811454    0.562459   -0.619668
     21          1           0       -1.043448    1.630882   -0.547751
     22          6           0        0.702624    0.424528   -0.266679
     23          6           0       -1.137674    0.112671   -2.054382
     24          1           0       -0.809471   -0.920294   -2.196636
     25          1           0       -2.229339    0.140215   -2.173094
     26          8           0        1.540853   -0.009653   -1.033878
     27          6           0       -0.416776    1.028039   -3.025927
     28          6           0       -0.610562    2.421495   -3.002647
     29          1           0       -1.465069    2.842385   -2.473111
     30          6           0        0.621869    0.530845   -3.832624
     31          1           0        0.774903   -0.543279   -3.893671
     32          6           0        0.284467    3.284892   -3.621925
     33          1           0        0.129513    4.359973   -3.594716
     34          6           0        1.511691    1.377683   -4.476562
     35          1           0        2.344573    0.984814   -5.051038
     36          8           0        2.431155    3.565918   -4.674670
     37          6           0        1.433271    2.775395   -4.279278
     38          7           0        0.990621    0.886634    0.985761
     39          1           0        0.242293    1.272588    1.542436
     40          6           0        2.269665    0.770710    1.662834
     41          1           0        2.635105   -0.265098    1.573797
     42          6           0        2.039250    0.964130    3.183743
     43          6           0        3.359495    1.684127    1.064992
     44          1           0        4.274274    1.533200    1.646736
     45          1           0        3.548304    1.304379    0.055192
     46          8           0        2.953528    1.152013    3.937892
     47          6           0        2.984582    3.175956    0.996292
     48          1           0        3.212685    3.669526    1.947279
     49          1           0        1.899312    3.269658    0.854911
     50          6           0        3.704553    3.904459   -0.157142
     51          1           0        3.804697    4.971844    0.077063
     52          1           0        4.725775    3.511324   -0.263771
     53          6           0        2.962390    3.726565   -1.488667
     54          1           0        2.707309    2.673303   -1.643984
     55          1           0        2.014054    4.277613   -1.487843
     56          7           0        3.709247    4.176206   -2.690692
     57          1           0        2.958293    3.892253   -3.850745
     58          1           0        4.571550    3.639328   -2.791957
     59          1           0        3.990524    5.153182   -2.599563
     60          8           0        0.735543    0.892865    3.602721
     61          1           0       -2.314493   -5.699684    4.257345
     62          1           0       -3.655533   -6.152553    3.638880
 ---------------------------------------------------------------------

 SCF Done:  E(RB3LYP) =  -1526.06204210     A.U. after    3 cycles

 Alpha  occ. eigenvalues --  -19.45317 -19.36438 -19.24744 -19.22709 -19.20692
 Alpha  occ. eigenvalues --  -19.19641 -19.16607 -14.49213 -14.48907 -14.43658
 Alpha  occ. eigenvalues --  -14.42437 -10.55904 -10.43844 -10.41986 -10.38990
 Alpha  occ. eigenvalues --  -10.38602 -10.37861 -10.37032 -10.33541 -10.31210
 Alpha  occ. eigenvalues --  -10.29149 -10.28769 -10.27043 -10.25569 -10.25276
 Alpha  occ. eigenvalues --  -10.25241 -10.25185 -10.24846 -10.24138 -10.23721
 Alpha  occ. eigenvalues --  -10.23118  -1.35937  -1.21476  -1.17035  -1.14942
 Alpha  occ. eigenvalues --   -1.11655  -1.07739  -1.06912  -1.05652  -1.04861
 Alpha  occ. eigenvalues --   -1.01340  -1.00341  -0.98185  -0.91101  -0.90104
 Alpha  occ. eigenvalues --   -0.87434  -0.86060  -0.82820  -0.80757  -0.79721
 Alpha  occ. eigenvalues --   -0.77741  -0.76163  -0.75921  -0.73239  -0.72667
 Alpha  occ. eigenvalues --   -0.71454  -0.70878  -0.70761  -0.70287  -0.68367
 Alpha  occ. eigenvalues --   -0.67350  -0.66645  -0.66347  -0.66200  -0.64387
 Alpha  occ. eigenvalues --   -0.64210  -0.63791  -0.63082  -0.62048  -0.59649
 Alpha  occ. eigenvalues --   -0.59435  -0.58955  -0.58736  -0.58579  -0.57671
 Alpha  occ. eigenvalues --   -0.56871  -0.55357  -0.54982  -0.54151  -0.53831
 Alpha  occ. eigenvalues --   -0.53566  -0.52817  -0.52200  -0.51845  -0.51201
 Alpha  occ. eigenvalues --   -0.51062  -0.50724  -0.50131  -0.49868  -0.49755
 Alpha  occ. eigenvalues --   -0.48839  -0.47530  -0.47234  -0.46985  -0.46784
 Alpha  occ. eigenvalues --   -0.45478  -0.44863  -0.44445  -0.43779  -0.43178
 Alpha  occ. eigenvalues --   -0.42802  -0.41825  -0.40434  -0.40092  -0.39788
 Alpha  occ. eigenvalues --   -0.39267  -0.38860  -0.38323  -0.37993  -0.37160
 Alpha  occ. eigenvalues --   -0.34908  -0.34027  -0.33135  -0.32583  -0.31274
 Alpha  occ. eigenvalues --   -0.30067  -0.25960
 Alpha virt. eigenvalues --   -0.24746  -0.22717  -0.12876  -0.11652  -0.08786
 Alpha virt. eigenvalues --   -0.07370  -0.06843  -0.05814  -0.05305  -0.04836
 Alpha virt. eigenvalues --   -0.04799  -0.03956  -0.02977  -0.01926  -0.00828

 Mulliken charges:
               1
     1  N   -0.798023
     2  H    0.493544
     3  H    0.334382
     4  H    0.369678
     5  C   -0.059717
     6  H    0.166717
     7  C    0.621790
     8  C   -0.292391
     9  H    0.227213
    10  H    0.199667
    11  O   -0.489358
    12  C   -0.381472
    13  H    0.265062
    14  H    0.235382
    15  C    0.588665
    16  O   -0.200070
    17  O   -0.754520
    18  N   -0.616775
    19  H    0.338388
    20  C   -0.060529
    21  H    0.172050
    22  C    0.636605
    23  C   -0.338005
    24  H    0.181772
    25  H    0.145996
    26  O   -0.499400
    27  C    0.157258
    28  C   -0.199023
    29  H    0.113851
    30  C   -0.151827
    31  H    0.136542
    32  C   -0.179721
    33  H    0.133615
    34  C   -0.161950
    35  H    0.141223
    36  O   -0.696823
    37  C    0.346696
    38  N   -0.620558
    39  H    0.322563
    40  C   -0.050601
    41  H    0.181965
    42  C    0.559423
    43  C   -0.269886
    44  H    0.171497
    45  H    0.170275
    46  O   -0.417812
    47  C   -0.272305
    48  H    0.162202
    49  H    0.129330
    50  C   -0.273181
    51  H    0.143718
    52  H    0.142385
    53  C   -0.161208
    54  H    0.192973
    55  H    0.163714
    56  N   -0.790769
    57  H    0.487257
    58  H    0.343241
    59  H    0.340349
    60  O   -0.676696
    61  H    0.444108
    62  H    0.451522
 Sum of Mulliken charges =   1.00000

 Dipole moment (field-independent basis, Debye):
    X=            -14.0090    Y=            -12.5359    Z=             17.9641  Tot=             26.0021
 Quadrupole moment (field-independent basis, Debye-Ang):
   XX=           -113.0437   YY=            -81.9616   ZZ=           -133.0530
   XY=             64.6134   XZ=            -70.5759   YZ=            -77.5832

 Normal termination of Gaussian 16 at Tue May 24 03:33:01 2022.
