 Gaussian 16, Revision C.01,
 Gaussian 16:  ES64L-G16RevC.01  3-Jul-2019

 -------------------------------------------------------------------
 # B3LYP/6-31G* guess=read geom=check nosymm integral(ultrafinegrid)
 -------------------------------------------------------------------

 ------------------------------------------------------
 Candidate Structure: Conf:610 Charge calc in gas phase
 ------------------------------------------------------
 Structure from the checkpoint file:  "conf-610.chk"
 Charge =  1 Multiplicity = 1

                          Input orientation:
 ---------------------------------------------------------------------
 Center     Atomic      Atomic             Coordinates (Angstroms)
 Number     Number       Type             X           Y           Z
 ---------------------------------------------------------------------
      1          7           0       -0.547346   -3.273038    3.225223
      2          1           0        0.392669   -3.052176    3.557797
      3          1           0       -1.063677   -3.738902    3.968588
      4          1           0       -0.448873   -3.915986    2.435596
      5          6           0       -1.255552   -2.068826    2.739361
      6          1           0       -1.190426   -1.280981    3.496322
      7          6           0       -0.583367   -1.612213    1.447697
      8          6           0       -2.725920   -2.387900    2.472249
      9          1           0       -3.130564   -2.856636    3.373773
     10          1           0       -2.751917   -3.133513    1.676551
     11          8           0       -0.119753   -2.425641    0.661670
     12          6           0       -3.569764   -1.181870    2.088414
     13          1           0       -3.322765   -0.851710    1.075787
     14          1           0       -3.412721   -0.344323    2.767816
     15          6           0       -5.037267   -1.461978    2.097877
     16          8           0       -5.907360   -0.871998    2.646720
     17          8           0       -5.395791   -2.606584    1.274502
     18          7           0       -0.600082   -0.270169    1.239893
     19          1           0       -0.970436    0.312123    1.968587
     20          6           0       -0.082139    0.421936    0.065648
     21          1           0       -0.489401    1.435376    0.124587
     22          6           0        1.443562    0.560123    0.088105
     23          6           0       -0.494484   -0.195614   -1.275046
     24          1           0       -0.177318   -1.231165   -1.313658
     25          1           0       -1.585348   -0.184067   -1.318213
     26          8           0        2.194135   -0.336107   -0.271493
     27          6           0        0.110987    0.562705   -2.410800
     28          6           0       -0.249950    1.892175   -2.667354
     29          1           0       -1.021799    2.347639   -2.052569
     30          6           0        1.119795   -0.017994   -3.186998
     31          1           0        1.436814   -1.035544   -2.964291
     32          6           0        0.336909    2.626616   -3.674644
     33          1           0        0.051353    3.650763   -3.872326
     34          6           0        1.702249    0.657403   -4.229787
     35          1           0        2.456008    0.199617   -4.855740
     36          8           0        1.908642    2.673423   -5.433796
     37          6           0        1.368321    2.041465   -4.518294
     38          7           0        1.922290    1.767097    0.447462
     39          1           0        1.409222    2.513902    0.894045
     40          6           0        3.305406    2.090107    0.270351
     41          1           0        3.932864    1.302577    0.704850
     42          6           0        3.513939    3.417945    1.056286
     43          6           0        3.681974    2.298990   -1.210380
     44          1           0        3.140614    1.573417   -1.822342
     45          1           0        3.326479    3.287060   -1.519817
     46          8           0        4.673881    3.837327    1.151186
     47          6           0        5.187391    2.169572   -1.452606
     48          1           0        5.715687    2.803921   -0.738570
     49          1           0        5.428610    2.559474   -2.446912
     50          6           0        5.707752    0.739916   -1.326415
     51          1           0        6.778969    0.735004   -1.548121
     52          1           0        5.607798    0.398335   -0.289924
     53          6           0        5.013080   -0.268809   -2.239993
     54          1           0        5.543047   -1.223326   -2.207082
     55          1           0        3.997960   -0.453861   -1.886632
     56          7           0        4.934860    0.213579   -3.638415
     57          1           0        4.650522   -0.523602   -4.279146
     58          1           0        5.835115    0.583066   -3.946925
     59          1           0        4.251768    0.967871   -3.708306
     60          8           0        2.471813    3.929740    1.511452
     61          1           0       -4.862176   -3.427311    1.395296
     62          1           0       -6.337067   -2.812831    1.437636
 ---------------------------------------------------------------------

 SCF Done:  E(RB3LYP) =  -1525.87706384     A.U. after    3 cycles

 Alpha  occ. eigenvalues --  -19.49056 -19.31994 -19.27695 -19.17160 -19.12366
 Alpha  occ. eigenvalues --  -19.07727 -19.07313 -14.67039 -14.57559 -14.51425
 Alpha  occ. eigenvalues --  -14.39396 -10.48536 -10.45577 -10.45285 -10.41019
 Alpha  occ. eigenvalues --  -10.39420 -10.34320 -10.33858 -10.33031 -10.27190
 Alpha  occ. eigenvalues --  -10.27129 -10.26740 -10.25722 -10.24087 -10.23995
 Alpha  occ. eigenvalues --  -10.23798 -10.23732 -10.23553 -10.22572 -10.22323
 Alpha  occ. eigenvalues --  -10.21774  -1.37087  -1.23187  -1.22831  -1.19123
 Alpha  occ. eigenvalues --   -1.12781  -1.09908  -1.07325  -1.02591  -1.02132
 Alpha  occ. eigenvalues --   -1.01958  -0.96437  -0.94662  -0.92600  -0.90604
 Alpha  occ. eigenvalues --   -0.88626  -0.87692  -0.86162  -0.85121  -0.83130
 Alpha  occ. eigenvalues --   -0.81941  -0.80739  -0.79473  -0.79135  -0.78808
 Alpha  occ. eigenvalues --   -0.76496  -0.74124  -0.72384  -0.71685  -0.70710
 Alpha  occ. eigenvalues --   -0.70409  -0.69789  -0.68743  -0.68513  -0.66713
 Alpha  occ. eigenvalues --   -0.65327  -0.65157  -0.63615  -0.62687  -0.62157
 Alpha  occ. eigenvalues --   -0.61581  -0.60927  -0.59642  -0.59046  -0.58839
 Alpha  occ. eigenvalues --   -0.57937  -0.56775  -0.55790  -0.55162  -0.54331
 Alpha  occ. eigenvalues --   -0.53866  -0.53388  -0.52905  -0.51681  -0.50940
 Alpha  occ. eigenvalues --   -0.49941  -0.49593  -0.48526  -0.47942  -0.47050
 Alpha  occ. eigenvalues --   -0.46785  -0.46618  -0.46110  -0.45571  -0.44796
 Alpha  occ. eigenvalues --   -0.43715  -0.43400  -0.42409  -0.41357  -0.40905
 Alpha  occ. eigenvalues --   -0.40698  -0.40195  -0.39773  -0.38943  -0.38833
 Alpha  occ. eigenvalues --   -0.38419  -0.37536  -0.35837  -0.35153  -0.31336
 Alpha  occ. eigenvalues --   -0.30478  -0.29421  -0.25389  -0.23200  -0.22896
 Alpha  occ. eigenvalues --   -0.21471  -0.21291
 Alpha virt. eigenvalues --   -0.20059  -0.18213  -0.16581  -0.14553  -0.11235
 Alpha virt. eigenvalues --   -0.10817  -0.09891  -0.08079  -0.07952  -0.06361
 Alpha virt. eigenvalues --   -0.05505  -0.05080  -0.04253  -0.02983  -0.02627

 Mulliken charges:
               1
     1  N   -0.709058
     2  H    0.445590
     3  H    0.421803
     4  H    0.425586
     5  C   -0.151270
     6  H    0.224702
     7  C    0.639408
     8  C   -0.326511
     9  H    0.177323
    10  H    0.173100
    11  O   -0.494014
    12  C   -0.352611
    13  H    0.234719
    14  H    0.225769
    15  C    0.473260
    16  O   -0.364937
    17  O   -0.552436
    18  N   -0.605618
    19  H    0.343304
    20  C   -0.068006
    21  H    0.176844
    22  C    0.635214
    23  C   -0.364583
    24  H    0.192167
    25  H    0.118783
    26  O   -0.557327
    27  C    0.138057
    28  C   -0.167749
    29  H    0.106950
    30  C   -0.145736
    31  H    0.108223
    32  C   -0.195219
    33  H    0.141439
    34  C   -0.260139
    35  H    0.061381
    36  O   -0.566286
    37  C    0.424935
    38  N   -0.596690
    39  H    0.339093
    40  C   -0.050945
    41  H    0.132200
    42  C    0.571442
    43  C   -0.282543
    44  H    0.128600
    45  H    0.176973
    46  O   -0.565434
    47  C   -0.304324
    48  H    0.226171
    49  H    0.102788
    50  C   -0.290147
    51  H    0.148765
    52  H    0.194314
    53  C   -0.245793
    54  H    0.190380
    55  H    0.266707
    56  N   -0.719947
    57  H    0.417155
    58  H    0.411005
    59  H    0.443628
    60  O   -0.597132
    61  H    0.419732
    62  H    0.476943
 Sum of Mulliken charges =   1.00000

 Dipole moment (field-independent basis, Debye):
    X=            -13.1048    Y=            -31.2352    Z=             10.9064  Tot=             35.5855
 Quadrupole moment (field-independent basis, Debye-Ang):
   XX=            -71.1400   YY=           -171.4901   ZZ=           -140.2053
   XY=              5.1141   XZ=            -82.9303   YZ=            -51.0601

 Normal termination of Gaussian 16 at Tue May 24 03:33:01 2022.
