 Gaussian 16, Revision C.01,
 Gaussian 16:  ES64L-G16RevC.01  3-Jul-2019

 -------------------------------------------------------------------
 # B3LYP/6-31G* guess=read geom=check nosymm integral(ultrafinegrid)
 -------------------------------------------------------------------

 ------------------------------------------------------
 Candidate Structure: Conf:123 Charge calc in gas phase
 ------------------------------------------------------
 Structure from the checkpoint file:  "conf-123.chk"
 Charge =  1 Multiplicity = 1

                          Input orientation:
 ---------------------------------------------------------------------
 Center     Atomic      Atomic             Coordinates (Angstroms)
 Number     Number       Type             X           Y           Z
 ---------------------------------------------------------------------
      1          7           0        0.555961   -1.800925    3.148478
      2          1           0        1.602753   -0.465406    2.837314
      3          1           0        0.318938   -1.962319    4.126420
      4          1           0        1.080015   -2.612439    2.817294
      5          6           0       -0.674956   -1.654613    2.336157
      6          1           0       -1.196737   -0.769757    2.713503
      7          6           0       -0.225966   -1.424520    0.885703
      8          6           0       -1.642260   -2.865053    2.405346
      9          1           0       -1.058178   -3.790826    2.346265
     10          1           0       -2.290345   -2.858192    1.523047
     11          8           0        0.623059   -2.131772    0.353064
     12          6           0       -2.526149   -2.890770    3.670773
     13          1           0       -1.909762   -2.806913    4.572248
     14          1           0       -3.046818   -3.853895    3.728572
     15          6           0       -3.501949   -1.720105    3.693018
     16          8           0       -3.165978   -0.604872    4.022449
     17          8           0       -4.763065   -1.939433    3.254483
     18          7           0       -0.781718   -0.341698    0.255611
     19          1           0       -1.581621    0.096880    0.693046
     20          6           0       -0.532104   -0.035207   -1.157036
     21          1           0       -1.061568    0.906267   -1.345797
     22          6           0        0.976747    0.233871   -1.398785
     23          6           0       -1.068788   -1.108715   -2.157336
     24          1           0       -1.172669   -0.634010   -3.139060
     25          1           0       -0.313675   -1.890637   -2.256634
     26          8           0        1.464294    0.068666   -2.531073
     27          6           0       -2.365685   -1.716674   -1.663454
     28          6           0       -2.394079   -3.065381   -1.282093
     29          1           0       -1.525108   -3.689746   -1.472066
     30          6           0       -3.513311   -0.947445   -1.425263
     31          1           0       -3.549170    0.093427   -1.742206
     32          6           0       -3.489953   -3.616072   -0.620767
     33          1           0       -3.497631   -4.656564   -0.310902
     34          6           0       -4.609384   -1.474415   -0.742655
     35          1           0       -5.472752   -0.847509   -0.529928
     36          8           0       -5.556919   -3.337833    0.495464
     37          6           0       -4.575303   -2.800128   -0.295631
     38          7           0        1.647994    0.686860   -0.312485
     39          1           0        1.072677    0.767551    0.521971
     40          6           0        3.033253    0.335724    0.056311
     41          1           0        3.303185   -0.566254   -0.504502
     42          6           0        3.048379   -0.126615    1.526936
     43          6           0        4.073619    1.424304   -0.305473
     44          1           0        3.917433    2.337996    0.278678
     45          1           0        5.071275    1.035698   -0.074661
     46          8           0        3.940730   -0.815950    1.959781
     47          6           0        3.853035    1.649024   -1.799937
     48          1           0        2.842800    2.066584   -1.889405
     49          1           0        3.796881    0.639312   -2.216329
     50          6           0        4.758940    2.447303   -2.734155
     51          1           0        4.985867    3.452962   -2.362338
     52          1           0        5.717997    1.943397   -2.904558
     53          6           0        3.990342    2.618658   -4.056660
     54          1           0        3.203909    3.370728   -3.957616
     55          1           0        4.628650    2.883179   -4.902619
     56          7           0        3.252234    1.333445   -4.458435
     57          1           0        2.713900    1.479347   -5.318723
     58          1           0        2.590383    0.979915   -3.717489
     59          1           0        3.912194    0.569418   -4.642363
     60          8           0        1.961960    0.274735    2.205292
     61          1           0       -4.874871   -2.853815    2.935274
     62          1           0       -6.298573   -2.720763    0.609616
 ---------------------------------------------------------------------

 SCF Done:  E(RB3LYP) =  -1526.19146807     A.U. after    1 cycles

 Alpha  occ. eigenvalues --  -19.27367 -19.26746 -19.25459 -19.24368 -19.22166
 Alpha  occ. eigenvalues --  -19.21536 -19.21178 -14.60568 -14.46944 -14.45997
 Alpha  occ. eigenvalues --  -14.44138 -10.40926 -10.40013 -10.40005 -10.39952
 Alpha  occ. eigenvalues --  -10.39102 -10.34804 -10.33793 -10.33693 -10.33163
 Alpha  occ. eigenvalues --  -10.32650 -10.30815 -10.29903 -10.29431 -10.29126
 Alpha  occ. eigenvalues --  -10.28577 -10.28074 -10.27967 -10.27774 -10.27542
 Alpha  occ. eigenvalues --  -10.27144  -1.17709  -1.16933  -1.15291  -1.14604
 Alpha  occ. eigenvalues --   -1.14440  -1.13911  -1.09428  -1.08766  -1.04169
 Alpha  occ. eigenvalues --   -1.02202  -0.99992  -0.94248  -0.94128  -0.89768
 Alpha  occ. eigenvalues --   -0.88664  -0.87681  -0.83895  -0.83480  -0.82425
 Alpha  occ. eigenvalues --   -0.80004  -0.77777  -0.75285  -0.73991  -0.73098
 Alpha  occ. eigenvalues --   -0.72225  -0.70978  -0.70110  -0.69491  -0.69095
 Alpha  occ. eigenvalues --   -0.68716  -0.68104  -0.66509  -0.64153  -0.63714
 Alpha  occ. eigenvalues --   -0.63138  -0.62261  -0.61661  -0.60627  -0.60215
 Alpha  occ. eigenvalues --   -0.58867  -0.57078  -0.56632  -0.56561  -0.55941
 Alpha  occ. eigenvalues --   -0.55738  -0.55096  -0.54723  -0.54497  -0.54215
 Alpha  occ. eigenvalues --   -0.53677  -0.53215  -0.52568  -0.52348  -0.52093
 Alpha  occ. eigenvalues --   -0.51499  -0.50888  -0.50622  -0.49830  -0.49555
 Alpha  occ. eigenvalues --   -0.49332  -0.48688  -0.47941  -0.47865  -0.47773
 Alpha  occ. eigenvalues --   -0.46980  -0.46145  -0.45804  -0.45405  -0.45139
 Alpha  occ. eigenvalues --   -0.44975  -0.44316  -0.44158  -0.43463  -0.42404
 Alpha  occ. eigenvalues --   -0.41279  -0.39472  -0.39103  -0.38754  -0.37686
 Alpha  occ. eigenvalues --   -0.36976  -0.35936  -0.35406  -0.34685  -0.34210
 Alpha  occ. eigenvalues --   -0.33800  -0.30593
 Alpha virt. eigenvalues --   -0.11727  -0.10849  -0.09562  -0.08328  -0.07712
 Alpha virt. eigenvalues --   -0.07476  -0.07150  -0.05771  -0.03976  -0.03299
 Alpha virt. eigenvalues --   -0.02511  -0.02243  -0.01219  -0.00564  -0.00236

 Mulliken charges:
               1
     1  N   -0.776848
     2  H    0.464451
     3  H    0.343632
     4  H    0.349712
     5  C   -0.082306
     6  H    0.194683
     7  C    0.639001
     8  C   -0.300075
     9  H    0.170467
    10  H    0.182626
    11  O   -0.535135
    12  C   -0.378305
    13  H    0.179076
    14  H    0.164350
    15  C    0.588754
    16  O   -0.441281
    17  O   -0.561993
    18  N   -0.638035
    19  H    0.354380
    20  C   -0.046413
    21  H    0.178630
    22  C    0.642402
    23  C   -0.351838
    24  H    0.159104
    25  H    0.185484
    26  O   -0.582393
    27  C    0.170954
    28  C   -0.192089
    29  H    0.152803
    30  C   -0.207427
    31  H    0.131103
    32  C   -0.174420
    33  H    0.155847
    34  C   -0.181889
    35  H    0.145077
    36  O   -0.654467
    37  C    0.348654
    38  N   -0.608299
    39  H    0.385328
    40  C   -0.067809
    41  H    0.200387
    42  C    0.600137
    43  C   -0.265398
    44  H    0.169154
    45  H    0.182435
    46  O   -0.446701
    47  C   -0.293289
    48  H    0.158899
    49  H    0.138007
    50  C   -0.279313
    51  H    0.196469
    52  H    0.177595
    53  C   -0.197345
    54  H    0.219073
    55  H    0.214835
    56  N   -0.775312
    57  H    0.414484
    58  H    0.458712
    59  H    0.412927
    60  O   -0.635675
    61  H    0.421135
    62  H    0.423290
 Sum of Mulliken charges =   1.00000

 Dipole moment (field-independent basis, Debye):
    X=              5.7918    Y=              2.4134    Z=            -13.2339  Tot=             14.6460
 Quadrupole moment (field-independent basis, Debye-Ang):
   XX=           -114.7396   YY=           -148.4448   ZZ=           -103.6547
   XY=             42.0604   XZ=            -60.0841   YZ=            -47.5302

 Normal termination of Gaussian 16 at Tue May 24 03:25:05 2022.
