 Gaussian 16, Revision C.01,
 Gaussian 16:  ES64L-G16RevC.01  3-Jul-2019

 -------------------------------------------------------------------
 # B3LYP/6-31G* guess=read geom=check nosymm integral(ultrafinegrid)
 -------------------------------------------------------------------

 ------------------------------------------------------
 Candidate Structure: Conf:102 Charge calc in gas phase
 ------------------------------------------------------
 Structure from the checkpoint file:  "conf-102.chk"
 Charge =  1 Multiplicity = 1

                          Input orientation:
 ---------------------------------------------------------------------
 Center     Atomic      Atomic             Coordinates (Angstroms)
 Number     Number       Type             X           Y           Z
 ---------------------------------------------------------------------
      1          7           0        0.805414   -4.497805    2.527982
      2          1           0        1.794621   -4.252721    2.489989
      3          1           0        0.639068   -5.047212    3.368664
      4          1           0        0.614500   -5.079720    1.712403
      5          6           0       -0.025367   -3.279084    2.482175
      6          1           0        0.237397   -2.640522    3.333936
      7          6           0        0.312929   -2.520162    1.194049
      8          6           0       -1.515007   -3.587680    2.555479
      9          1           0       -1.774200   -4.275028    1.752244
     10          1           0       -2.069046   -2.671134    2.366544
     11          8           0        0.985136   -3.036361    0.315805
     12          6           0       -1.946761   -4.167465    3.898882
     13          1           0       -1.659524   -3.505475    4.718856
     14          1           0       -1.478928   -5.137641    4.090636
     15          6           0       -3.428314   -4.366299    4.002350
     16          8           0       -4.273819   -4.195856    3.190007
     17          8           0       -3.856445   -4.825895    5.338238
     18          7           0       -0.211825   -1.266236    1.113695
     19          1           0       -0.648572   -0.891365    1.937550
     20          6           0        0.015213   -0.323058    0.024988
     21          1           0       -0.759941    0.441361    0.131002
     22          6           0        1.368770    0.374492    0.176764
     23          6           0       -0.108528   -0.931968   -1.375172
     24          1           0        0.640002   -1.702369   -1.518739
     25          1           0       -1.087609   -1.405881   -1.435427
     26          8           0        2.415244   -0.109719   -0.228081
     27          6           0        0.036976    0.138290   -2.407416
     28          6           0       -0.983331    1.075591   -2.614223
     29          1           0       -1.918247    0.953104   -2.075075
     30          6           0        1.240818    0.286603   -3.102872
     31          1           0        2.048093   -0.414987   -2.905805
     32          6           0       -0.822768    2.150116   -3.460677
     33          1           0       -1.604780    2.879962   -3.615684
     34          6           0        1.447691    1.325744   -3.979956
     35          1           0        2.383387    1.451856   -4.513136
     36          8           0        0.627452    3.339190   -4.884017
     37          6           0        0.433660    2.348661   -4.162403
     38          7           0        1.321265    1.600729    0.758548
     39          1           0        0.576734    1.888489    1.386633
     40          6           0        2.521213    2.312294    1.077306
     41          1           0        3.365864    1.615643    1.154827
     42          6           0        2.253287    3.007681    2.449384
     43          6           0        2.869241    3.418241    0.078036
     44          1           0        2.021608    4.106393   -0.006133
     45          1           0        3.706130    3.979698    0.501163
     46          8           0        3.216590    3.540666    3.001796
     47          6           0        3.236739    2.873965   -1.292585
     48          1           0        2.366550    2.376012   -1.734380
     49          1           0        4.004604    2.104322   -1.170623
     50          6           0        3.743139    3.946446   -2.248256
     51          1           0        4.570940    4.489029   -1.777219
     52          1           0        4.147969    3.470739   -3.147672
     53          6           0        2.684770    4.946613   -2.663506
     54          1           0        1.883941    4.442522   -3.200181
     55          1           0        2.252241    5.411509   -1.773446
     56          7           0        3.241997    6.013871   -3.530833
     57          1           0        2.524844    6.676375   -3.825901
     58          1           0        3.662741    5.618222   -4.370441
     59          1           0        3.965717    6.537877   -3.041016
     60          8           0        1.062600    2.947482    2.835132
     61          1           0       -3.412767   -5.619259    5.715668
     62          1           0       -4.819309   -4.999115    5.269381
 ---------------------------------------------------------------------

 SCF Done:  E(RB3LYP) =  -1525.88640743     A.U. after    3 cycles

 Alpha  occ. eigenvalues --  -19.47280 -19.31013 -19.24970 -19.14921 -19.12250
 Alpha  occ. eigenvalues --  -19.07145 -19.06958 -14.64640 -14.59209 -14.48308
 Alpha  occ. eigenvalues --  -14.37435 -10.47242 -10.42821 -10.42710 -10.38965
 Alpha  occ. eigenvalues --  -10.37506 -10.33622 -10.32121 -10.30627 -10.27222
 Alpha  occ. eigenvalues --  -10.26366 -10.25048 -10.24214 -10.22644 -10.22605
 Alpha  occ. eigenvalues --  -10.22286 -10.22237 -10.21757 -10.21150 -10.20867
 Alpha  occ. eigenvalues --  -10.20748  -1.34962  -1.21909  -1.20802  -1.16479
 Alpha  occ. eigenvalues --   -1.14040  -1.07527  -1.04463  -1.02343  -1.01423
 Alpha  occ. eigenvalues --   -0.99352  -0.94879  -0.92962  -0.91911  -0.88869
 Alpha  occ. eigenvalues --   -0.88710  -0.85624  -0.84129  -0.83536  -0.81337
 Alpha  occ. eigenvalues --   -0.79405  -0.78520  -0.77604  -0.77540  -0.76589
 Alpha  occ. eigenvalues --   -0.75755  -0.72557  -0.72290  -0.71705  -0.69632
 Alpha  occ. eigenvalues --   -0.68915  -0.67555  -0.67425  -0.66596  -0.65181
 Alpha  occ. eigenvalues --   -0.63896  -0.62977  -0.61945  -0.61470  -0.60432
 Alpha  occ. eigenvalues --   -0.60082  -0.59903  -0.59213  -0.58002  -0.55885
 Alpha  occ. eigenvalues --   -0.55277  -0.54879  -0.54631  -0.53541  -0.52608
 Alpha  occ. eigenvalues --   -0.52306  -0.51624  -0.50721  -0.50341  -0.49209
 Alpha  occ. eigenvalues --   -0.48578  -0.48139  -0.47767  -0.46465  -0.45918
 Alpha  occ. eigenvalues --   -0.45516  -0.45420  -0.44788  -0.43201  -0.42776
 Alpha  occ. eigenvalues --   -0.42668  -0.42480  -0.41254  -0.40601  -0.39523
 Alpha  occ. eigenvalues --   -0.39351  -0.38645  -0.37858  -0.37703  -0.37432
 Alpha  occ. eigenvalues --   -0.37145  -0.36618  -0.34841  -0.34102  -0.28969
 Alpha  occ. eigenvalues --   -0.28728  -0.28058  -0.25211  -0.22812  -0.22175
 Alpha  occ. eigenvalues --   -0.20715  -0.20273
 Alpha virt. eigenvalues --   -0.19251  -0.16013  -0.14369  -0.11995  -0.09418
 Alpha virt. eigenvalues --   -0.09068  -0.08602  -0.07960  -0.06385  -0.04638
 Alpha virt. eigenvalues --   -0.03447  -0.03169  -0.02994  -0.02716  -0.02480

 Mulliken charges:
               1
     1  N   -0.701059
     2  H    0.442481
     3  H    0.399790
     4  H    0.426071
     5  C   -0.164016
     6  H    0.229477
     7  C    0.649036
     8  C   -0.284843
     9  H    0.203121
    10  H    0.230801
    11  O   -0.491518
    12  C   -0.361533
    13  H    0.214523
    14  H    0.122854
    15  C    0.481033
    16  O   -0.378298
    17  O   -0.564159
    18  N   -0.614244
    19  H    0.340671
    20  C   -0.063805
    21  H    0.170878
    22  C    0.621252
    23  C   -0.358945
    24  H    0.200257
    25  H    0.129254
    26  O   -0.537013
    27  C    0.140504
    28  C   -0.175412
    29  H    0.103911
    30  C   -0.159665
    31  H    0.140572
    32  C   -0.194012
    33  H    0.121615
    34  C   -0.210451
    35  H    0.106134
    36  O   -0.623101
    37  C    0.423355
    38  N   -0.586298
    39  H    0.329716
    40  C   -0.073345
    41  H    0.150934
    42  C    0.566144
    43  C   -0.266516
    44  H    0.123678
    45  H    0.157709
    46  O   -0.561936
    47  C   -0.275980
    48  H    0.184159
    49  H    0.165179
    50  C   -0.284627
    51  H    0.139283
    52  H    0.152471
    53  C   -0.250250
    54  H    0.269004
    55  H    0.215559
    56  N   -0.711714
    57  H    0.427905
    58  H    0.424520
    59  H    0.414879
    60  O   -0.615803
    61  H    0.414014
    62  H    0.475801
 Sum of Mulliken charges =   1.00000

 Dipole moment (field-independent basis, Debye):
    X=             -3.9534    Y=            -18.9539    Z=             11.1625  Tot=             22.3490
 Quadrupole moment (field-independent basis, Debye-Ang):
   XX=           -125.2007   YY=             48.7007   ZZ=            -98.9368
   XY=             86.3181   XZ=           -103.8616   YZ=           -205.2733

 Normal termination of Gaussian 16 at Tue May 24 03:25:32 2022.
