 Gaussian 16, Revision C.01,
 Gaussian 16:  ES64L-G16RevC.01  3-Jul-2019

 -------------------------------------------------------------------
 # B3LYP/6-31G* guess=read geom=check nosymm integral(ultrafinegrid)
 -------------------------------------------------------------------

 ------------------------------------------------------
 Candidate Structure: Conf:197 Charge calc in gas phase
 ------------------------------------------------------
 Structure from the checkpoint file:  "conf-197.chk"
 Charge =  1 Multiplicity = 1

                          Input orientation:
 ---------------------------------------------------------------------
 Center     Atomic      Atomic             Coordinates (Angstroms)
 Number     Number       Type             X           Y           Z
 ---------------------------------------------------------------------
      1          7           0       -3.896456   -2.570688    1.963605
      2          1           0       -3.776708   -3.484209    1.514821
      3          1           0       -4.555396   -2.658163    2.737632
      4          1           0       -4.262115   -1.919290    1.243578
      5          6           0       -2.591276   -1.975729    2.359463
      6          1           0       -1.903882   -2.767077    2.670079
      7          6           0       -2.099300   -1.274104    1.079425
      8          6           0       -2.757007   -0.956342    3.500498
      9          1           0       -3.314209   -1.423857    4.314772
     10          1           0       -3.385876   -0.136581    3.132071
     11          8           0       -2.940111   -0.903002    0.259330
     12          6           0       -1.433622   -0.364135    4.033330
     13          1           0       -1.661654    0.413750    4.768184
     14          1           0       -0.869271    0.107601    3.226391
     15          6           0       -0.532240   -1.358782    4.666539
     16          8           0        0.491529   -1.886385    4.348248
     17          8           0       -0.915232   -1.596631    6.141766
     18          7           0       -0.789641   -1.053355    0.983143
     19          1           0       -0.119317   -1.307753    1.706783
     20          6           0       -0.207097   -0.227512   -0.056251
     21          1           0       -0.891326    0.601317   -0.261730
     22          6           0        1.083213    0.324710    0.570314
     23          6           0       -0.000841   -1.007355   -1.376379
     24          1           0        0.672291   -1.848805   -1.190016
     25          1           0       -0.983835   -1.409110   -1.645043
     26          8           0        1.531449   -0.181285    1.597839
     27          6           0        0.555901   -0.132173   -2.457950
     28          6           0       -0.196199    0.944796   -2.961372
     29          1           0       -1.237055    1.044832   -2.649732
     30          6           0        1.882338   -0.287828   -2.892912
     31          1           0        2.466852   -1.125325   -2.514112
     32          6           0        0.364359    1.892778   -3.781925
     33          1           0       -0.201128    2.748263   -4.132549
     34          6           0        2.470959    0.620517   -3.735175
     35          1           0        3.498875    0.510725   -4.064476
     36          8           0        2.306780    2.680268   -4.881520
     37          6           0        1.760427    1.805860   -4.184118
     38          7           0        1.629217    1.371163   -0.067790
     39          1           0        1.188405    1.722264   -0.911375
     40          6           0        2.817074    2.063944    0.383886
     41          1           0        3.359727    1.419434    1.075618
     42          6           0        2.397672    3.386753    1.137799
     43          6           0        3.651505    2.491695   -0.813003
     44          1           0        3.944116    1.614580   -1.400850
     45          1           0        3.009779    3.118678   -1.444448
     46          8           0        2.622017    3.396470    2.361777
     47          6           0        4.865902    3.303964   -0.383695
     48          1           0        5.569697    2.662596    0.161727
     49          1           0        4.514840    4.070957    0.316237
     50          6           0        5.563261    3.947445   -1.576835
     51          1           0        5.794344    3.186139   -2.329027
     52          1           0        4.875014    4.655278   -2.055652
     53          6           0        6.846076    4.668442   -1.203869
     54          1           0        7.567362    3.964585   -0.780643
     55          1           0        7.311064    5.128025   -2.078493
     56          7           0        6.572324    5.733125   -0.182002
     57          1           0        7.347135    6.392881   -0.084808
     58          1           0        6.397871    5.318340    0.736171
     59          1           0        5.731607    6.258354   -0.433845
     60          8           0        1.880255    4.260128    0.409351
     61          1           0       -1.810570   -1.850249    6.366984
     62          1           0       -0.291051   -2.263219    6.488451
 ---------------------------------------------------------------------

 SCF Done:  E(RB3LYP) =  -1525.90177701     A.U. after    3 cycles

 Alpha  occ. eigenvalues --  -19.44672 -19.29490 -19.25357 -19.16683 -19.10309
 Alpha  occ. eigenvalues --  -19.05802 -19.05692 -14.62676 -14.60376 -14.47451
 Alpha  occ. eigenvalues --  -14.39722 -10.44796 -10.42275 -10.41942 -10.37161
 Alpha  occ. eigenvalues --  -10.36815 -10.35856 -10.33435 -10.30460 -10.28330
 Alpha  occ. eigenvalues --  -10.25137 -10.25046 -10.24895 -10.24170 -10.22469
 Alpha  occ. eigenvalues --  -10.22189 -10.21637 -10.21450 -10.21378 -10.20009
 Alpha  occ. eigenvalues --  -10.19758  -1.32293  -1.19636  -1.19529  -1.15645
 Alpha  occ. eigenvalues --   -1.14975  -1.09138  -1.04055  -0.99960  -0.99833
 Alpha  occ. eigenvalues --   -0.97578  -0.96082  -0.90896  -0.90538  -0.90423
 Alpha  occ. eigenvalues --   -0.88072  -0.84501  -0.83262  -0.82559  -0.81950
 Alpha  occ. eigenvalues --   -0.78154  -0.77396  -0.76903  -0.76364  -0.76141
 Alpha  occ. eigenvalues --   -0.74570  -0.73374  -0.72903  -0.70932  -0.70051
 Alpha  occ. eigenvalues --   -0.68148  -0.67296  -0.66225  -0.64124  -0.63516
 Alpha  occ. eigenvalues --   -0.62951  -0.62803  -0.62496  -0.62029  -0.60835
 Alpha  occ. eigenvalues --   -0.59539  -0.58356  -0.57440  -0.56419  -0.56153
 Alpha  occ. eigenvalues --   -0.55221  -0.54641  -0.53849  -0.52865  -0.52635
 Alpha  occ. eigenvalues --   -0.51742  -0.51572  -0.50723  -0.50658  -0.50073
 Alpha  occ. eigenvalues --   -0.49516  -0.48403  -0.47698  -0.47139  -0.45993
 Alpha  occ. eigenvalues --   -0.44930  -0.44633  -0.44320  -0.43813  -0.42991
 Alpha  occ. eigenvalues --   -0.42402  -0.41419  -0.40981  -0.40816  -0.40212
 Alpha  occ. eigenvalues --   -0.39677  -0.39028  -0.38023  -0.37251  -0.36888
 Alpha  occ. eigenvalues --   -0.36434  -0.35532  -0.34950  -0.32901  -0.31073
 Alpha  occ. eigenvalues --   -0.30077  -0.27753  -0.23172  -0.21828  -0.20300
 Alpha  occ. eigenvalues --   -0.19614  -0.18995
 Alpha virt. eigenvalues --   -0.17767  -0.15541  -0.13124  -0.11154  -0.10329
 Alpha virt. eigenvalues --   -0.08506  -0.07243  -0.05584  -0.04344  -0.04107
 Alpha virt. eigenvalues --   -0.03742  -0.02813  -0.02432  -0.02073  -0.00679

 Mulliken charges:
               1
     1  N   -0.724112
     2  H    0.422786
     3  H    0.405416
     4  H    0.427368
     5  C   -0.126268
     6  H    0.209692
     7  C    0.636324
     8  C   -0.298312
     9  H    0.129072
    10  H    0.207506
    11  O   -0.528964
    12  C   -0.372687
    13  H    0.216226
    14  H    0.269295
    15  C    0.449463
    16  O   -0.375100
    17  O   -0.606141
    18  N   -0.605987
    19  H    0.371814
    20  C   -0.076235
    21  H    0.195067
    22  C    0.617266
    23  C   -0.341312
    24  H    0.147853
    25  H    0.154696
    26  O   -0.560865
    27  C    0.123229
    28  C   -0.201137
    29  H    0.113972
    30  C   -0.162298
    31  H    0.109685
    32  C   -0.192467
    33  H    0.132059
    34  C   -0.199960
    35  H    0.113379
    36  O   -0.572778
    37  C    0.417498
    38  N   -0.587183
    39  H    0.361998
    40  C   -0.028742
    41  H    0.145866
    42  C    0.526337
    43  C   -0.281077
    44  H    0.135476
    45  H    0.178373
    46  O   -0.596928
    47  C   -0.297816
    48  H    0.133415
    49  H    0.155113
    50  C   -0.294094
    51  H    0.201040
    52  H    0.186032
    53  C   -0.219117
    54  H    0.216191
    55  H    0.217967
    56  N   -0.719821
    57  H    0.421525
    58  H    0.438622
    59  H    0.435630
    60  O   -0.612390
    61  H    0.473732
    62  H    0.484811
 Sum of Mulliken charges =   1.00000

 Dipole moment (field-independent basis, Debye):
    X=             -0.0565    Y=             -6.0045    Z=             22.8894  Tot=             23.6640
 Quadrupole moment (field-independent basis, Debye-Ang):
   XX=             33.1886   YY=            -74.3968   ZZ=           -111.4319
   XY=            158.1685   XZ=            -63.9813   YZ=            -55.0321

 Normal termination of Gaussian 16 at Tue May 24 03:32:57 2022.
