 Gaussian 16, Revision C.01,
 Gaussian 16:  ES64L-G16RevC.01  3-Jul-2019

 -------------------------------------------------------------------
 # B3LYP/6-31G* guess=read geom=check nosymm integral(ultrafinegrid)
 -------------------------------------------------------------------

 ------------------------------------------------------
 Candidate Structure: Conf:746 Charge calc in gas phase
 ------------------------------------------------------
 Structure from the checkpoint file:  "conf-746.chk"
 Charge =  1 Multiplicity = 1

                          Input orientation:
 ---------------------------------------------------------------------
 Center     Atomic      Atomic             Coordinates (Angstroms)
 Number     Number       Type             X           Y           Z
 ---------------------------------------------------------------------
      1          7           0        0.537649   -3.642867    2.975188
      2          1           0        1.434462   -3.387377    3.399682
      3          1           0        0.126564   -4.413322    3.508726
      4          1           0        0.716745   -3.922099    1.960933
      5          6           0       -0.392723   -2.458286    2.797759
      6          1           0       -0.016107   -1.643639    3.421829
      7          6           0       -0.204342   -2.114551    1.291359
      8          6           0       -1.851560   -2.802636    3.137216
      9          1           0       -2.102336   -3.789197    2.726722
     10          1           0       -2.474547   -2.105880    2.571199
     11          8           0        0.339016   -2.964875    0.578589
     12          6           0       -2.225913   -2.691324    4.627936
     13          1           0       -1.640201   -1.898906    5.113689
     14          1           0       -2.017971   -3.605570    5.194155
     15          6           0       -3.688113   -2.331151    4.901180
     16          8           0       -4.178581   -2.330248    6.001872
     17          8           0       -4.355191   -2.000362    3.771572
     18          7           0       -0.723723   -0.945910    0.902135
     19          1           0       -1.025074   -0.331251    1.647567
     20          6           0       -0.368936   -0.278945   -0.353504
     21          1           0       -0.897738    0.679793   -0.321985
     22          6           0        1.162716    0.016681   -0.313918
     23          6           0       -0.854131   -1.045087   -1.613326
     24          1           0       -0.702743   -0.384992   -2.475707
     25          1           0       -0.219647   -1.922235   -1.764030
     26          8           0        1.837619   -0.294011    0.666250
     27          6           0       -2.307226   -1.459254   -1.514746
     28          6           0       -2.641146   -2.783943   -1.194801
     29          1           0       -1.849400   -3.523434   -1.102017
     30          6           0       -3.350417   -0.536095   -1.654194
     31          1           0       -3.131667    0.494370   -1.928026
     32          6           0       -3.960274   -3.172465   -0.988981
     33          1           0       -4.217290   -4.198706   -0.745894
     34          6           0       -4.678983   -0.907188   -1.445800
     35          1           0       -5.474258   -0.173564   -1.561334
     36          8           0       -6.253589   -2.656402   -0.831698
     37          6           0       -4.986384   -2.226271   -1.092767
     38          7           0        1.645271    0.654732   -1.395566
     39          1           0        1.056078    0.896417   -2.184986
     40          6           0        3.037628    1.080065   -1.536647
     41          1           0        3.425542    1.362585   -0.555719
     42          6           0        3.027484    2.267306   -2.497657
     43          6           0        3.881130   -0.074084   -2.158944
     44          1           0        3.630809   -0.971540   -1.581802
     45          1           0        3.490976   -0.242910   -3.170252
     46          8           0        2.261373    2.295479   -3.446977
     47          6           0        5.423885    0.023048   -2.180408
     48          1           0        5.768801   -0.902422   -2.661172
     49          1           0        5.793691   -0.028409   -1.147794
     50          6           0        6.121958    1.229184   -2.852021
     51          1           0        6.008076    2.100458   -2.204316
     52          1           0        7.195659    1.006140   -2.880396
     53          6           0        5.641500    1.611445   -4.273164
     54          1           0        6.328022    1.210625   -5.031093
     55          1           0        4.657418    1.184486   -4.487395
     56          7           0        5.482563    3.085339   -4.401188
     57          1           0        5.145148    3.320787   -5.334057
     58          1           0        6.387215    3.545725   -4.296797
     59          1           0        4.390572    3.456328   -3.134177
     60          8           0        3.975218    3.157226   -2.245645
     61          1           0       -6.869216   -1.907488   -0.866734
     62          1           0       -5.271690   -1.788039    4.034705
 ---------------------------------------------------------------------

 SCF Done:  E(RB3LYP) =  -1526.19028350     A.U. after    2 cycles

 Alpha  occ. eigenvalues --  -19.30685 -19.27697 -19.25764 -19.24360 -19.23774
 Alpha  occ. eigenvalues --  -19.21282 -19.20709 -14.60903 -14.50373 -14.45309
 Alpha  occ. eigenvalues --  -14.41977 -10.44307 -10.43285 -10.41665 -10.38706
 Alpha  occ. eigenvalues --  -10.38645 -10.35334 -10.34806 -10.33634 -10.33210
 Alpha  occ. eigenvalues --  -10.31574 -10.29464 -10.29038 -10.27828 -10.27735
 Alpha  occ. eigenvalues --  -10.27439 -10.27312 -10.26981 -10.26763 -10.26247
 Alpha  occ. eigenvalues --  -10.25446  -1.21331  -1.20124  -1.16087  -1.14712
 Alpha  occ. eigenvalues --   -1.13867  -1.13122  -1.12382  -1.07698  -1.07071
 Alpha  occ. eigenvalues --   -1.01763  -0.97303  -0.95635  -0.93925  -0.90079
 Alpha  occ. eigenvalues --   -0.87832  -0.86967  -0.83538  -0.83130  -0.81773
 Alpha  occ. eigenvalues --   -0.79257  -0.77197  -0.76487  -0.74700  -0.73489
 Alpha  occ. eigenvalues --   -0.72611  -0.72039  -0.71225  -0.70515  -0.69050
 Alpha  occ. eigenvalues --   -0.67795  -0.67148  -0.66312  -0.64298  -0.64210
 Alpha  occ. eigenvalues --   -0.62626  -0.61846  -0.60172  -0.59539  -0.59311
 Alpha  occ. eigenvalues --   -0.58745  -0.58026  -0.57341  -0.57199  -0.56539
 Alpha  occ. eigenvalues --   -0.56052  -0.55160  -0.54944  -0.54366  -0.53852
 Alpha  occ. eigenvalues --   -0.53421  -0.52747  -0.52570  -0.51917  -0.51586
 Alpha  occ. eigenvalues --   -0.51333  -0.50780  -0.50533  -0.50093  -0.49948
 Alpha  occ. eigenvalues --   -0.49469  -0.49239  -0.48788  -0.48317  -0.47245
 Alpha  occ. eigenvalues --   -0.47063  -0.45843  -0.45526  -0.44561  -0.43960
 Alpha  occ. eigenvalues --   -0.43673  -0.42416  -0.42315  -0.41543  -0.41059
 Alpha  occ. eigenvalues --   -0.40838  -0.40643  -0.40155  -0.39899  -0.38015
 Alpha  occ. eigenvalues --   -0.37340  -0.35623  -0.34913  -0.34653  -0.33598
 Alpha  occ. eigenvalues --   -0.33380  -0.30041
 Alpha virt. eigenvalues --   -0.13359  -0.11836  -0.09827  -0.08948  -0.08088
 Alpha virt. eigenvalues --   -0.07211  -0.06980  -0.06762  -0.05944  -0.03508
 Alpha virt. eigenvalues --   -0.02953  -0.02004  -0.00644  -0.00591  -0.00162

 Mulliken charges:
               1
     1  N   -0.755203
     2  H    0.423542
     3  H    0.414095
     4  H    0.435012
     5  C   -0.126762
     6  H    0.217371
     7  C    0.689975
     8  C   -0.313144
     9  H    0.187399
    10  H    0.234585
    11  O   -0.535824
    12  C   -0.386532
    13  H    0.195731
    14  H    0.196466
    15  C    0.593810
    16  O   -0.423914
    17  O   -0.564956
    18  N   -0.568411
    19  H    0.352649
    20  C   -0.090131
    21  H    0.184933
    22  C    0.652075
    23  C   -0.378884
    24  H    0.168656
    25  H    0.189113
    26  O   -0.552352
    27  C    0.176782
    28  C   -0.204066
    29  H    0.138350
    30  C   -0.198670
    31  H    0.134784
    32  C   -0.162255
    33  H    0.148450
    34  C   -0.190910
    35  H    0.137950
    36  O   -0.633850
    37  C    0.352379
    38  N   -0.618157
    39  H    0.356710
    40  C   -0.022025
    41  H    0.184927
    42  C    0.586408
    43  C   -0.278261
    44  H    0.162521
    45  H    0.153464
    46  O   -0.490655
    47  C   -0.271806
    48  H    0.148278
    49  H    0.148829
    50  C   -0.289496
    51  H    0.174937
    52  H    0.148510
    53  C   -0.159067
    54  H    0.155446
    55  H    0.169434
    56  N   -0.772577
    57  H    0.337285
    58  H    0.331239
    59  H    0.452765
    60  O   -0.594635
    61  H    0.415139
    62  H    0.432544
 Sum of Mulliken charges =   1.00000

 Dipole moment (field-independent basis, Debye):
    X=              2.0678    Y=             -8.3508    Z=              5.9719  Tot=             10.4726
 Quadrupole moment (field-independent basis, Debye-Ang):
   XX=           -105.6699   YY=           -135.3543   ZZ=           -131.0187
   XY=              4.8023   XZ=            -26.3330   YZ=            -48.9902

 Normal termination of Gaussian 16 at Tue May 24 03:32:43 2022.
