 Gaussian 16, Revision C.01,
 Gaussian 16:  ES64L-G16RevC.01  3-Jul-2019

 -------------------------------------------------------------------
 # B3LYP/6-31G* guess=read geom=check nosymm integral(ultrafinegrid)
 -------------------------------------------------------------------

 ------------------------------------------------------
 Candidate Structure: Conf:304 Charge calc in gas phase
 ------------------------------------------------------
 Structure from the checkpoint file:  "conf-304.chk"
 Charge =  1 Multiplicity = 1

                          Input orientation:
 ---------------------------------------------------------------------
 Center     Atomic      Atomic             Coordinates (Angstroms)
 Number     Number       Type             X           Y           Z
 ---------------------------------------------------------------------
      1          7           0        1.166545   -1.629755    3.115238
      2          1           0        1.728539   -0.771609    3.010601
      3          1           0        1.096224   -1.863871    4.108655
      4          1           0        1.658976   -2.381885    2.612189
      5          6           0       -0.165134   -1.435177    2.466346
      6          1           0       -0.595863   -0.512167    2.866518
      7          6           0        0.181722   -1.274437    0.987374
      8          6           0       -1.136020   -2.588220    2.738522
      9          1           0       -1.213754   -2.724524    3.824723
     10          1           0       -0.721917   -3.515468    2.324527
     11          8           0        1.116707   -1.922886    0.525805
     12          6           0       -2.529898   -2.341718    2.140574
     13          1           0       -3.156200   -3.229562    2.328547
     14          1           0       -2.475826   -2.186099    1.059648
     15          6           0       -3.195344   -1.141904    2.727500
     16          8           0       -3.492090   -0.072043    2.254807
     17          8           0       -3.730114   -1.439840    4.115472
     18          7           0       -0.530156   -0.349185    0.330039
     19          1           0       -1.302696    0.102304    0.803971
     20          6           0       -0.207886    0.093245   -1.025385
     21          1           0       -0.802619    1.006204   -1.131454
     22          6           0        1.294473    0.453036   -0.946151
     23          6           0       -0.550714   -0.845728   -2.199132
     24          1           0        0.201229   -1.633742   -2.255277
     25          1           0       -1.514788   -1.319188   -1.971243
     26          8           0        2.135718    0.127274   -1.772775
     27          6           0       -0.654227   -0.097672   -3.494238
     28          6           0        0.345668   -0.199445   -4.486512
     29          1           0        1.206108   -0.834334   -4.291410
     30          6           0       -1.755311    0.759231   -3.725125
     31          1           0       -2.521232    0.844188   -2.954241
     32          6           0        0.260359    0.501447   -5.664799
     33          1           0        1.024168    0.427718   -6.431598
     34          6           0       -1.881543    1.474095   -4.889615
     35          1           0       -2.724231    2.131946   -5.074361
     36          8           0       -0.960840    2.032040   -6.996961
     37          6           0       -0.866539    1.386703   -5.935738
     38          7           0        1.558913    1.082424    0.217356
     39          1           0        0.913790    1.032533    1.007392
     40          6           0        2.881930    1.359876    0.706968
     41          1           0        3.567589    0.537240    0.454993
     42          6           0        2.734952    1.356393    2.274402
     43          6           0        3.446677    2.663329    0.127913
     44          1           0        3.253470    2.662480   -0.950408
     45          1           0        2.901207    3.516542    0.549623
     46          8           0        3.768389    1.586825    2.926862
     47          6           0        4.946777    2.808282    0.378062
     48          1           0        5.441263    1.943954   -0.094803
     49          1           0        5.144379    2.733985    1.452580
     50          6           0        5.508955    4.113290   -0.187786
     51          1           0        5.321861    4.167858   -1.269216
     52          1           0        4.984554    4.963830    0.261467
     53          6           0        6.995976    4.296696    0.080561
     54          1           0        7.338926    5.293333   -0.207298
     55          1           0        7.203901    4.173388    1.147041
     56          7           0        7.812456    3.277714   -0.669062
     57          1           0        8.816834    3.373984   -0.489945
     58          1           0        7.663872    3.357559   -1.680448
     59          1           0        7.537136    2.328106   -0.395530
     60          8           0        1.583027    1.048451    2.711388
     61          1           0       -4.289425   -2.278160    4.241544
     62          1           0       -4.283243   -0.666137    4.392980
 ---------------------------------------------------------------------

 SCF Done:  E(RB3LYP) =  -1525.94592918     A.U. after    3 cycles

 Alpha  occ. eigenvalues --  -19.43098 -19.28090 -19.23084 -19.16919 -19.16186
 Alpha  occ. eigenvalues --  -19.13942 -19.11278 -14.63549 -14.56868 -14.46921
 Alpha  occ. eigenvalues --  -14.39435 -10.43714 -10.40166 -10.39846 -10.38009
 Alpha  occ. eigenvalues --  -10.34829 -10.34243 -10.33914 -10.32886 -10.31933
 Alpha  occ. eigenvalues --  -10.30668 -10.28299 -10.27550 -10.25884 -10.25420
 Alpha  occ. eigenvalues --  -10.24620 -10.22864 -10.21950 -10.21320 -10.20526
 Alpha  occ. eigenvalues --  -10.20155  -1.29391  -1.17888  -1.17565  -1.16108
 Alpha  occ. eigenvalues --   -1.11615  -1.09145  -1.08126  -1.03873  -1.00571
 Alpha  occ. eigenvalues --   -1.00004  -0.97094  -0.95371  -0.93513  -0.88557
 Alpha  occ. eigenvalues --   -0.87245  -0.86510  -0.83696  -0.80337  -0.79706
 Alpha  occ. eigenvalues --   -0.78416  -0.76981  -0.76904  -0.76346  -0.75821
 Alpha  occ. eigenvalues --   -0.74870  -0.72961  -0.71681  -0.70317  -0.69145
 Alpha  occ. eigenvalues --   -0.68845  -0.67166  -0.65519  -0.64750  -0.63783
 Alpha  occ. eigenvalues --   -0.63016  -0.62836  -0.62246  -0.60554  -0.59843
 Alpha  occ. eigenvalues --   -0.59178  -0.59118  -0.58472  -0.56612  -0.55949
 Alpha  occ. eigenvalues --   -0.55382  -0.54770  -0.54493  -0.54127  -0.53319
 Alpha  occ. eigenvalues --   -0.52276  -0.51522  -0.51123  -0.50400  -0.49820
 Alpha  occ. eigenvalues --   -0.49602  -0.48887  -0.48637  -0.48133  -0.47355
 Alpha  occ. eigenvalues --   -0.47249  -0.46704  -0.45871  -0.45044  -0.44583
 Alpha  occ. eigenvalues --   -0.44355  -0.43513  -0.43181  -0.42947  -0.42522
 Alpha  occ. eigenvalues --   -0.41897  -0.41325  -0.40599  -0.39945  -0.38410
 Alpha  occ. eigenvalues --   -0.36988  -0.36884  -0.36353  -0.33180  -0.31824
 Alpha  occ. eigenvalues --   -0.31151  -0.30181  -0.30020  -0.27776  -0.27612
 Alpha  occ. eigenvalues --   -0.23710  -0.18931
 Alpha virt. eigenvalues --   -0.17604  -0.13619  -0.13142  -0.09933  -0.07495
 Alpha virt. eigenvalues --   -0.07317  -0.07118  -0.06446  -0.04336  -0.03535
 Alpha virt. eigenvalues --   -0.03431  -0.02622  -0.01971  -0.01395  -0.00929

 Mulliken charges:
               1
     1  N   -0.740487
     2  H    0.442656
     3  H    0.396283
     4  H    0.405364
     5  C   -0.108218
     6  H    0.224180
     7  C    0.633419
     8  C   -0.276265
     9  H    0.155473
    10  H    0.188029
    11  O   -0.520966
    12  C   -0.351127
    13  H    0.169478
    14  H    0.220845
    15  C    0.457373
    16  O   -0.415413
    17  O   -0.576322
    18  N   -0.638926
    19  H    0.358757
    20  C   -0.034186
    21  H    0.181822
    22  C    0.609572
    23  C   -0.349620
    24  H    0.181655
    25  H    0.132454
    26  O   -0.527171
    27  C    0.142896
    28  C   -0.155205
    29  H    0.132954
    30  C   -0.174202
    31  H    0.098377
    32  C   -0.193643
    33  H    0.128524
    34  C   -0.186688
    35  H    0.131150
    36  O   -0.542385
    37  C    0.416374
    38  N   -0.619856
    39  H    0.352849
    40  C   -0.041009
    41  H    0.146529
    42  C    0.568384
    43  C   -0.253535
    44  H    0.163391
    45  H    0.149962
    46  O   -0.557241
    47  C   -0.297819
    48  H    0.102579
    49  H    0.205320
    50  C   -0.292264
    51  H    0.162764
    52  H    0.203749
    53  C   -0.219663
    54  H    0.223011
    55  H    0.231401
    56  N   -0.722419
    57  H    0.428577
    58  H    0.427526
    59  H    0.431780
    60  O   -0.648745
    61  H    0.383708
    62  H    0.454213
 Sum of Mulliken charges =   1.00000

 Dipole moment (field-independent basis, Debye):
    X=             17.6918    Y=              0.2754    Z=             19.5152  Tot=             26.3423
 Quadrupole moment (field-independent basis, Debye-Ang):
   XX=             88.1328   YY=           -117.1318   ZZ=           -205.3534
   XY=            119.0985   XZ=            -77.2548   YZ=            -31.8177

 Normal termination of Gaussian 16 at Tue May 24 03:32:57 2022.
