 Gaussian 16, Revision C.01,
 Gaussian 16:  ES64L-G16RevC.01  3-Jul-2019

 ----------------------------------------------------------------------
 # B3LYP/6-31G* empiricaldispersion=gd3bj guess=read geom=check nosymm
 integral(ultrafinegrid)
 ----------------------------------------------------------------------

 ------------------------------------------------------
 Candidate Structure: Conf:727 Charge calc in gas phase
 ------------------------------------------------------
 Structure from the checkpoint file:  "conf-727.chk"
 Charge =  1 Multiplicity = 1

                          Input orientation:
 ---------------------------------------------------------------------
 Center     Atomic      Atomic             Coordinates (Angstroms)
 Number     Number       Type             X           Y           Z
 ---------------------------------------------------------------------
      1          7           0       -3.258796   12.975658   -8.456351
      2          6           0       -4.129914   11.948334   -9.109242
      3          6           0       -5.137022   11.561525   -8.009965
      4          8           0       -5.405934   12.394953   -7.145489
      5          6           0       -3.286495   10.830027   -9.734147
      6          6           0       -2.241484   11.396363  -10.670191
      7          6           0       -2.602576   11.873543  -11.936684
      8          6           0       -0.909433   11.508492  -10.255957
      9          6           0       -1.649507   12.449761  -12.775399
     10          6           0        0.046378   12.082896  -11.095521
     11          6           0       -0.322341   12.556133  -12.354736
     12          1           0       -2.479870   12.591876   -7.859632
     13          1           0       -4.685175   12.473141   -9.894999
     14          1           0       -3.960962   10.167620  -10.290121
     15          1           0       -2.816376   10.252991   -8.934445
     16          1           0       -3.632457   11.781261  -12.275181
     17          1           0       -0.629239   11.133170   -9.275025
     18          1           0       -1.940517   12.807744  -13.758246
     19          1           0        1.076263   12.160935  -10.763232
     20          1           0        0.421224   13.000206  -13.009408
     21          1           0       -2.806516   13.598431   -9.127357
     22          1           0       -3.862216   13.510020   -7.811195
     23          7           0       -5.668832   10.324569   -8.043004
     24          6           0       -6.520616    9.844362   -6.946169
     25          6           0       -5.820815   10.048419   -5.587865
     26          8           0       -6.456643   10.304908   -4.579022
     27          6           0       -6.897060    8.374599   -7.163492
     28          6           0       -7.678674    8.071851   -8.455948
     29          6           0       -7.974982    6.568866   -8.533725
     30          6           0       -8.967928    8.894596   -8.560049
     31          1           0       -5.393886    9.673997   -8.765241
     32          1           0       -7.416600   10.466472   -6.894591
     33          1           0       -5.983497    7.764332   -7.131189
     34          1           0       -7.500665    8.074988   -6.298783
     35          1           0       -7.044303    8.326113   -9.321201
     36          1           0       -8.625614    6.260077   -7.706747
     37          1           0       -8.483693    6.317814   -9.470162
     38          1           0       -7.056117    5.973952   -8.477359
     39          1           0       -9.614881    8.713474   -7.693121
     40          1           0       -8.770431    9.970683   -8.612754
     41          1           0       -9.529713    8.618609   -9.458383
     42          7           0       -4.460939    9.902407   -5.607119
     43          6           0       -3.656026   10.658029   -4.669183
     44          6           0       -2.441880   11.193780   -5.474161
     45          8           0       -2.346602   10.936590   -6.693127
     46          6           0       -3.295605    9.813194   -3.422178
     47          6           0       -3.101498   10.655188   -2.167879
     48          7           0       -3.599450   10.135623   -1.025255
     49          8           0       -2.506363   11.737764   -2.180740
     50          1           0       -4.007668    9.834611   -6.511754
     51          1           0       -4.242906   11.521739   -4.332868
     52          1           0       -4.109466    9.099124   -3.277308
     53          1           0       -2.380677    9.233110   -3.595635
     54          1           0       -3.517691   10.679391   -0.176087
     55          1           0       -4.197364    9.323141   -1.018486
     56          7           0       -1.582768   11.925214   -4.767647
     57          6           0       -0.303684   12.489439   -5.205143
     58          6           0       -0.408452   13.711201   -6.151403
     59          8           0       -1.002293   13.537609   -7.293840
     60          6           0        0.627968   11.412202   -5.800287
     61          6           0        2.059428   11.929170   -6.090043
     62          6           0        2.391151   12.054560   -7.583573
     63          7           0        1.557848   13.044692   -8.273989
     64          6           0        1.832335   14.350064   -8.398244
     65          7           0        3.093048   14.809239   -8.364706
     66          7           0        0.807705   15.181535   -8.649480
     67          8           0        0.203022   14.730432   -5.822197
     68          1           0       -1.821592   12.039594   -3.771256
     69          1           0        0.156307   12.874182   -4.293052
     70          1           0        0.162029   11.005618   -6.703840
     71          1           0        0.672823   10.587386   -5.081491
     72          1           0        2.215057   12.902592   -5.610888
     73          1           0        2.794189   11.241143   -5.657739
     74          1           0        3.447598   12.300648   -7.723400
     75          1           0        2.232579   11.097556   -8.091328
     76          1           0        0.547166   12.885482   -8.183224
     77          1           0        3.282793   15.799529   -8.377743
     78          1           0        3.880748   14.188020   -8.273921
     79          1           0        0.986488   16.173609   -8.565145
     80          1           0       -0.077378   14.862686   -8.213372
 ---------------------------------------------------------------------

 SCF Done:  E(RB3LYP) =  -1866.81039507     A.U. after    2 cycles

 Alpha  occ. eigenvalues --  -19.23703 -19.21912 -19.20988 -19.19538 -19.19263
 Alpha  occ. eigenvalues --  -19.17675 -14.53766 -14.49852 -14.47966 -14.47861
 Alpha  occ. eigenvalues --  -14.46631 -14.44739 -14.44400 -14.43124 -10.44799
 Alpha  occ. eigenvalues --  -10.40955 -10.38477 -10.38444 -10.37254 -10.36610
 Alpha  occ. eigenvalues --  -10.36021 -10.34065 -10.32467 -10.32401 -10.31388
 Alpha  occ. eigenvalues --  -10.30971 -10.30190 -10.28991 -10.28990 -10.28850
 Alpha  occ. eigenvalues --  -10.28715 -10.28679 -10.28637 -10.28504 -10.27912
 Alpha  occ. eigenvalues --  -10.27746 -10.27601 -10.24837 -10.24730  -1.16265
 Alpha  occ. eigenvalues --   -1.13752  -1.13314  -1.12535  -1.11584  -1.11321
 Alpha  occ. eigenvalues --   -1.09118  -1.04399  -1.03363  -1.02364  -1.01487
 Alpha  occ. eigenvalues --   -1.01180  -1.00478  -0.99502  -0.95899  -0.91182
 Alpha  occ. eigenvalues --   -0.89610  -0.89448  -0.87065  -0.85110  -0.84340
 Alpha  occ. eigenvalues --   -0.83739  -0.82760  -0.78410  -0.77517  -0.76414
 Alpha  occ. eigenvalues --   -0.75891  -0.75256  -0.73440  -0.71186  -0.70707
 Alpha  occ. eigenvalues --   -0.70558  -0.70220  -0.69317  -0.68702  -0.68302
 Alpha  occ. eigenvalues --   -0.67101  -0.66493  -0.66260  -0.65480  -0.64901
 Alpha  occ. eigenvalues --   -0.63783  -0.62844  -0.62370  -0.62153  -0.60991
 Alpha  occ. eigenvalues --   -0.60751  -0.59777  -0.59354  -0.58411  -0.58258
 Alpha  occ. eigenvalues --   -0.58023  -0.56855  -0.55965  -0.55939  -0.55482
 Alpha  occ. eigenvalues --   -0.55342  -0.54431  -0.54083  -0.53646  -0.53572
 Alpha  occ. eigenvalues --   -0.53121  -0.52556  -0.52153  -0.51960  -0.51791
 Alpha  occ. eigenvalues --   -0.51551  -0.51207  -0.50639  -0.50310  -0.49972
 Alpha  occ. eigenvalues --   -0.49831  -0.49047  -0.48408  -0.48059  -0.47408
 Alpha  occ. eigenvalues --   -0.47128  -0.46609  -0.46511  -0.46289  -0.46109
 Alpha  occ. eigenvalues --   -0.45729  -0.45515  -0.44708  -0.44572  -0.44320
 Alpha  occ. eigenvalues --   -0.44209  -0.43888  -0.43430  -0.43275  -0.40910
 Alpha  occ. eigenvalues --   -0.40865  -0.40529  -0.40262  -0.38108  -0.37960
 Alpha  occ. eigenvalues --   -0.37439  -0.37147  -0.36328  -0.35887  -0.35000
 Alpha  occ. eigenvalues --   -0.34949  -0.34522  -0.34391  -0.33854  -0.33026
 Alpha  occ. eigenvalues --   -0.32580  -0.30776
 Alpha virt. eigenvalues --   -0.11022  -0.10166  -0.09767  -0.09461  -0.07640
 Alpha virt. eigenvalues --   -0.06603  -0.06143  -0.05935  -0.04667  -0.04329
 Alpha virt. eigenvalues --   -0.03225  -0.02487  -0.01920  -0.00429   0.00169

 Mulliken charges:
               1
     1  N   -0.774222
     2  C   -0.092116
     3  C    0.659235
     4  O   -0.526398
     5  C   -0.400635
     6  C    0.130529
     7  C   -0.187906
     8  C   -0.205162
     9  C   -0.126127
    10  C   -0.127032
    11  C   -0.125823
    12  H    0.483351
    13  H    0.209624
    14  H    0.169054
    15  H    0.212318
    16  H    0.138264
    17  H    0.151951
    18  H    0.157920
    19  H    0.145392
    20  H    0.153043
    21  H    0.395608
    22  H    0.409815
    23  N   -0.649811
    24  C   -0.022282
    25  C    0.604050
    26  O   -0.508788
    27  C   -0.308001
    28  C   -0.081267
    29  C   -0.443459
    30  C   -0.451624
    31  H    0.352576
    32  H    0.204271
    33  H    0.142549
    34  H    0.181226
    35  H    0.106121
    36  H    0.157226
    37  H    0.158411
    38  H    0.145179
    39  H    0.160206
    40  H    0.146637
    41  H    0.159927
    42  N   -0.611515
    43  C   -0.047908
    44  C    0.603560
    45  O   -0.608681
    46  C   -0.373286
    47  C    0.631264
    48  N   -0.733710
    49  O   -0.530273
    50  H    0.342959
    51  H    0.212086
    52  H    0.187325
    53  H    0.186196
    54  H    0.362669
    55  H    0.358749
    56  N   -0.631676
    57  C   -0.016680
    58  C    0.585947
    59  O   -0.680945
    60  C   -0.312888
    61  C   -0.277485
    62  C   -0.182216
    63  N   -0.609999
    64  C    0.785656
    65  N   -0.762314
    66  N   -0.744418
    67  O   -0.530002
    68  H    0.410889
    69  H    0.175413
    70  H    0.171908
    71  H    0.159495
    72  H    0.182826
    73  H    0.164807
    74  H    0.151505
    75  H    0.183343
    76  H    0.399038
    77  H    0.377004
    78  H    0.377960
    79  H    0.350530
    80  H    0.389037
 Sum of Mulliken charges =   1.00000

 Dipole moment (field-independent basis, Debye):
    X=             -4.7528    Y=             55.7834    Z=            -40.3771  Tot=             69.0267
 Quadrupole moment (field-independent basis, Debye-Ang):
   XX=           -144.8047   YY=            458.9305   ZZ=            162.1066
   XY=             -8.2779   XZ=             43.0209   YZ=           -503.4203

 Normal termination of Gaussian 16 at Sat Jul 16 16:51:47 2022.
