 Gaussian 16, Revision C.01,
 Gaussian 16:  ES64L-G16RevC.01  3-Jul-2019

 ----------------------------------------------------------------------
 # B3LYP/6-31G* empiricaldispersion=gd3bj guess=read geom=check nosymm
 integral(ultrafinegrid)
 ----------------------------------------------------------------------

 ------------------------------------------------------
 Candidate Structure: Conf:962 Charge calc in gas phase
 ------------------------------------------------------
 Structure from the checkpoint file:  "conf-962.chk"
 Charge =  1 Multiplicity = 1

                          Input orientation:
 ---------------------------------------------------------------------
 Center     Atomic      Atomic             Coordinates (Angstroms)
 Number     Number       Type             X           Y           Z
 ---------------------------------------------------------------------
      1          7           0       -1.674210   11.974920   -4.076719
      2          6           0       -1.962247   10.515401   -4.014571
      3          6           0       -0.733645    9.722361   -4.526940
      4          8           0       -0.092812    8.999622   -3.779991
      5          6           0       -3.225665   10.179068   -4.829767
      6          6           0       -4.454431   11.009215   -4.518923
      7          6           0       -4.833991   11.328123   -3.207523
      8          6           0       -5.262062   11.442977   -5.578155
      9          6           0       -5.995657   12.059005   -2.956455
     10          6           0       -6.442207   12.144782   -5.328510
     11          6           0       -6.811930   12.460456   -4.016716
     12          1           0       -2.495907   12.495406   -3.764642
     13          1           0       -2.087048   10.198691   -2.974630
     14          1           0       -3.442535    9.118047   -4.647633
     15          1           0       -3.020921   10.267750   -5.899137
     16          1           0       -4.230502   10.987545   -2.369623
     17          1           0       -4.965431   11.213791   -6.597059
     18          1           0       -6.278369   12.289471   -1.933694
     19          1           0       -7.085114   12.419556   -6.161733
     20          1           0       -7.745627   12.979912   -3.813340
     21          1           0       -0.908105   12.204597   -3.443142
     22          1           0       -1.422809   12.486170   -5.478371
     23          7           0       -0.496487    9.900363   -5.858380
     24          6           0        0.652611    9.403202   -6.632444
     25          6           0        0.316213    9.802422   -8.078794
     26          8           0        0.978163   10.599750   -8.728640
     27          6           0        0.883202    7.893400   -6.460837
     28          6           0        1.911974    7.305080   -7.442313
     29          6           0        3.267456    8.021634   -7.367070
     30          6           0        2.069508    5.803114   -7.177000
     31          1           0       -0.964498   10.689941   -6.286872
     32          1           0        1.556438    9.956609   -6.362271
     33          1           0        1.199571    7.717257   -5.429207
     34          1           0       -0.076412    7.372702   -6.581161
     35          1           0        1.519149    7.428203   -8.462457
     36          1           0        3.199030    9.063676   -7.695669
     37          1           0        3.659671    8.007724   -6.342200
     38          1           0        4.000721    7.522967   -8.009989
     39          1           0        2.476029    5.626124   -6.173695
     40          1           0        1.108380    5.279933   -7.245084
     41          1           0        2.754229    5.347291   -7.900205
     42          7           0       -0.845205    9.236004   -8.551815
     43          6           0       -1.578218    9.893266   -9.630325
     44          6           0       -2.315595   11.081974   -9.001541
     45          8           0       -3.318424   10.913512   -8.300824
     46          6           0       -2.570422    8.935543  -10.280925
     47          6           0       -3.294079    9.631279  -11.430263
     48          7           0       -3.899977    8.807048  -12.322380
     49          8           0       -3.337224   10.854583  -11.520614
     50          1           0       -1.421771    8.774425   -7.857089
     51          1           0       -0.844662   10.237395  -10.359784
     52          1           0       -2.049206    8.033339  -10.617426
     53          1           0       -3.320500    8.635809   -9.537977
     54          1           0       -4.392371    9.218236  -13.103323
     55          1           0       -3.814811    7.802714  -12.280906
     56          7           0       -1.740136   12.294061   -9.159711
     57          6           0       -2.335211   13.461853   -8.529388
     58          6           0       -2.340397   13.306600   -6.996985
     59          8           0       -3.199575   13.795235   -6.261251
     60          6           0       -3.733092   13.771198   -9.121161
     61          6           0       -4.038751   15.257212   -9.361228
     62          6           0       -4.084548   16.127779   -8.098854
     63          7           0       -4.992871   15.590496   -7.083734
     64          6           0       -6.242588   15.939226   -6.850051
     65          7           0       -6.895752   16.832631   -7.622882
     66          7           0       -6.901208   15.409965   -5.796845
     67          8           0       -1.303118   12.657445   -6.531782
     68          1           0       -0.804684   12.341505   -9.541117
     69          1           0       -1.653773   14.296211   -8.739544
     70          1           0       -4.499593   13.320047   -8.487339
     71          1           0       -3.790186   13.253030  -10.081947
     72          1           0       -3.291282   15.691958  -10.037398
     73          1           0       -5.004016   15.327501   -9.878630
     74          1           0       -3.102442   16.170721   -7.619944
     75          1           0       -4.356884   17.161471   -8.334927
     76          1           0       -4.568616   14.793566   -6.583970
     77          1           0       -7.706041   17.312471   -7.257709
     78          1           0       -6.421614   17.278765   -8.393142
     79          1           0       -7.911860   15.412779   -5.805142
     80          1           0       -6.476900   14.641163   -5.284243
 ---------------------------------------------------------------------

 SCF Done:  E(RB3LYP) =  -1866.80923702     A.U. after    1 cycles

 Alpha  occ. eigenvalues --  -19.26620 -19.24232 -19.20905 -19.20336 -19.19619
 Alpha  occ. eigenvalues --  -19.19552 -14.51744 -14.50744 -14.50186 -14.45625
 Alpha  occ. eigenvalues --  -14.45182 -14.44502 -14.43896 -14.43864 -10.47518
 Alpha  occ. eigenvalues --  -10.42059 -10.37656 -10.37445 -10.36963 -10.36861
 Alpha  occ. eigenvalues --  -10.35469 -10.34090 -10.32416 -10.32111 -10.30743
 Alpha  occ. eigenvalues --  -10.30269 -10.29140 -10.28818 -10.28759 -10.28513
 Alpha  occ. eigenvalues --  -10.28489 -10.28459 -10.28324 -10.28310 -10.27747
 Alpha  occ. eigenvalues --  -10.24835 -10.24735 -10.22524 -10.22373  -1.19381
 Alpha  occ. eigenvalues --   -1.16066  -1.13127  -1.12032  -1.11340  -1.11313
 Alpha  occ. eigenvalues --   -1.10313  -1.05307  -1.04306  -1.02168  -1.01972
 Alpha  occ. eigenvalues --   -1.01324  -0.99725  -0.98629  -0.94930  -0.91124
 Alpha  occ. eigenvalues --   -0.88448  -0.87536  -0.86699  -0.85395  -0.83821
 Alpha  occ. eigenvalues --   -0.82899  -0.80921  -0.80245  -0.77820  -0.76039
 Alpha  occ. eigenvalues --   -0.74396  -0.73897  -0.73543  -0.72469  -0.72253
 Alpha  occ. eigenvalues --   -0.70239  -0.69903  -0.69178  -0.67406  -0.67293
 Alpha  occ. eigenvalues --   -0.66403  -0.66029  -0.65279  -0.64919  -0.63847
 Alpha  occ. eigenvalues --   -0.63639  -0.62723  -0.61850  -0.61431  -0.61153
 Alpha  occ. eigenvalues --   -0.60665  -0.59901  -0.59550  -0.58810  -0.58474
 Alpha  occ. eigenvalues --   -0.58115  -0.57724  -0.56640  -0.55467  -0.55310
 Alpha  occ. eigenvalues --   -0.54816  -0.54502  -0.53458  -0.53378  -0.53242
 Alpha  occ. eigenvalues --   -0.52753  -0.52555  -0.52022  -0.51365  -0.51020
 Alpha  occ. eigenvalues --   -0.50639  -0.50153  -0.49762  -0.49416  -0.48983
 Alpha  occ. eigenvalues --   -0.48815  -0.48394  -0.47944  -0.47297  -0.47009
 Alpha  occ. eigenvalues --   -0.46832  -0.46713  -0.46114  -0.45481  -0.45409
 Alpha  occ. eigenvalues --   -0.45065  -0.44676  -0.44505  -0.44317  -0.44002
 Alpha  occ. eigenvalues --   -0.43303  -0.42993  -0.42873  -0.42609  -0.42191
 Alpha  occ. eigenvalues --   -0.40864  -0.39913  -0.39010  -0.38723  -0.38473
 Alpha  occ. eigenvalues --   -0.38075  -0.37874  -0.36472  -0.35064  -0.34601
 Alpha  occ. eigenvalues --   -0.34480  -0.34252  -0.33869  -0.33795  -0.33490
 Alpha  occ. eigenvalues --   -0.32391  -0.32118
 Alpha virt. eigenvalues --   -0.11596  -0.10120  -0.09990  -0.09165  -0.07817
 Alpha virt. eigenvalues --   -0.07712  -0.06742  -0.06024  -0.05308  -0.04748
 Alpha virt. eigenvalues --   -0.01811  -0.01620  -0.00728  -0.00180   0.00093

 Mulliken charges:
               1
     1  N   -0.805947
     2  C   -0.089252
     3  C    0.609450
     4  O   -0.491705
     5  C   -0.382564
     6  C    0.146701
     7  C   -0.195218
     8  C   -0.181079
     9  C   -0.125225
    10  C   -0.176155
    11  C   -0.158261
    12  H    0.355832
    13  H    0.178445
    14  H    0.187671
    15  H    0.184391
    16  H    0.147231
    17  H    0.193274
    18  H    0.154628
    19  H    0.132783
    20  H    0.135836
    21  H    0.354614
    22  H    0.478883
    23  N   -0.689258
    24  C   -0.010583
    25  C    0.563518
    26  O   -0.514467
    27  C   -0.270612
    28  C   -0.083842
    29  C   -0.461215
    30  C   -0.444100
    31  H    0.388421
    32  H    0.184912
    33  H    0.189673
    34  H    0.123244
    35  H    0.130925
    36  H    0.161846
    37  H    0.146792
    38  H    0.152622
    39  H    0.151424
    40  H    0.138718
    41  H    0.151217
    42  N   -0.585206
    43  C   -0.049817
    44  C    0.673910
    45  O   -0.571004
    46  C   -0.394877
    47  C    0.634736
    48  N   -0.755043
    49  O   -0.519092
    50  H    0.342181
    51  H    0.191583
    52  H    0.177636
    53  H    0.193106
    54  H    0.354394
    55  H    0.349667
    56  N   -0.590299
    57  C   -0.043040
    58  C    0.642867
    59  O   -0.551415
    60  C   -0.290969
    61  C   -0.283108
    62  C   -0.187253
    63  N   -0.597669
    64  C    0.788236
    65  N   -0.756666
    66  N   -0.765758
    67  O   -0.611260
    68  H    0.363669
    69  H    0.178540
    70  H    0.167125
    71  H    0.213398
    72  H    0.168844
    73  H    0.152997
    74  H    0.194115
    75  H    0.163473
    76  H    0.421834
    77  H    0.378501
    78  H    0.381938
    79  H    0.367169
    80  H    0.388988
 Sum of Mulliken charges =   1.00000

 Dipole moment (field-independent basis, Debye):
    X=            -25.5361    Y=             67.0900    Z=            -35.7785  Tot=             80.2076
 Quadrupole moment (field-independent basis, Debye-Ang):
   XX=            -69.9642   YY=            779.9719   ZZ=             78.9369
   XY=           -380.8278   XZ=            183.2146   YZ=           -475.3905

 Normal termination of Gaussian 16 at Sat Jul 16 16:52:07 2022.
