 Gaussian 16, Revision C.01,
 Gaussian 16:  ES64L-G16RevC.01  3-Jul-2019

 ----------------------------------------------------------------------
 # B3LYP/6-31G* empiricaldispersion=gd3bj guess=read geom=check nosymm
 integral(ultrafinegrid)
 ----------------------------------------------------------------------

 ------------------------------------------------------
 Candidate Structure: Conf:669 Charge calc in gas phase
 ------------------------------------------------------
 Structure from the checkpoint file:  "conf-669.chk"
 Charge =  1 Multiplicity = 1

                          Input orientation:
 ---------------------------------------------------------------------
 Center     Atomic      Atomic             Coordinates (Angstroms)
 Number     Number       Type             X           Y           Z
 ---------------------------------------------------------------------
      1          7           0       -2.160200   13.649332   -6.936937
      2          6           0       -2.353718   13.785990   -8.415173
      3          6           0       -3.825380   13.389193   -8.638108
      4          8           0       -4.618664   13.544054   -7.709910
      5          6           0       -1.277034   13.012452   -9.185751
      6          6           0        0.109063   13.415679   -8.732492
      7          6           0        0.645471   14.657407   -9.097105
      8          6           0        0.848219   12.577217   -7.891077
      9          6           0        1.898260   15.053122   -8.630531
     10          6           0        2.103935   12.970456   -7.425392
     11          6           0        2.629446   14.209307   -7.791977
     12          1           0       -3.064356   13.892679   -6.500242
     13          1           0       -2.266445   14.855916   -8.636196
     14          1           0       -1.396724   13.236441  -10.252778
     15          1           0       -1.436662   11.942183   -9.036629
     16          1           0        0.087065   15.313378   -9.761751
     17          1           0        0.433265   11.611852   -7.613458
     18          1           0        2.306453   16.014401   -8.927457
     19          1           0        2.667658   12.308386   -6.776513
     20          1           0        3.607214   14.514803   -7.432355
     21          1           0       -1.927486   12.679541   -6.590058
     22          1           0       -1.414158   14.248357   -6.580267
     23          7           0       -4.171808   12.886858   -9.838464
     24          6           0       -5.523527   12.357076  -10.079200
     25          6           0       -5.921392   11.383907   -8.952897
     26          8           0       -7.064917   11.325514   -8.529512
     27          6           0       -5.562068   11.702443  -11.467537
     28          6           0       -6.901586   11.039491  -11.835083
     29          6           0       -8.078606   12.019132  -11.747473
     30          6           0       -6.794086   10.422757  -13.234936
     31          1           0       -3.469296   12.754675  -10.552954
     32          1           0       -6.240678   13.178006  -10.018019
     33          1           0       -5.327150   12.473649  -12.215170
     34          1           0       -4.763863   10.948034  -11.520361
     35          1           0       -7.083225   10.228840  -11.117000
     36          1           0       -7.897427   12.908216  -12.365612
     37          1           0       -8.995534   11.544983  -12.112869
     38          1           0       -8.260307   12.336863  -10.717064
     39          1           0       -6.632817   11.198677  -13.993826
     40          1           0       -5.963421    9.710015  -13.300662
     41          1           0       -7.714789    9.890888  -13.495689
     42          7           0       -4.906469   10.593750   -8.488182
     43          6           0       -4.935044   10.153747   -7.107742
     44          6           0       -3.496040   10.350532   -6.560243
     45          8           0       -2.611402   10.824789   -7.302340
     46          6           0       -5.492684    8.714214   -6.984242
     47          6           0       -6.189473    8.456340   -5.654574
     48          7           0       -7.316491    7.714601   -5.712730
     49          8           0       -5.746271    8.876304   -4.580706
     50          1           0       -3.962655   10.822247   -8.782618
     51          1           0       -5.601701   10.823271   -6.550647
     52          1           0       -6.191077    8.572229   -7.812262
     53          1           0       -4.691539    7.974343   -7.104817
     54          1           0       -7.824093    7.545799   -4.854081
     55          1           0       -7.758657    7.472937   -6.586615
     56          7           0       -3.330835    9.995621   -5.286865
     57          6           0       -2.086008    9.956278   -4.516125
     58          6           0       -1.527091   11.335922   -4.089676
     59          8           0       -1.196464   12.169985   -5.030767
     60          6           0       -0.999150    9.116033   -5.220049
     61          6           0        0.258164    8.878934   -4.346473
     62          6           0        1.507396    9.630133   -4.827348
     63          7           0        1.357431   11.087869   -4.764473
     64          6           0        1.647047   11.860277   -3.708966
     65          7           0        2.554635   11.487291   -2.793442
     66          7           0        1.061682   13.067384   -3.640036
     67          8           0       -1.296112   11.503240   -2.890157
     68          1           0       -4.173847    9.627588   -4.821891
     69          1           0       -2.353310    9.457550   -3.582631
     70          1           0       -0.739805    9.600442   -6.167049
     71          1           0       -1.451588    8.153973   -5.482254
     72          1           0        0.055968    9.159690   -3.306387
     73          1           0        0.509336    7.812607   -4.344186
     74          1           0        2.385427    9.325049   -4.251026
     75          1           0        1.726252    9.378878   -5.870233
     76          1           0        0.548353   11.453582   -5.280642
     77          1           0        2.719272   12.046522   -1.970654
     78          1           0        3.083615   10.635311   -2.888063
     79          1           0        1.135405   13.566903   -2.763481
     80          1           0        0.115034   13.073620   -4.061939
 ---------------------------------------------------------------------

 SCF Done:  E(RB3LYP) =  -1866.81130376     A.U. after    2 cycles

 Alpha  occ. eigenvalues --  -19.23753 -19.21839 -19.21040 -19.19748 -19.19440
 Alpha  occ. eigenvalues --  -19.17812 -14.53731 -14.49917 -14.48032 -14.47920
 Alpha  occ. eigenvalues --  -14.46718 -14.44806 -14.44371 -14.43233 -10.44863
 Alpha  occ. eigenvalues --  -10.40994 -10.38506 -10.38432 -10.37260 -10.36755
 Alpha  occ. eigenvalues --  -10.36150 -10.34096 -10.32509 -10.32472 -10.31340
 Alpha  occ. eigenvalues --  -10.31028 -10.30154 -10.28973 -10.28954 -10.28930
 Alpha  occ. eigenvalues --  -10.28681 -10.28680 -10.28661 -10.28480 -10.27938
 Alpha  occ. eigenvalues --  -10.27817 -10.26265 -10.23935 -10.23334  -1.16307
 Alpha  occ. eigenvalues --   -1.13821  -1.13304  -1.12584  -1.11732  -1.11453
 Alpha  occ. eigenvalues --   -1.09085  -1.04422  -1.03436  -1.02482  -1.01500
 Alpha  occ. eigenvalues --   -1.01231  -1.00567  -0.99564  -0.95873  -0.91083
 Alpha  occ. eigenvalues --   -0.89606  -0.89165  -0.86973  -0.84984  -0.84312
 Alpha  occ. eigenvalues --   -0.83772  -0.82340  -0.78453  -0.77436  -0.76503
 Alpha  occ. eigenvalues --   -0.75354  -0.74758  -0.73320  -0.71103  -0.70744
 Alpha  occ. eigenvalues --   -0.70542  -0.70260  -0.69263  -0.68693  -0.68337
 Alpha  occ. eigenvalues --   -0.67175  -0.66559  -0.66202  -0.65505  -0.64084
 Alpha  occ. eigenvalues --   -0.63482  -0.63196  -0.62308  -0.62083  -0.61021
 Alpha  occ. eigenvalues --   -0.60802  -0.59953  -0.59309  -0.58440  -0.58132
 Alpha  occ. eigenvalues --   -0.57887  -0.56966  -0.56045  -0.55948  -0.55534
 Alpha  occ. eigenvalues --   -0.55314  -0.54416  -0.54020  -0.53643  -0.53525
 Alpha  occ. eigenvalues --   -0.52974  -0.52583  -0.52079  -0.51872  -0.51769
 Alpha  occ. eigenvalues --   -0.51251  -0.50784  -0.50479  -0.50169  -0.50026
 Alpha  occ. eigenvalues --   -0.49772  -0.49322  -0.48699  -0.48027  -0.47552
 Alpha  occ. eigenvalues --   -0.47245  -0.46638  -0.46308  -0.46153  -0.45728
 Alpha  occ. eigenvalues --   -0.45507  -0.44746  -0.44651  -0.44313  -0.44254
 Alpha  occ. eigenvalues --   -0.43854  -0.43847  -0.43451  -0.42954  -0.40354
 Alpha  occ. eigenvalues --   -0.40331  -0.39748  -0.39500  -0.38104  -0.37911
 Alpha  occ. eigenvalues --   -0.37496  -0.37160  -0.36306  -0.35931  -0.35013
 Alpha  occ. eigenvalues --   -0.35000  -0.34594  -0.34410  -0.33998  -0.33160
 Alpha  occ. eigenvalues --   -0.32712  -0.30875
 Alpha virt. eigenvalues --   -0.11043  -0.10119  -0.09733  -0.09488  -0.07584
 Alpha virt. eigenvalues --   -0.06667  -0.06271  -0.06072  -0.04780  -0.04242
 Alpha virt. eigenvalues --   -0.02760  -0.02478  -0.01977  -0.00577   0.00100

 Mulliken charges:
               1
     1  N   -0.775326
     2  C   -0.092092
     3  C    0.663410
     4  O   -0.528211
     5  C   -0.400350
     6  C    0.131455
     7  C   -0.189559
     8  C   -0.202028
     9  C   -0.126296
    10  C   -0.126626
    11  C   -0.125826
    12  H    0.409761
    13  H    0.209533
    14  H    0.168765
    15  H    0.213652
    16  H    0.138162
    17  H    0.149811
    18  H    0.157779
    19  H    0.144881
    20  H    0.152783
    21  H    0.483196
    22  H    0.394670
    23  N   -0.654984
    24  C   -0.013701
    25  C    0.617176
    26  O   -0.513756
    27  C   -0.309316
    28  C   -0.077895
    29  C   -0.462908
    30  C   -0.446021
    31  H    0.349834
    32  H    0.205122
    33  H    0.151302
    34  H    0.138439
    35  H    0.145674
    36  H    0.138621
    37  H    0.156681
    38  H    0.176531
    39  H    0.147008
    40  H    0.140955
    41  H    0.159124
    42  N   -0.609655
    43  C   -0.049942
    44  C    0.602601
    45  O   -0.605113
    46  C   -0.373242
    47  C    0.631579
    48  N   -0.733978
    49  O   -0.529871
    50  H    0.343308
    51  H    0.213080
    52  H    0.185565
    53  H    0.186472
    54  H    0.362802
    55  H    0.358232
    56  N   -0.633377
    57  C   -0.016119
    58  C    0.585712
    59  O   -0.681736
    60  C   -0.312224
    61  C   -0.277649
    62  C   -0.182102
    63  N   -0.611002
    64  C    0.785337
    65  N   -0.762410
    66  N   -0.743595
    67  O   -0.528414
    68  H    0.410363
    69  H    0.175356
    70  H    0.171904
    71  H    0.159220
    72  H    0.182434
    73  H    0.164997
    74  H    0.151601
    75  H    0.183994
    76  H    0.401424
    77  H    0.377094
    78  H    0.378213
    79  H    0.350809
    80  H    0.388902
 Sum of Mulliken charges =   1.00000

 Dipole moment (field-independent basis, Debye):
    X=             -2.3481    Y=             55.1384    Z=            -32.9600  Tot=             64.2816
 Quadrupole moment (field-independent basis, Debye-Ang):
   XX=           -161.3291   YY=            455.5983   ZZ=             48.5144
   XY=              2.4145   XZ=             67.9800   YZ=           -389.5419

 Normal termination of Gaussian 16 at Sat Jul 16 16:51:47 2022.
