 Gaussian 16, Revision C.01,
 Gaussian 16:  ES64L-G16RevC.01  3-Jul-2019

 ----------------------------------------------------------------------
 # B3LYP/6-31G* empiricaldispersion=gd3bj guess=read geom=check nosymm
 integral(ultrafinegrid)
 ----------------------------------------------------------------------

 ------------------------------------------------------
 Candidate Structure: Conf:121 Charge calc in gas phase
 ------------------------------------------------------
 Structure from the checkpoint file:  "conf-121.chk"
 Charge =  1 Multiplicity = 1

                          Input orientation:
 ---------------------------------------------------------------------
 Center     Atomic      Atomic             Coordinates (Angstroms)
 Number     Number       Type             X           Y           Z
 ---------------------------------------------------------------------
      1          7           0       -2.714515   10.130565   -8.603979
      2          6           0       -2.356589    8.923458   -7.803109
      3          6           0       -3.538081    8.796286   -6.815803
      4          8           0       -4.668294    9.033098   -7.228361
      5          6           0       -0.955728    9.110256   -7.196774
      6          6           0        0.068900    9.509343   -8.236915
      7          6           0        0.658560    8.550253   -9.070003
      8          6           0        0.396891   10.859564   -8.412570
      9          6           0        1.566189    8.932286  -10.057107
     10          6           0        1.307969   11.241853   -9.397809
     11          6           0        1.894013   10.280159  -10.220933
     12          1           0       -2.086026   10.344615   -9.384789
     13          1           0       -2.370592    8.062614   -8.478754
     14          1           0       -0.663154    8.167518   -6.719825
     15          1           0       -1.007277    9.880982   -6.420879
     16          1           0        0.416878    7.498119   -8.937401
     17          1           0       -0.072551   11.611106   -7.784089
     18          1           0        2.024952    8.178179  -10.689424
     19          1           0        1.561617   12.291249   -9.511426
     20          1           0        2.612857   10.574865  -10.980144
     21          1           0       -3.684240   10.111724   -8.947010
     22          1           0       -2.677616   10.970290   -7.979354
     23          7           0       -3.266134    8.514485   -5.521408
     24          6           0       -4.324490    8.592915   -4.508178
     25          6           0       -4.993104    9.983398   -4.506031
     26          8           0       -6.170377   10.117851   -4.213663
     27          6           0       -3.768185    8.250475   -3.121299
     28          6           0       -3.164398    6.840714   -2.977924
     29          6           0       -2.646731    6.649208   -1.546798
     30          6           0       -4.163875    5.741127   -3.354683
     31          1           0       -2.320454    8.319362   -5.225675
     32          1           0       -5.126720    7.903800   -4.779921
     33          1           0       -3.018684    9.004479   -2.841604
     34          1           0       -4.598351    8.361126   -2.413972
     35          1           0       -2.298298    6.756742   -3.654715
     36          1           0       -3.472645    6.699601   -0.827075
     37          1           0       -2.163498    5.673405   -1.432158
     38          1           0       -1.918144    7.421902   -1.275379
     39          1           0       -5.069841    5.813157   -2.740648
     40          1           0       -4.465379    5.797172   -4.406110
     41          1           0       -3.727378    4.750614   -3.189620
     42          7           0       -4.173747   11.034263   -4.815227
     43          6           0       -4.743762   12.235760   -5.394928
     44          6           0       -3.759283   12.701682   -6.487307
     45          8           0       -2.700512   12.054096   -6.687732
     46          6           0       -5.085261   13.288725   -4.313989
     47          6           0       -6.223051   14.215382   -4.725111
     48          7           0       -7.083575   14.558959   -3.742012
     49          8           0       -6.346746   14.652049   -5.873689
     50          1           0       -3.252712   10.828175   -5.183513
     51          1           0       -5.677368   11.959761   -5.901232
     52          1           0       -5.355157   12.736430   -3.410994
     53          1           0       -4.206707   13.899956   -4.072943
     54          1           0       -7.873412   15.144253   -3.980800
     55          1           0       -7.078824   14.106429   -2.840349
     56          7           0       -4.116393   13.755687   -7.206199
     57          6           0       -3.406115   14.178963   -8.418413
     58          6           0       -3.182515   12.917581   -9.324739
     59          8           0       -1.989669   12.672907   -9.744952
     60          6           0       -2.159922   15.017410   -8.080176
     61          6           0       -1.712119   15.962253   -9.227677
     62          6           0       -0.253109   15.777369   -9.665708
     63          7           0       -0.091629   14.422916  -10.205740
     64          6           0        0.164236   14.117284  -11.474562
     65          7           0        0.986271   14.865947  -12.238591
     66          7           0       -0.397054   13.013827  -11.989499
     67          8           0       -4.170566   12.203526   -9.522533
     68          1           0       -5.007605   14.201397   -6.946181
     69          1           0       -4.122845   14.810165   -8.954064
     70          1           0       -1.355191   14.338876   -7.777729
     71          1           0       -2.396143   15.618468   -7.197072
     72          1           0       -2.347943   15.815981  -10.109961
     73          1           0       -1.843697   17.005911   -8.923291
     74          1           0        0.010959   16.516500  -10.428953
     75          1           0        0.428699   15.912438   -8.819065
     76          1           0       -0.751204   13.728073   -9.777199
     77          1           0        0.955889   14.800037  -13.245090
     78          1           0        1.497254   15.636164  -11.835270
     79          1           0        0.022846   12.529101  -12.768675
     80          1           0       -1.107723   12.547398  -11.412586
 ---------------------------------------------------------------------

 SCF Done:  E(RB3LYP) =  -1866.81560032     A.U. after    2 cycles

 Alpha  occ. eigenvalues --  -19.22629 -19.22432 -19.20925 -19.19635 -19.19230
 Alpha  occ. eigenvalues --  -19.17444 -14.52011 -14.49995 -14.48072 -14.47172
 Alpha  occ. eigenvalues --  -14.47060 -14.44685 -14.44634 -14.43172 -10.45051
 Alpha  occ. eigenvalues --  -10.39916 -10.38848 -10.38402 -10.36493 -10.36354
 Alpha  occ. eigenvalues --  -10.36330 -10.33748 -10.32594 -10.31892 -10.31514
 Alpha  occ. eigenvalues --  -10.31210 -10.29880 -10.29040 -10.28850 -10.28732
 Alpha  occ. eigenvalues --  -10.28562 -10.28524 -10.28494 -10.28460 -10.27896
 Alpha  occ. eigenvalues --  -10.27317 -10.27177 -10.24423 -10.24401  -1.15172
 Alpha  occ. eigenvalues --   -1.14072  -1.13770  -1.12504  -1.11767  -1.11153
 Alpha  occ. eigenvalues --   -1.07866  -1.03666  -1.03510  -1.02509  -1.01795
 Alpha  occ. eigenvalues --   -1.01539  -1.00315  -0.99417  -0.95555  -0.90581
 Alpha  occ. eigenvalues --   -0.89594  -0.89042  -0.87083  -0.84685  -0.84048
 Alpha  occ. eigenvalues --   -0.83709  -0.82317  -0.78375  -0.76936  -0.76377
 Alpha  occ. eigenvalues --   -0.75510  -0.75261  -0.73112  -0.70680  -0.70594
 Alpha  occ. eigenvalues --   -0.70537  -0.70039  -0.68816  -0.68309  -0.67578
 Alpha  occ. eigenvalues --   -0.67370  -0.67176  -0.66014  -0.65544  -0.64377
 Alpha  occ. eigenvalues --   -0.63805  -0.62856  -0.62562  -0.62343  -0.61639
 Alpha  occ. eigenvalues --   -0.60498  -0.60214  -0.59206  -0.58720  -0.58008
 Alpha  occ. eigenvalues --   -0.57307  -0.56559  -0.56213  -0.55514  -0.55410
 Alpha  occ. eigenvalues --   -0.55021  -0.54305  -0.53721  -0.53462  -0.53085
 Alpha  occ. eigenvalues --   -0.52649  -0.52331  -0.51799  -0.51603  -0.51488
 Alpha  occ. eigenvalues --   -0.51091  -0.50927  -0.50293  -0.50154  -0.49840
 Alpha  occ. eigenvalues --   -0.49474  -0.48747  -0.48445  -0.48116  -0.47661
 Alpha  occ. eigenvalues --   -0.47226  -0.46709  -0.46228  -0.46089  -0.45817
 Alpha  occ. eigenvalues --   -0.45431  -0.45137  -0.44696  -0.44488  -0.44277
 Alpha  occ. eigenvalues --   -0.44027  -0.43888  -0.43620  -0.43065  -0.40534
 Alpha  occ. eigenvalues --   -0.40518  -0.40429  -0.40132  -0.37821  -0.37371
 Alpha  occ. eigenvalues --   -0.36918  -0.36630  -0.36532  -0.35821  -0.34928
 Alpha  occ. eigenvalues --   -0.34822  -0.34295  -0.34122  -0.33974  -0.33203
 Alpha  occ. eigenvalues --   -0.32337  -0.31626
 Alpha virt. eigenvalues --   -0.10409  -0.10072  -0.09836  -0.09323  -0.08462
 Alpha virt. eigenvalues --   -0.06522  -0.05768  -0.05526  -0.04496  -0.03260
 Alpha virt. eigenvalues --   -0.01982  -0.01277  -0.00349  -0.00239   0.00315

 Mulliken charges:
               1
     1  N   -0.789728
     2  C   -0.081588
     3  C    0.629610
     4  O   -0.503556
     5  C   -0.403006
     6  C    0.125186
     7  C   -0.179812
     8  C   -0.188209
     9  C   -0.128008
    10  C   -0.135927
    11  C   -0.135973
    12  H    0.399595
    13  H    0.210536
    14  H    0.176489
    15  H    0.187610
    16  H    0.140766
    17  H    0.163089
    18  H    0.155229
    19  H    0.140964
    20  H    0.141353
    21  H    0.426344
    22  H    0.473839
    23  N   -0.649112
    24  C   -0.021425
    25  C    0.609795
    26  O   -0.511569
    27  C   -0.306856
    28  C   -0.079710
    29  C   -0.443284
    30  C   -0.451978
    31  H    0.351393
    32  H    0.205432
    33  H    0.139632
    34  H    0.179891
    35  H    0.106925
    36  H    0.156215
    37  H    0.157565
    38  H    0.144002
    39  H    0.159192
    40  H    0.148847
    41  H    0.158692
    42  N   -0.618703
    43  C   -0.047065
    44  C    0.615132
    45  O   -0.624780
    46  C   -0.373835
    47  C    0.631841
    48  N   -0.733693
    49  O   -0.532129
    50  H    0.344181
    51  H    0.221202
    52  H    0.190155
    53  H    0.187195
    54  H    0.362271
    55  H    0.358693
    56  N   -0.598353
    57  C   -0.039593
    58  C    0.584984
    59  O   -0.660030
    60  C   -0.287629
    61  C   -0.284981
    62  C   -0.170447
    63  N   -0.618058
    64  C    0.762141
    65  N   -0.752812
    66  N   -0.770535
    67  O   -0.549339
    68  H    0.408317
    69  H    0.174793
    70  H    0.166992
    71  H    0.161399
    72  H    0.160864
    73  H    0.170860
    74  H    0.154118
    75  H    0.181437
    76  H    0.432538
    77  H    0.373662
    78  H    0.376365
    79  H    0.358189
    80  H    0.406203
 Sum of Mulliken charges =   1.00000

 Dipole moment (field-independent basis, Debye):
    X=             -2.3007    Y=             60.1499    Z=            -40.5295  Tot=             72.5668
 Quadrupole moment (field-independent basis, Debye-Ang):
   XX=           -216.4845   YY=            597.8607   ZZ=            205.4228
   XY=            -34.2688   XZ=            -35.7773   YZ=           -531.6057

 Normal termination of Gaussian 16 at Sat Jul 16 16:51:47 2022.
