 Gaussian 16, Revision C.01,
 Gaussian 16:  ES64L-G16RevC.01  3-Jul-2019

 ----------------------------------------------------------------------
 # B3LYP/6-31G* empiricaldispersion=gd3bj guess=read geom=check nosymm
 integral(ultrafinegrid)
 ----------------------------------------------------------------------

 -----------------------------------------------------
 Candidate Structure: Conf:60 Charge calc in gas phase
 -----------------------------------------------------
 Structure from the checkpoint file:  "conf-60.chk"
 Charge =  1 Multiplicity = 1

                          Input orientation:
 ---------------------------------------------------------------------
 Center     Atomic      Atomic             Coordinates (Angstroms)
 Number     Number       Type             X           Y           Z
 ---------------------------------------------------------------------
      1          7           0       -1.408295    9.898094   -7.385157
      2          6           0       -2.301853    8.885133   -8.020048
      3          6           0       -2.948994    9.653732   -9.191482
      4          8           0       -2.274672   10.480387   -9.796765
      5          6           0       -3.247552    8.305711   -6.953992
      6          6           0       -2.489201    7.736917   -5.774192
      7          6           0       -2.045164    6.409181   -5.787938
      8          6           0       -2.168986    8.553646   -4.680872
      9          6           0       -1.296888    5.901977   -4.726586
     10          6           0       -1.412828    8.046971   -3.623114
     11          6           0       -0.978150    6.721549   -3.641977
     12          1           0       -2.003457   10.639761   -6.950373
     13          1           0       -1.665154    8.094757   -8.430708
     14          1           0       -3.846863    7.516900   -7.423018
     15          1           0       -3.927842    9.097013   -6.621217
     16          1           0       -2.294975    5.766064   -6.628908
     17          1           0       -2.494479    9.590384   -4.659887
     18          1           0       -0.966466    4.867811   -4.744479
     19          1           0       -1.168945    8.690896   -2.783650
     20          1           0       -0.396364    6.326213   -2.814816
     21          1           0       -0.816020    9.535465   -6.631978
     22          1           0       -0.830930   10.405031   -8.069737
     23          7           0       -4.252674    9.417822   -9.463040
     24          6           0       -4.962712   10.217790  -10.465909
     25          6           0       -4.917890   11.720779  -10.125708
     26          8           0       -4.929286   12.565894  -11.005023
     27          6           0       -6.410962    9.736001  -10.611843
     28          6           0       -6.581211    8.271020  -11.055863
     29          6           0       -8.074974    7.935691  -11.150531
     30          6           0       -5.865699    7.979981  -12.379990
     31          1           0       -4.767911    8.727493   -8.936114
     32          1           0       -4.435268   10.136757  -11.418579
     33          1           0       -6.937803    9.898324   -9.660761
     34          1           0       -6.888090   10.394214  -11.347195
     35          1           0       -6.145059    7.615261  -10.284773
     36          1           0       -8.559810    8.545033  -11.922782
     37          1           0       -8.224514    6.883301  -11.413197
     38          1           0       -8.590739    8.124408  -10.201897
     39          1           0       -6.229288    8.645712  -13.172238
     40          1           0       -4.781042    8.110956  -12.302595
     41          1           0       -6.050969    6.949237  -12.699645
     42          7           0       -4.909337   12.022946   -8.788915
     43          6           0       -4.319306   13.271074   -8.345815
     44          6           0       -3.324746   12.908430   -7.219434
     45          8           0       -3.297306   11.739536   -6.774126
     46          6           0       -5.392296   14.308934   -7.941849
     47          6           0       -4.919250   15.750309   -8.094600
     48          7           0       -5.881898   16.651536   -8.390688
     49          8           0       -3.742732   16.091423   -7.938449
     50          1           0       -4.723804   11.262896   -8.144549
     51          1           0       -3.748981   13.686304   -9.183789
     52          1           0       -6.264293   14.131768   -8.577414
     53          1           0       -5.716111   14.154198   -6.904602
     54          1           0       -5.611298   17.616604   -8.526384
     55          1           0       -6.821782   16.378095   -8.634902
     56          7           0       -2.522812   13.887199   -6.813642
     57          6           0       -1.415442   13.750225   -5.861371
     58          6           0       -0.670785   12.402735   -6.094939
     59          8           0       -0.710661   11.521084   -5.190761
     60          6           0       -1.842044   14.002925   -4.405491
     61          6           0       -0.740015   14.606584   -3.509263
     62          6           0        0.344145   13.660596   -2.967898
     63          7           0        1.187295   13.037921   -3.998592
     64          6           0        2.108148   13.660487   -4.735075
     65          7           0        2.775693   14.719600   -4.230795
     66          7           0        2.375151   13.224100   -5.971725
     67          8           0       -0.015825   12.322490   -7.171387
     68          1           0       -2.710267   14.809720   -7.226977
     69          1           0       -0.706218   14.528681   -6.164889
     70          1           0       -2.222497   13.068359   -3.981914
     71          1           0       -2.670367   14.719943   -4.422215
     72          1           0       -0.254674   15.439517   -4.037065
     73          1           0       -1.219193   15.047489   -2.626433
     74          1           0        0.972990   14.192860   -2.246279
     75          1           0       -0.113538   12.828285   -2.428386
     76          1           0        0.741985   12.213474   -4.422707
     77          1           0        3.431772   15.234033   -4.798799
     78          1           0        2.818428   14.864831   -3.233206
     79          1           0        3.170128   13.589414   -6.476345
     80          1           0        1.632716   12.749063   -6.516639
 ---------------------------------------------------------------------

 SCF Done:  E(RB3LYP) =  -1866.81282349     A.U. after    2 cycles

 Alpha  occ. eigenvalues --  -19.22401 -19.22179 -19.21282 -19.19064 -19.18627
 Alpha  occ. eigenvalues --  -19.18484 -14.51882 -14.50068 -14.48027 -14.47680
 Alpha  occ. eigenvalues --  -14.46887 -14.44965 -14.44878 -14.43051 -10.45318
 Alpha  occ. eigenvalues --  -10.39652 -10.38777 -10.38758 -10.36755 -10.36195
 Alpha  occ. eigenvalues --  -10.35929 -10.33567 -10.32395 -10.31688 -10.31405
 Alpha  occ. eigenvalues --  -10.30559 -10.29104 -10.28819 -10.28779 -10.27534
 Alpha  occ. eigenvalues --  -10.27247 -10.27242 -10.27187 -10.27164 -10.27112
 Alpha  occ. eigenvalues --  -10.27024 -10.26983 -10.24281 -10.24226  -1.14903
 Alpha  occ. eigenvalues --   -1.14056  -1.13768  -1.12821  -1.12036  -1.11028
 Alpha  occ. eigenvalues --   -1.07683  -1.03619  -1.03281  -1.02691  -1.01887
 Alpha  occ. eigenvalues --   -1.01548  -1.00196  -0.99738  -0.94385  -0.90121
 Alpha  occ. eigenvalues --   -0.89346  -0.88573  -0.87070  -0.84144  -0.83701
 Alpha  occ. eigenvalues --   -0.82755  -0.81831  -0.78867  -0.76674  -0.76164
 Alpha  occ. eigenvalues --   -0.75344  -0.74934  -0.72916  -0.70977  -0.70152
 Alpha  occ. eigenvalues --   -0.70031  -0.69110  -0.68992  -0.67783  -0.67407
 Alpha  occ. eigenvalues --   -0.66986  -0.66628  -0.65832  -0.65421  -0.64180
 Alpha  occ. eigenvalues --   -0.63926  -0.63055  -0.62749  -0.62259  -0.61039
 Alpha  occ. eigenvalues --   -0.59934  -0.59423  -0.58961  -0.58473  -0.57603
 Alpha  occ. eigenvalues --   -0.57074  -0.56467  -0.55513  -0.55300  -0.54554
 Alpha  occ. eigenvalues --   -0.54362  -0.54090  -0.53639  -0.53519  -0.53070
 Alpha  occ. eigenvalues --   -0.52773  -0.52190  -0.51972  -0.51686  -0.51238
 Alpha  occ. eigenvalues --   -0.50561  -0.50264  -0.50208  -0.49648  -0.49312
 Alpha  occ. eigenvalues --   -0.49058  -0.48719  -0.48445  -0.47940  -0.47323
 Alpha  occ. eigenvalues --   -0.46868  -0.46502  -0.46203  -0.45722  -0.45636
 Alpha  occ. eigenvalues --   -0.45339  -0.44962  -0.44636  -0.44290  -0.44068
 Alpha  occ. eigenvalues --   -0.43193  -0.42987  -0.42776  -0.42365  -0.40752
 Alpha  occ. eigenvalues --   -0.40331  -0.40241  -0.39939  -0.37800  -0.37271
 Alpha  occ. eigenvalues --   -0.36668  -0.36365  -0.36279  -0.35831  -0.35172
 Alpha  occ. eigenvalues --   -0.34796  -0.33687  -0.33363  -0.33001  -0.32755
 Alpha  occ. eigenvalues --   -0.32165  -0.32143
 Alpha virt. eigenvalues --   -0.10179  -0.09344  -0.08844  -0.08608  -0.07989
 Alpha virt. eigenvalues --   -0.06842  -0.06548  -0.05662  -0.05309  -0.03049
 Alpha virt. eigenvalues --   -0.02727  -0.00618  -0.00300   0.00523   0.00643

 Mulliken charges:
               1
     1  N   -0.787980
     2  C   -0.086608
     3  C    0.639334
     4  O   -0.510910
     5  C   -0.403860
     6  C    0.133622
     7  C   -0.179251
     8  C   -0.206351
     9  C   -0.127295
    10  C   -0.126524
    11  C   -0.125475
    12  H    0.480915
    13  H    0.210912
    14  H    0.169842
    15  H    0.192558
    16  H    0.134611
    17  H    0.169572
    18  H    0.153025
    19  H    0.144414
    20  H    0.150578
    21  H    0.403905
    22  H    0.420738
    23  N   -0.651819
    24  C   -0.021501
    25  C    0.604791
    26  O   -0.505712
    27  C   -0.306634
    28  C   -0.078867
    29  C   -0.443312
    30  C   -0.451854
    31  H    0.351481
    32  H    0.203913
    33  H    0.139846
    34  H    0.179904
    35  H    0.107346
    36  H    0.155677
    37  H    0.157320
    38  H    0.144367
    39  H    0.158739
    40  H    0.147970
    41  H    0.158343
    42  N   -0.612745
    43  C   -0.056129
    44  C    0.622475
    45  O   -0.612604
    46  C   -0.377090
    47  C    0.633155
    48  N   -0.735621
    49  O   -0.533937
    50  H    0.345027
    51  H    0.218237
    52  H    0.189657
    53  H    0.190134
    54  H    0.361599
    55  H    0.357080
    56  N   -0.617348
    57  C    0.012316
    58  C    0.539920
    59  O   -0.611569
    60  C   -0.268969
    61  C   -0.281277
    62  C   -0.161989
    63  N   -0.602450
    64  C    0.774657
    65  N   -0.757401
    66  N   -0.779244
    67  O   -0.600988
    68  H    0.402576
    69  H    0.146295
    70  H    0.176158
    71  H    0.151093
    72  H    0.147942
    73  H    0.165706
    74  H    0.154850
    75  H    0.192972
    76  H    0.398180
    77  H    0.372003
    78  H    0.377952
    79  H    0.357592
    80  H    0.422013
 Sum of Mulliken charges =   1.00000

 Dipole moment (field-independent basis, Debye):
    X=             -6.4392    Y=             58.6104    Z=            -27.2055  Tot=             64.9367
 Quadrupole moment (field-independent basis, Debye-Ang):
   XX=           -120.8047   YY=            569.2437   ZZ=            -56.3323
   XY=            -58.5095   XZ=             79.0963   YZ=           -306.0561

 Normal termination of Gaussian 16 at Sat Jul 16 16:54:46 2022.
