 Gaussian 16, Revision C.01,
 Gaussian 16:  ES64L-G16RevC.01  3-Jul-2019

 ----------------------------------------------------------------------
 # B3LYP/6-31G* empiricaldispersion=gd3bj guess=read geom=check nosymm
 integral(ultrafinegrid)
 ----------------------------------------------------------------------

 ------------------------------------------------------
 Candidate Structure: Conf:217 Charge calc in gas phase
 ------------------------------------------------------
 Structure from the checkpoint file:  "conf-217.chk"
 Charge =  1 Multiplicity = 1

                          Input orientation:
 ---------------------------------------------------------------------
 Center     Atomic      Atomic             Coordinates (Angstroms)
 Number     Number       Type             X           Y           Z
 ---------------------------------------------------------------------
      1          7           0       -1.122976   12.243786   -8.174758
      2          6           0       -0.173131   12.508175   -7.054407
      3          6           0       -0.139494   11.171877   -6.283085
      4          8           0       -0.209920   10.124478   -6.917431
      5          6           0       -0.638421   13.753022   -6.279389
      6          6           0       -0.801527   14.955060   -7.184414
      7          6           0        0.284451   15.798128   -7.449185
      8          6           0       -2.027955   15.200759   -7.817309
      9          6           0        0.149226   16.871903   -8.328038
     10          6           0       -2.159464   16.270940   -8.703167
     11          6           0       -1.074031   17.109324   -8.958046
     12          1           0       -1.203881   13.003695   -8.857102
     13          1           0        0.814528   12.682976   -7.493356
     14          1           0        0.107264   13.971199   -5.506268
     15          1           0       -1.586430   13.522198   -5.781662
     16          1           0        1.237975   15.619389   -6.957177
     17          1           0       -2.877794   14.548693   -7.633378
     18          1           0        0.996198   17.524310   -8.517770
     19          1           0       -3.113966   16.448451   -9.189206
     20          1           0       -1.179663   17.946311   -9.641605
     21          1           0       -0.929447   11.357633   -8.660853
     22          1           0       -2.080387   12.114521   -7.774726
     23          7           0       -0.089030   11.219131   -4.932454
     24          6           0       -0.200964    9.992027   -4.137880
     25          6           0       -1.515005    9.242920   -4.436090
     26          8           0       -1.580263    8.027988   -4.350790
     27          6           0       -0.081033   10.306780   -2.642061
     28          6           0        1.241888   10.964700   -2.206877
     29          6           0        1.211640   11.223024   -0.695234
     30          6           0        2.463012   10.124802   -2.598518
     31          1           0       -0.032452   12.106407   -4.453714
     32          1           0        0.584862    9.299692   -4.446932
     33          1           0       -0.926599   10.942433   -2.343029
     34          1           0       -0.204018    9.356135   -2.110304
     35          1           0        1.330618   11.943382   -2.706081
     36          1           0        1.147196   10.277886   -0.142704
     37          1           0        2.119707   11.739747   -0.367680
     38          1           0        0.350434   11.837845   -0.409160
     39          1           0        2.397131    9.118916   -2.166184
     40          1           0        2.561822   10.018039   -3.684089
     41          1           0        3.383749   10.587224   -2.227915
     42          7           0       -2.587099   10.035402   -4.753734
     43          6           0       -3.654738    9.493027   -5.571182
     44          6           0       -3.881207   10.502136   -6.719995
     45          8           0       -3.298002   11.608714   -6.692437
     46          6           0       -4.919405    9.176355   -4.739216
     47          6           0       -5.773679    8.069125   -5.346528
     48          7           0       -6.463534    7.313851   -4.463248
     49          8           0       -5.858449    7.877191   -6.563467
     50          1           0       -2.396132   11.006992   -4.970093
     51          1           0       -3.296417    8.554481   -6.007830
     52          1           0       -4.581270    8.883901   -3.741310
     53          1           0       -5.541877   10.071919   -4.616164
     54          1           0       -7.024366    6.550790   -4.818499
     55          1           0       -6.318428    7.379092   -3.467017
     56          7           0       -4.679400   10.096716   -7.701985
     57          6           0       -4.932237   10.816832   -8.954749
     58          6           0       -3.620736   11.484389   -9.463574
     59          8           0       -3.555145   12.745598   -9.501044
     60          6           0       -6.141254   11.763436   -8.869717
     61          6           0       -6.904066   11.950565  -10.198372
     62          6           0       -6.302252   12.902433  -11.244920
     63          7           0       -4.996551   12.486067  -11.776736
     64          6           0       -4.779216   11.456151  -12.595316
     65          7           0       -5.730471   11.078503  -13.475162
     66          7           0       -3.610493   10.805900  -12.547788
     67          8           0       -2.727598   10.689473   -9.869354
     68          1           0       -5.137275    9.188702   -7.550643
     69          1           0       -5.151724   10.023042   -9.677831
     70          1           0       -5.807924   12.726404   -8.470803
     71          1           0       -6.848801   11.334645   -8.151364
     72          1           0       -7.072682   10.969628  -10.664445
     73          1           0       -7.899484   12.350406   -9.968905
     74          1           0       -7.010476   13.041995  -12.068631
     75          1           0       -6.133900   13.889314  -10.807920
     76          1           0       -4.219440   12.750967  -11.157410
     77          1           0       -5.599681   10.266437  -14.059257
     78          1           0       -6.461610   11.721753  -13.739366
     79          1           0       -3.379407   10.128189  -13.260106
     80          1           0       -3.082405   10.770741  -11.656851
 ---------------------------------------------------------------------

 SCF Done:  E(RB3LYP) =  -1866.81281454     A.U. after    3 cycles

 Alpha  occ. eigenvalues --  -19.22406 -19.22176 -19.21280 -19.19066 -19.18627
 Alpha  occ. eigenvalues --  -19.18484 -14.51869 -14.50073 -14.48031 -14.47687
 Alpha  occ. eigenvalues --  -14.46885 -14.44965 -14.44880 -14.43056 -10.45322
 Alpha  occ. eigenvalues --  -10.39648 -10.38781 -10.38756 -10.36753 -10.36198
 Alpha  occ. eigenvalues --  -10.35925 -10.33567 -10.32399 -10.31689 -10.31404
 Alpha  occ. eigenvalues --  -10.30560 -10.29102 -10.28818 -10.28780 -10.27533
 Alpha  occ. eigenvalues --  -10.27243 -10.27242 -10.27186 -10.27163 -10.27114
 Alpha  occ. eigenvalues --  -10.27023 -10.26987 -10.24284 -10.24229  -1.14901
 Alpha  occ. eigenvalues --   -1.14060  -1.13772  -1.12820  -1.12036  -1.11030
 Alpha  occ. eigenvalues --   -1.07677  -1.03620  -1.03281  -1.02696  -1.01890
 Alpha  occ. eigenvalues --   -1.01551  -1.00198  -0.99737  -0.94384  -0.90121
 Alpha  occ. eigenvalues --   -0.89346  -0.88572  -0.87071  -0.84145  -0.83701
 Alpha  occ. eigenvalues --   -0.82755  -0.81831  -0.78869  -0.76676  -0.76163
 Alpha  occ. eigenvalues --   -0.75347  -0.74934  -0.72919  -0.70979  -0.70152
 Alpha  occ. eigenvalues --   -0.70031  -0.69110  -0.68992  -0.67778  -0.67410
 Alpha  occ. eigenvalues --   -0.66984  -0.66629  -0.65833  -0.65420  -0.64179
 Alpha  occ. eigenvalues --   -0.63927  -0.63056  -0.62750  -0.62262  -0.61039
 Alpha  occ. eigenvalues --   -0.59939  -0.59423  -0.58962  -0.58475  -0.57601
 Alpha  occ. eigenvalues --   -0.57071  -0.56468  -0.55513  -0.55303  -0.54553
 Alpha  occ. eigenvalues --   -0.54361  -0.54090  -0.53640  -0.53520  -0.53069
 Alpha  occ. eigenvalues --   -0.52772  -0.52190  -0.51972  -0.51687  -0.51239
 Alpha  occ. eigenvalues --   -0.50558  -0.50263  -0.50207  -0.49645  -0.49311
 Alpha  occ. eigenvalues --   -0.49057  -0.48719  -0.48448  -0.47943  -0.47325
 Alpha  occ. eigenvalues --   -0.46871  -0.46503  -0.46206  -0.45725  -0.45637
 Alpha  occ. eigenvalues --   -0.45338  -0.44962  -0.44635  -0.44290  -0.44067
 Alpha  occ. eigenvalues --   -0.43190  -0.42989  -0.42775  -0.42365  -0.40759
 Alpha  occ. eigenvalues --   -0.40333  -0.40245  -0.39942  -0.37804  -0.37270
 Alpha  occ. eigenvalues --   -0.36668  -0.36368  -0.36277  -0.35834  -0.35171
 Alpha  occ. eigenvalues --   -0.34795  -0.33687  -0.33362  -0.33001  -0.32754
 Alpha  occ. eigenvalues --   -0.32167  -0.32145
 Alpha virt. eigenvalues --   -0.10186  -0.09340  -0.08847  -0.08608  -0.07999
 Alpha virt. eigenvalues --   -0.06841  -0.06551  -0.05660  -0.05311  -0.03049
 Alpha virt. eigenvalues --   -0.02731  -0.00616  -0.00296   0.00520   0.00645

 Mulliken charges:
               1
     1  N   -0.788193
     2  C   -0.086458
     3  C    0.639090
     4  O   -0.510817
     5  C   -0.403895
     6  C    0.133721
     7  C   -0.179234
     8  C   -0.206546
     9  C   -0.127282
    10  C   -0.126478
    11  C   -0.125461
    12  H    0.403955
    13  H    0.210894
    14  H    0.169900
    15  H    0.192390
    16  H    0.134640
    17  H    0.169592
    18  H    0.153024
    19  H    0.144407
    20  H    0.150572
    21  H    0.420707
    22  H    0.480830
    23  N   -0.651768
    24  C   -0.021563
    25  C    0.604837
    26  O   -0.505771
    27  C   -0.306579
    28  C   -0.078929
    29  C   -0.443311
    30  C   -0.451838
    31  H    0.351517
    32  H    0.203928
    33  H    0.139876
    34  H    0.179898
    35  H    0.107307
    36  H    0.155691
    37  H    0.157320
    38  H    0.144397
    39  H    0.158743
    40  H    0.147973
    41  H    0.158339
    42  N   -0.612811
    43  C   -0.055967
    44  C    0.622422
    45  O   -0.612631
    46  C   -0.377067
    47  C    0.633180
    48  N   -0.735601
    49  O   -0.533941
    50  H    0.345007
    51  H    0.218255
    52  H    0.189608
    53  H    0.190171
    54  H    0.361600
    55  H    0.357106
    56  N   -0.617368
    57  C    0.012332
    58  C    0.540112
    59  O   -0.611637
    60  C   -0.268794
    61  C   -0.281367
    62  C   -0.161877
    63  N   -0.602225
    64  C    0.774414
    65  N   -0.757239
    66  N   -0.779123
    67  O   -0.601131
    68  H    0.402596
    69  H    0.146226
    70  H    0.176198
    71  H    0.151053
    72  H    0.147933
    73  H    0.165708
    74  H    0.154868
    75  H    0.193032
    76  H    0.397990
    77  H    0.371990
    78  H    0.377948
    79  H    0.357591
    80  H    0.422013
 Sum of Mulliken charges =   1.00000

 Dipole moment (field-independent basis, Debye):
    X=            -18.7174    Y=             57.5460    Z=            -42.6377  Tot=             74.0261
 Quadrupole moment (field-independent basis, Debye-Ang):
   XX=            -93.1738   YY=            479.9187   ZZ=            268.3613
   XY=           -190.0521   XZ=            198.3542   YZ=           -515.8401

 Normal termination of Gaussian 16 at Sat Jul 16 16:52:06 2022.
