 Gaussian 16, Revision C.01,
 Gaussian 16:  ES64L-G16RevC.01  3-Jul-2019

 ----------------------------------------------------------------------
 # B3LYP/6-31G* empiricaldispersion=gd3bj guess=read geom=check nosymm
 integral(ultrafinegrid)
 ----------------------------------------------------------------------

 ------------------------------------------------------
 Candidate Structure: Conf:472 Charge calc in gas phase
 ------------------------------------------------------
 Structure from the checkpoint file:  "conf-472.chk"
 Charge =  1 Multiplicity = 1

                          Input orientation:
 ---------------------------------------------------------------------
 Center     Atomic      Atomic             Coordinates (Angstroms)
 Number     Number       Type             X           Y           Z
 ---------------------------------------------------------------------
      1          7           0       -2.959528    9.379203   -6.852229
      2          6           0       -3.515426    8.931107   -8.162753
      3          6           0       -2.552855    9.553534   -9.196540
      4          8           0       -1.360520    9.629874   -8.919188
      5          6           0       -4.996396    9.338723   -8.249316
      6          6           0       -5.798431    8.810015   -7.079764
      7          6           0       -6.372468    7.533988   -7.130374
      8          6           0       -5.922565    9.569473   -5.908185
      9          6           0       -7.062927    7.024304   -6.031696
     10          6           0       -6.606734    9.054597   -4.806286
     11          6           0       -7.180057    7.784298   -4.866189
     12          1           0       -3.078691   10.415372   -6.778945
     13          1           0       -3.419400    7.841380   -8.207043
     14          1           0       -5.404939    8.942128   -9.185881
     15          1           0       -5.057414   10.431652   -8.287724
     16          1           0       -6.287508    6.940316   -8.037879
     17          1           0       -5.471912   10.556525   -5.846925
     18          1           0       -7.511945    6.037213   -6.086682
     19          1           0       -6.692873    9.651834   -3.903669
     20          1           0       -7.718807    7.387790   -4.010914
     21          1           0       -3.426063    8.983926   -6.030113
     22          1           0       -1.943481    9.234169   -6.780147
     23          7           0       -3.080875   10.040616  -10.342088
     24          6           0       -2.250463   10.778464  -11.302192
     25          6           0       -1.538097   11.963460  -10.622035
     26          8           0       -0.417433   12.311748  -10.957504
     27          6           0       -3.131792   11.228896  -12.477336
     28          6           0       -2.413779   12.062301  -13.553441
     29          6           0       -1.202920   11.329272  -14.144147
     30          6           0       -3.417050   12.448799  -14.647030
     31          1           0       -4.071117    9.957840  -10.524201
     32          1           0       -1.447382   10.125132  -11.648921
     33          1           0       -3.555699   10.329338  -12.946157
     34          1           0       -3.974438   11.811246  -12.077291
     35          1           0       -2.051118   12.984156  -13.080081
     36          1           0       -0.778600   11.903655  -14.974378
     37          1           0       -0.413963   11.194787  -13.399250
     38          1           0       -1.491649   10.345234  -14.536234
     39          1           0       -2.945260   13.093412  -15.395803
     40          1           0       -3.793763   11.558374  -15.165924
     41          1           0       -4.278813   12.986780  -14.234206
     42          7           0       -2.270472   12.613710   -9.662593
     43          6           0       -1.578215   13.343724   -8.618071
     44          6           0       -2.134454   12.824307   -7.272927
     45          8           0       -3.118631   12.052010   -7.269156
     46          6           0       -1.693828   14.874419   -8.807885
     47          6           0       -0.525614   15.643450   -8.200581
     48          7           0       -0.199130   16.796914   -8.824578
     49          8           0        0.077226   15.262518   -7.192528
     50          1           0       -3.096723   12.139311   -9.315589
     51          1           0       -0.517697   13.076110   -8.675013
     52          1           0       -1.747117   15.061653   -9.883979
     53          1           0       -2.626846   15.253879   -8.371732
     54          1           0        0.583959   17.330190   -8.470488
     55          1           0       -0.604038   17.067859   -9.707955
     56          7           0       -1.486923   13.225180   -6.183761
     57          6           0       -1.742327   12.766105   -4.814081
     58          6           0       -2.052424   11.240361   -4.808594
     59          8           0       -3.207202   10.856069   -4.468993
     60          6           0       -2.775537   13.632183   -4.074236
     61          6           0       -2.562399   13.722883   -2.548268
     62          6           0       -3.021812   12.535705   -1.686307
     63          7           0       -2.314477   11.274143   -1.949143
     64          6           0       -1.046630   11.008939   -1.632469
     65          7           0       -0.484064   11.586772   -0.550244
     66          7           0       -0.338373   10.159577   -2.386034
     67          8           0       -1.080035   10.486097   -5.090518
     68          1           0       -0.736062   13.908768   -6.344638
     69          1           0       -0.771467   12.865650   -4.315529
     70          1           0       -3.778375   13.261726   -4.307959
     71          1           0       -2.698643   14.651053   -4.469891
     72          1           0       -1.502975   13.926516   -2.338355
     73          1           0       -3.116141   14.593643   -2.176054
     74          1           0       -2.936855   12.794032   -0.625382
     75          1           0       -4.076334   12.318538   -1.870828
     76          1           0       -2.698527   10.772198   -2.760372
     77          1           0        0.490406   11.439484   -0.334727
     78          1           0       -1.064873   11.965786    0.182663
     79          1           0        0.565122    9.836182   -2.071077
     80          1           0       -0.564274   10.060590   -3.392453
 ---------------------------------------------------------------------

 SCF Done:  E(RB3LYP) =  -1866.81358437     A.U. after    3 cycles

 Alpha  occ. eigenvalues --  -19.22440 -19.22206 -19.21373 -19.19340 -19.18665
 Alpha  occ. eigenvalues --  -19.18515 -14.51901 -14.50098 -14.48058 -14.47713
 Alpha  occ. eigenvalues --  -14.46949 -14.45074 -14.44922 -14.43248 -10.45348
 Alpha  occ. eigenvalues --  -10.39681 -10.38860 -10.38822 -10.36783 -10.36407
 Alpha  occ. eigenvalues --  -10.35945 -10.33593 -10.32460 -10.31845 -10.31441
 Alpha  occ. eigenvalues --  -10.30567 -10.29238 -10.28852 -10.28777 -10.27529
 Alpha  occ. eigenvalues --  -10.27283 -10.27248 -10.27238 -10.27182 -10.27161
 Alpha  occ. eigenvalues --  -10.27023 -10.25779 -10.23551 -10.22884  -1.14940
 Alpha  occ. eigenvalues --   -1.14085  -1.13801  -1.12916  -1.12082  -1.11242
 Alpha  occ. eigenvalues --   -1.07704  -1.03652  -1.03317  -1.02724  -1.01926
 Alpha  occ. eigenvalues --   -1.01585  -1.00343  -0.99843  -0.94383  -0.90016
 Alpha  occ. eigenvalues --   -0.89379  -0.88355  -0.87056  -0.84020  -0.83707
 Alpha  occ. eigenvalues --   -0.82748  -0.81504  -0.78917  -0.76761  -0.76116
 Alpha  occ. eigenvalues --   -0.75015  -0.74332  -0.72858  -0.71007  -0.70189
 Alpha  occ. eigenvalues --   -0.69985  -0.69122  -0.69038  -0.67800  -0.67468
 Alpha  occ. eigenvalues --   -0.67000  -0.66659  -0.65917  -0.65448  -0.64177
 Alpha  occ. eigenvalues --   -0.63188  -0.63059  -0.62507  -0.62354  -0.61284
 Alpha  occ. eigenvalues --   -0.59960  -0.59452  -0.58989  -0.58563  -0.57697
 Alpha  occ. eigenvalues --   -0.56808  -0.56549  -0.55585  -0.55343  -0.54633
 Alpha  occ. eigenvalues --   -0.54387  -0.54091  -0.53645  -0.53538  -0.52938
 Alpha  occ. eigenvalues --   -0.52779  -0.52230  -0.51972  -0.51614  -0.50805
 Alpha  occ. eigenvalues --   -0.50282  -0.50264  -0.49950  -0.49556  -0.49454
 Alpha  occ. eigenvalues --   -0.49255  -0.48811  -0.48491  -0.47947  -0.47641
 Alpha  occ. eigenvalues --   -0.47074  -0.46649  -0.46113  -0.45593  -0.45283
 Alpha  occ. eigenvalues --   -0.45146  -0.44610  -0.44303  -0.44104  -0.43541
 Alpha  occ. eigenvalues --   -0.43221  -0.42815  -0.42666  -0.42362  -0.40781
 Alpha  occ. eigenvalues --   -0.39826  -0.39243  -0.39023  -0.37833  -0.37278
 Alpha  occ. eigenvalues --   -0.36745  -0.36414  -0.36258  -0.35907  -0.35241
 Alpha  occ. eigenvalues --   -0.34832  -0.33850  -0.33380  -0.33005  -0.32808
 Alpha  occ. eigenvalues --   -0.32371  -0.32181
 Alpha virt. eigenvalues --   -0.10213  -0.09351  -0.08844  -0.08606  -0.08023
 Alpha virt. eigenvalues --   -0.06935  -0.06590  -0.05721  -0.05574  -0.02758
 Alpha virt. eigenvalues --   -0.02419  -0.00775  -0.00168   0.00490   0.00601

 Mulliken charges:
               1
     1  N   -0.787843
     2  C   -0.086780
     3  C    0.643028
     4  O   -0.511516
     5  C   -0.403213
     6  C    0.133215
     7  C   -0.179325
     8  C   -0.205909
     9  C   -0.127255
    10  C   -0.126545
    11  C   -0.125481
    12  H    0.480302
    13  H    0.211289
    14  H    0.170104
    15  H    0.192108
    16  H    0.134881
    17  H    0.169397
    18  H    0.153120
    19  H    0.144081
    20  H    0.150536
    21  H    0.404209
    22  H    0.420690
    23  N   -0.658113
    24  C   -0.012333
    25  C    0.617743
    26  O   -0.508889
    27  C   -0.307984
    28  C   -0.077199
    29  C   -0.461613
    30  C   -0.445793
    31  H    0.348884
    32  H    0.204395
    33  H    0.151216
    34  H    0.136831
    35  H    0.144722
    36  H    0.154852
    37  H    0.176740
    38  H    0.137935
    39  H    0.157495
    40  H    0.146674
    41  H    0.139818
    42  N   -0.610630
    43  C   -0.059338
    44  C    0.622903
    45  O   -0.612280
    46  C   -0.377474
    47  C    0.633592
    48  N   -0.735814
    49  O   -0.533293
    50  H    0.344802
    51  H    0.220309
    52  H    0.187716
    53  H    0.190588
    54  H    0.361914
    55  H    0.356836
    56  N   -0.617349
    57  C    0.011965
    58  C    0.539938
    59  O   -0.611285
    60  C   -0.268649
    61  C   -0.281388
    62  C   -0.161841
    63  N   -0.602231
    64  C    0.774587
    65  N   -0.757320
    66  N   -0.779178
    67  O   -0.601052
    68  H    0.402752
    69  H    0.146310
    70  H    0.176272
    71  H    0.150655
    72  H    0.147904
    73  H    0.165717
    74  H    0.154950
    75  H    0.193074
    76  H    0.398001
    77  H    0.372059
    78  H    0.378009
    79  H    0.357705
    80  H    0.422089
 Sum of Mulliken charges =   1.00000

 Dipole moment (field-independent basis, Debye):
    X=            -12.9473    Y=             56.3251    Z=            -23.9278  Tot=             62.5515
 Quadrupole moment (field-independent basis, Debye-Ang):
   XX=           -173.9758   YY=            493.9787   ZZ=              4.7763
   XY=           -129.5728   XZ=            103.8969   YZ=           -290.2378

 Normal termination of Gaussian 16 at Sat Jul 16 16:52:06 2022.
