 Gaussian 16, Revision C.01,
 Gaussian 16:  ES64L-G16RevC.01  3-Jul-2019

 ----------------------------------------------------------------------
 # B3LYP/6-31G* empiricaldispersion=gd3bj guess=read geom=check nosymm
 integral(ultrafinegrid)
 ----------------------------------------------------------------------

 ------------------------------------------------------
 Candidate Structure: Conf:950 Charge calc in gas phase
 ------------------------------------------------------
 Structure from the checkpoint file:  "conf-950.chk"
 Charge =  1 Multiplicity = 1

                          Input orientation:
 ---------------------------------------------------------------------
 Center     Atomic      Atomic             Coordinates (Angstroms)
 Number     Number       Type             X           Y           Z
 ---------------------------------------------------------------------
      1          7           0       -0.828618   14.322696   -7.251947
      2          6           0       -1.256937   13.975322   -5.852312
      3          6           0       -0.265843   12.871915   -5.427602
      4          8           0        0.924825   13.094161   -5.629117
      5          6           0       -2.766846   13.729528   -5.774647
      6          6           0       -3.541469   14.989823   -6.100956
      7          6           0       -3.874658   15.890097   -5.080519
      8          6           0       -3.883026   15.310927   -7.423065
      9          6           0       -4.536210   17.082910   -5.368459
     10          6           0       -4.541732   16.509088   -7.711023
     11          6           0       -4.870375   17.397058   -6.687255
     12          1           0       -1.272477   15.187196   -7.573748
     13          1           0       -1.005582   14.842553   -5.232102
     14          1           0       -2.985572   13.426315   -4.745204
     15          1           0       -3.044706   12.892358   -6.419165
     16          1           0       -3.620474   15.650053   -4.050621
     17          1           0       -3.641163   14.626626   -8.232673
     18          1           0       -4.792706   17.765546   -4.563820
     19          1           0       -4.800716   16.744522   -8.739707
     20          1           0       -5.385189   18.326164   -6.912487
     21          1           0        0.195710   14.410748   -7.239382
     22          1           0       -1.104338   13.506224   -7.913728
     23          7           0       -0.775172   11.787214   -4.804331
     24          6           0        0.093970   10.671095   -4.395817
     25          6           0        0.010716    9.612525   -5.505601
     26          8           0        0.899551    9.456515   -6.322611
     27          6           0       -0.278201   10.177031   -2.993734
     28          6           0        0.486805    8.918686   -2.545978
     29          6           0        2.007306    9.103955   -2.641605
     30          6           0        0.065099    8.533885   -1.123171
     31          1           0       -1.748911   11.560513   -4.993770
     32          1           0        1.112532   11.054649   -4.418458
     33          1           0       -0.086640   10.998600   -2.291669
     34          1           0       -1.359681    9.982004   -2.940786
     35          1           0        0.200934    8.097526   -3.218592
     36          1           0        2.340173    9.247596   -3.674658
     37          1           0        2.333718    9.970790   -2.052855
     38          1           0        2.525862    8.222774   -2.249321
     39          1           0        0.346137    9.316697   -0.407731
     40          1           0       -1.019103    8.386835   -1.050151
     41          1           0        0.552839    7.605290   -0.808334
     42          7           0       -1.187007    8.913055   -5.554602
     43          6           0       -1.710635    8.598159   -6.871538
     44          6           0       -2.670324    9.747522   -7.265392
     45          8           0       -3.086822   10.542992   -6.410715
     46          6           0       -2.361783    7.203513   -6.920113
     47          6           0       -2.323779    6.581496   -8.314353
     48          7           0       -2.484351    5.237403   -8.350192
     49          8           0       -2.176689    7.242493   -9.344367
     50          1           0       -1.909453    9.267102   -4.936484
     51          1           0       -0.856507    8.610393   -7.552420
     52          1           0       -1.825263    6.560311   -6.214717
     53          1           0       -3.405800    7.240040   -6.581533
     54          1           0       -2.430945    4.770864   -9.245684
     55          1           0       -2.493910    4.671465   -7.514873
     56          7           0       -2.991662    9.795484   -8.568926
     57          6           0       -3.600530   10.953602   -9.195765
     58          6           0       -2.668449   12.195544   -9.146164
     59          8           0       -3.043665   13.212946   -9.820214
     60          6           0       -5.026164   11.258578   -8.631999
     61          6           0       -6.174998   10.985070   -9.623562
     62          6           0       -6.528464   12.181718  -10.520443
     63          7           0       -5.342049   12.768157  -11.145555
     64          6           0       -4.874453   12.538396  -12.365892
     65          7           0       -5.663264   12.120870  -13.374256
     66          7           0       -3.558410   12.714991  -12.583140
     67          8           0       -1.629740   12.138922   -8.452306
     68          1           0       -2.591258    9.055397   -9.148551
     69          1           0       -3.694731   10.693861  -10.255365
     70          1           0       -5.079796   12.293861   -8.274345
     71          1           0       -5.160579   10.638261   -7.746503
     72          1           0       -5.927120   10.116024  -10.246318
     73          1           0       -7.085462   10.723422   -9.071913
     74          1           0       -7.256583   11.890963  -11.282908
     75          1           0       -6.993139   12.972273   -9.922742
     76          1           0       -4.589849   13.074708  -10.489190
     77          1           0       -5.269817   11.849944  -14.262610
     78          1           0       -6.667501   12.163859  -13.300281
     79          1           0       -3.210729   12.917563  -13.509127
     80          1           0       -2.994128   12.983763  -11.772255
 ---------------------------------------------------------------------

 SCF Done:  E(RB3LYP) =  -1866.81493388     A.U. after    3 cycles

 Alpha  occ. eigenvalues --  -19.21092 -19.21013 -19.20966 -19.20869 -19.20669
 Alpha  occ. eigenvalues --  -19.19278 -14.52110 -14.50639 -14.48944 -14.48209
 Alpha  occ. eigenvalues --  -14.45093 -14.44834 -14.43655 -14.43030 -10.45976
 Alpha  occ. eigenvalues --  -10.38636 -10.38514 -10.38321 -10.37226 -10.35987
 Alpha  occ. eigenvalues --  -10.34933 -10.34389 -10.32463 -10.31413 -10.30417
 Alpha  occ. eigenvalues --  -10.29378 -10.29029 -10.28745 -10.28442 -10.28402
 Alpha  occ. eigenvalues --  -10.27240 -10.27184 -10.27057 -10.26927 -10.26922
 Alpha  occ. eigenvalues --  -10.26001 -10.25328 -10.23161 -10.22813  -1.14850
 Alpha  occ. eigenvalues --   -1.14202  -1.13288  -1.12786  -1.12160  -1.10953
 Alpha  occ. eigenvalues --   -1.07326  -1.05360  -1.03703  -1.02629  -1.01823
 Alpha  occ. eigenvalues --   -1.00934  -0.99962  -0.99597  -0.94048  -0.90037
 Alpha  occ. eigenvalues --   -0.89124  -0.87804  -0.86645  -0.84179  -0.83145
 Alpha  occ. eigenvalues --   -0.82588  -0.80756  -0.78991  -0.76592  -0.75305
 Alpha  occ. eigenvalues --   -0.75277  -0.74064  -0.72173  -0.71653  -0.71271
 Alpha  occ. eigenvalues --   -0.68967  -0.68576  -0.67867  -0.67511  -0.67366
 Alpha  occ. eigenvalues --   -0.67153  -0.66553  -0.65490  -0.64932  -0.63870
 Alpha  occ. eigenvalues --   -0.63403  -0.63186  -0.62933  -0.62110  -0.61205
 Alpha  occ. eigenvalues --   -0.60416  -0.59733  -0.58906  -0.58319  -0.57456
 Alpha  occ. eigenvalues --   -0.56959  -0.55623  -0.55523  -0.54995  -0.54809
 Alpha  occ. eigenvalues --   -0.54184  -0.53832  -0.53637  -0.53591  -0.53110
 Alpha  occ. eigenvalues --   -0.52691  -0.52006  -0.51531  -0.51355  -0.50725
 Alpha  occ. eigenvalues --   -0.50418  -0.50267  -0.49967  -0.49658  -0.49107
 Alpha  occ. eigenvalues --   -0.48900  -0.48346  -0.47809  -0.47331  -0.47248
 Alpha  occ. eigenvalues --   -0.46365  -0.46214  -0.45799  -0.45424  -0.45339
 Alpha  occ. eigenvalues --   -0.44752  -0.44402  -0.44046  -0.43853  -0.43760
 Alpha  occ. eigenvalues --   -0.42885  -0.42706  -0.42320  -0.41876  -0.41266
 Alpha  occ. eigenvalues --   -0.39440  -0.38942  -0.38682  -0.38402  -0.37453
 Alpha  occ. eigenvalues --   -0.36864  -0.36350  -0.36087  -0.35346  -0.35081
 Alpha  occ. eigenvalues --   -0.34787  -0.34436  -0.33636  -0.33323  -0.32817
 Alpha  occ. eigenvalues --   -0.32577  -0.31334
 Alpha virt. eigenvalues --   -0.10325  -0.08835  -0.08634  -0.08479  -0.07319
 Alpha virt. eigenvalues --   -0.06687  -0.06466  -0.05993  -0.05407  -0.02970
 Alpha virt. eigenvalues --   -0.01943  -0.00559  -0.00244  -0.00037   0.00317

 Mulliken charges:
               1
     1  N   -0.768398
     2  C   -0.100190
     3  C    0.643312
     4  O   -0.515210
     5  C   -0.423669
     6  C    0.136674
     7  C   -0.179995
     8  C   -0.245609
     9  C   -0.125641
    10  C   -0.139953
    11  C   -0.126494
    12  H    0.389746
    13  H    0.209403
    14  H    0.174553
    15  H    0.224656
    16  H    0.137995
    17  H    0.181602
    18  H    0.152753
    19  H    0.136691
    20  H    0.149705
    21  H    0.404097
    22  H    0.444710
    23  N   -0.637304
    24  C   -0.085382
    25  C    0.602945
    26  O   -0.479430
    27  C   -0.266415
    28  C   -0.082997
    29  C   -0.461753
    30  C   -0.444502
    31  H    0.379256
    32  H    0.215409
    33  H    0.155723
    34  H    0.122280
    35  H    0.137691
    36  H    0.168402
    37  H    0.146001
    38  H    0.154798
    39  H    0.148510
    40  H    0.138685
    41  H    0.154354
    42  N   -0.587355
    43  C   -0.088474
    44  C    0.629932
    45  O   -0.573309
    46  C   -0.386595
    47  C    0.628374
    48  N   -0.739423
    49  O   -0.529370
    50  H    0.325941
    51  H    0.223132
    52  H    0.189671
    53  H    0.186950
    54  H    0.359156
    55  H    0.354361
    56  N   -0.611286
    57  C   -0.051098
    58  C    0.635866
    59  O   -0.619884
    60  C   -0.298562
    61  C   -0.274427
    62  C   -0.169482
    63  N   -0.611241
    64  C    0.779319
    65  N   -0.759697
    66  N   -0.779233
    67  O   -0.567284
    68  H    0.390974
    69  H    0.152273
    70  H    0.160644
    71  H    0.193416
    72  H    0.155874
    73  H    0.168301
    74  H    0.153482
    75  H    0.191572
    76  H    0.414785
    77  H    0.376319
    78  H    0.379866
    79  H    0.362005
    80  H    0.407499
 Sum of Mulliken charges =   1.00000

 Dipole moment (field-independent basis, Debye):
    X=            -22.1573    Y=             56.1385    Z=            -46.0429  Tot=             75.9107
 Quadrupole moment (field-independent basis, Debye-Ang):
   XX=           -126.8771   YY=            511.2706   ZZ=            303.5023
   XY=           -256.8211   XZ=            236.7946   YZ=           -548.6799

 Normal termination of Gaussian 16 at Sat Jul 16 16:52:07 2022.
