 Gaussian 16, Revision C.01,
 Gaussian 16:  ES64L-G16RevC.01  3-Jul-2019

 ----------------------------------------------------------------------
 # B3LYP/6-31G* empiricaldispersion=gd3bj guess=read geom=check nosymm
 integral(ultrafinegrid)
 ----------------------------------------------------------------------

 ------------------------------------------------------
 Candidate Structure: Conf:112 Charge calc in gas phase
 ------------------------------------------------------
 Structure from the checkpoint file:  "conf-112.chk"
 Charge =  1 Multiplicity = 1

                          Input orientation:
 ---------------------------------------------------------------------
 Center     Atomic      Atomic             Coordinates (Angstroms)
 Number     Number       Type             X           Y           Z
 ---------------------------------------------------------------------
      1          7           0       -0.897125   10.647568   -7.087511
      2          6           0       -0.243043   10.487030   -5.746660
      3          6           0       -1.123077    9.568879   -4.876215
      4          8           0       -0.719870    8.471467   -4.526037
      5          6           0        0.014096   11.876623   -5.135466
      6          6           0        0.950487   12.704690   -5.985014
      7          6           0        2.337383   12.532261   -5.884257
      8          6           0        0.443767   13.611173   -6.923816
      9          6           0        3.201690   13.255669   -6.703298
     10          6           0        1.309335   14.330063   -7.749930
     11          6           0        2.688179   14.156793   -7.639519
     12          1           0       -1.879442   10.994651   -7.008564
     13          1           0        0.699594    9.961588   -5.902834
     14          1           0        0.430738   11.714255   -4.135971
     15          1           0       -0.938809   12.401096   -5.002281
     16          1           0        2.740809   11.835675   -5.152889
     17          1           0       -0.629669   13.743703   -7.025294
     18          1           0        4.274962   13.121003   -6.608237
     19          1           0        0.901709   15.028973   -8.474392
     20          1           0        3.362651   14.722460   -8.275422
     21          1           0       -0.456345   11.355708   -7.704864
     22          1           0       -0.960458    9.789383   -7.646153
     23          7           0       -2.338782   10.096300   -4.553267
     24          6           0       -3.455857    9.257949   -4.087594
     25          6           0       -4.472617    9.328169   -5.236585
     26          8           0       -4.508690    8.489721   -6.120997
     27          6           0       -3.965464    9.679312   -2.706470
     28          6           0       -2.918752    9.561287   -1.583899
     29          6           0       -3.506463   10.098600   -0.273207
     30          6           0       -2.408771    8.124562   -1.411087
     31          1           0       -2.624004   10.950025   -5.024257
     32          1           0       -3.090064    8.232103   -4.065199
     33          1           0       -4.320055   10.720312   -2.737918
     34          1           0       -4.839689    9.060855   -2.462177
     35          1           0       -2.065499   10.196151   -1.861617
     36          1           0       -4.360230    9.490381    0.050884
     37          1           0       -2.760145   10.074820    0.527758
     38          1           0       -3.853097   11.133747   -0.379309
     39          1           0       -3.241734    7.433856   -1.226552
     40          1           0       -1.855989    7.777141   -2.288574
     41          1           0       -1.732850    8.062529   -0.551445
     42          7           0       -5.253872   10.469453   -5.276985
     43          6           0       -5.719018   10.912907   -6.575761
     44          6           0       -4.512838   11.451395   -7.396556
     45          8           0       -3.431450   11.705136   -6.824946
     46          6           0       -6.856739   11.938384   -6.419225
     47          6           0       -7.818326   11.958134   -7.607255
     48          7           0       -9.037318   12.483223   -7.351481
     49          8           0       -7.511749   11.546046   -8.727816
     50          1           0       -5.011795   11.203751   -4.623441
     51          1           0       -6.095057   10.028542   -7.093717
     52          1           0       -7.411446   11.689319   -5.508104
     53          1           0       -6.457724   12.952197   -6.280573
     54          1           0       -9.717026   12.509869   -8.099941
     55          1           0       -9.334749   12.744922   -6.423443
     56          7           0       -4.739243   11.589526   -8.700956
     57          6           0       -3.790946   12.013019   -9.736878
     58          6           0       -2.355943   11.530361   -9.398771
     59          8           0       -1.481033   12.397581   -9.105783
     60          6           0       -3.904264   13.514090  -10.054159
     61          6           0       -3.539215   13.898893  -11.503742
     62          6           0       -2.049310   14.011231  -11.866587
     63          7           0       -1.298658   12.750234  -11.784199
     64          6           0       -1.413563   11.716122  -12.618544
     65          7           0       -1.743780   11.921264  -13.910427
     66          7           0       -1.190299   10.475663  -12.169236
     67          8           0       -2.147920   10.292288   -9.516104
     68          1           0       -5.708370   11.418500   -8.989734
     69          1           0       -4.086009   11.439004  -10.623037
     70          1           0       -3.296764   14.073790   -9.336032
     71          1           0       -4.949640   13.804793   -9.899658
     72          1           0       -4.024345   13.201806  -12.201260
     73          1           0       -3.972181   14.884634  -11.713597
     74          1           0       -1.945438   14.438691  -12.869377
     75          1           0       -1.541891   14.694953  -11.182213
     76          1           0       -0.994983   12.535560  -10.826603
     77          1           0       -1.893863   11.142605  -14.534265
     78          1           0       -1.607620   12.827985  -14.331930
     79          1           0       -1.118860    9.705122  -12.818341
     80          1           0       -1.370753   10.256807  -11.174193
 ---------------------------------------------------------------------

 SCF Done:  E(RB3LYP) =  -1866.80639628     A.U. after    1 cycles

 Alpha  occ. eigenvalues --  -19.23160 -19.22509 -19.20913 -19.20380 -19.19787
 Alpha  occ. eigenvalues --  -19.19549 -14.52071 -14.50612 -14.48647 -14.48332
 Alpha  occ. eigenvalues --  -14.46171 -14.45809 -14.45143 -14.44972 -10.45916
 Alpha  occ. eigenvalues --  -10.40131 -10.39484 -10.38292 -10.37817 -10.37311
 Alpha  occ. eigenvalues --  -10.34853 -10.34184 -10.33468 -10.32287 -10.31201
 Alpha  occ. eigenvalues --  -10.30962 -10.29721 -10.29501 -10.28209 -10.28104
 Alpha  occ. eigenvalues --  -10.27026 -10.26954 -10.26894 -10.26807 -10.26733
 Alpha  occ. eigenvalues --  -10.26476 -10.25476 -10.23354 -10.22599  -1.14885
 Alpha  occ. eigenvalues --   -1.14477  -1.14072  -1.13151  -1.13035  -1.12192
 Alpha  occ. eigenvalues --   -1.07784  -1.04524  -1.03403  -1.02704  -1.02306
 Alpha  occ. eigenvalues --   -1.02253  -1.01277  -1.00961  -0.93976  -0.90206
 Alpha  occ. eigenvalues --   -0.89487  -0.88336  -0.87603  -0.84746  -0.83481
 Alpha  occ. eigenvalues --   -0.82390  -0.81349  -0.79610  -0.77176  -0.75535
 Alpha  occ. eigenvalues --   -0.75478  -0.74050  -0.72980  -0.71575  -0.70823
 Alpha  occ. eigenvalues --   -0.70218  -0.68778  -0.68365  -0.68253  -0.67789
 Alpha  occ. eigenvalues --   -0.67310  -0.66939  -0.66031  -0.65545  -0.64236
 Alpha  occ. eigenvalues --   -0.63988  -0.63620  -0.63048  -0.62687  -0.61373
 Alpha  occ. eigenvalues --   -0.60599  -0.59519  -0.59399  -0.59028  -0.58687
 Alpha  occ. eigenvalues --   -0.57054  -0.56098  -0.56006  -0.55760  -0.55071
 Alpha  occ. eigenvalues --   -0.54519  -0.54339  -0.53702  -0.53647  -0.53330
 Alpha  occ. eigenvalues --   -0.53198  -0.52583  -0.52231  -0.52049  -0.50776
 Alpha  occ. eigenvalues --   -0.50648  -0.50461  -0.50065  -0.49930  -0.49552
 Alpha  occ. eigenvalues --   -0.49175  -0.48789  -0.48270  -0.47866  -0.47647
 Alpha  occ. eigenvalues --   -0.47141  -0.46893  -0.46555  -0.46155  -0.46006
 Alpha  occ. eigenvalues --   -0.45453  -0.45032  -0.44498  -0.44131  -0.43979
 Alpha  occ. eigenvalues --   -0.43730  -0.42948  -0.42271  -0.42006  -0.41335
 Alpha  occ. eigenvalues --   -0.39758  -0.38973  -0.38828  -0.38435  -0.37773
 Alpha  occ. eigenvalues --   -0.37300  -0.36746  -0.36399  -0.35969  -0.35882
 Alpha  occ. eigenvalues --   -0.35105  -0.34613  -0.34181  -0.33282  -0.32882
 Alpha  occ. eigenvalues --   -0.32548  -0.32274
 Alpha virt. eigenvalues --   -0.10787  -0.09726  -0.08869  -0.08358  -0.08091
 Alpha virt. eigenvalues --   -0.07962  -0.07262  -0.06327  -0.05584  -0.03222
 Alpha virt. eigenvalues --   -0.02300  -0.01804  -0.00947  -0.00220   0.00158

 Mulliken charges:
               1
     1  N   -0.803140
     2  C   -0.095614
     3  C    0.613306
     4  O   -0.483190
     5  C   -0.375686
     6  C    0.136889
     7  C   -0.178774
     8  C   -0.189504
     9  C   -0.127543
    10  C   -0.126857
    11  C   -0.127211
    12  H    0.449607
    13  H    0.209220
    14  H    0.195112
    15  H    0.168940
    16  H    0.142221
    17  H    0.152047
    18  H    0.151894
    19  H    0.134659
    20  H    0.146446
    21  H    0.418773
    22  H    0.410385
    23  N   -0.617663
    24  C   -0.078745
    25  C    0.587602
    26  O   -0.488151
    27  C   -0.261861
    28  C   -0.068505
    29  C   -0.445424
    30  C   -0.471525
    31  H    0.352198
    32  H    0.217041
    33  H    0.112288
    34  H    0.157791
    35  H    0.128904
    36  H    0.148217
    37  H    0.156092
    38  H    0.135739
    39  H    0.142398
    40  H    0.179969
    41  H    0.152797
    42  N   -0.597916
    43  C   -0.059178
    44  C    0.632571
    45  O   -0.600361
    46  C   -0.407382
    47  C    0.632715
    48  N   -0.736808
    49  O   -0.526157
    50  H    0.328237
    51  H    0.226666
    52  H    0.190948
    53  H    0.193760
    54  H    0.365128
    55  H    0.357207
    56  N   -0.614636
    57  C    0.010411
    58  C    0.554213
    59  O   -0.610497
    60  C   -0.270830
    61  C   -0.281509
    62  C   -0.162283
    63  N   -0.602475
    64  C    0.775434
    65  N   -0.756335
    66  N   -0.778354
    67  O   -0.600585
    68  H    0.400290
    69  H    0.151818
    70  H    0.174873
    71  H    0.151581
    72  H    0.149471
    73  H    0.167333
    74  H    0.156883
    75  H    0.193575
    76  H    0.398290
    77  H    0.373393
    78  H    0.378916
    79  H    0.359826
    80  H    0.420629
 Sum of Mulliken charges =   1.00000

 Dipole moment (field-independent basis, Debye):
    X=            -15.2413    Y=             61.5283    Z=            -46.6275  Tot=             78.6902
 Quadrupole moment (field-independent basis, Debye-Ang):
   XX=           -105.3163   YY=            550.3959   ZZ=            323.4931
   XY=           -203.8348   XZ=            114.4773   YZ=           -588.7578

 Normal termination of Gaussian 16 at Sat Jul 16 16:51:25 2022.
