 Gaussian 16, Revision C.01,
 Gaussian 16:  ES64L-G16RevC.01  3-Jul-2019

 ----------------------------------------------------------------------
 # B3LYP/6-31G* empiricaldispersion=gd3bj guess=read geom=check nosymm
 integral(ultrafinegrid)
 ----------------------------------------------------------------------

 ------------------------------------------------------
 Candidate Structure: Conf:981 Charge calc in gas phase
 ------------------------------------------------------
 Structure from the checkpoint file:  "conf-981.chk"
 Charge =  1 Multiplicity = 1

                          Input orientation:
 ---------------------------------------------------------------------
 Center     Atomic      Atomic             Coordinates (Angstroms)
 Number     Number       Type             X           Y           Z
 ---------------------------------------------------------------------
      1          7           0        0.050718   11.415570   -6.549214
      2          6           0       -0.602320   11.528042   -5.203234
      3          6           0       -1.568718   10.326033   -5.121596
      4          8           0       -1.479126    9.421317   -5.948481
      5          6           0       -1.216419   12.924100   -5.013338
      6          6           0       -0.163960   14.007288   -5.114241
      7          6           0        0.755069   14.201469   -4.074392
      8          6           0       -0.068740   14.801476   -6.262504
      9          6           0        1.751984   15.169861   -4.178016
     10          6           0        0.929623   15.772080   -6.366311
     11          6           0        1.841515   15.958122   -5.327610
     12          1           0        1.064448   11.513764   -6.496087
     13          1           0        0.180006   11.368599   -4.453304
     14          1           0       -1.685802   12.960854   -4.022871
     15          1           0       -2.002807   13.058067   -5.759276
     16          1           0        0.682013   13.600894   -3.169429
     17          1           0       -0.770700   14.645788   -7.075482
     18          1           0        2.452148   15.315646   -3.360839
     19          1           0        0.991074   16.387889   -7.259212
     20          1           0        2.614523   16.716468   -5.408003
     21          1           0       -0.195534   10.481113   -6.934058
     22          1           0       -0.307559   12.115404   -7.279579
     23          7           0       -2.450762   10.313038   -4.100959
     24          6           0       -3.375238    9.188357   -3.892054
     25          6           0       -4.187802    8.894054   -5.166011
     26          8           0       -4.457413    7.751431   -5.499306
     27          6           0       -4.275328    9.506660   -2.688817
     28          6           0       -5.344332    8.444533   -2.376887
     29          6           0       -4.735056    7.055792   -2.146845
     30          6           0       -6.170531    8.896645   -1.166699
     31          1           0       -2.474525   11.080693   -3.444219
     32          1           0       -2.792453    8.282734   -3.709727
     33          1           0       -3.632192    9.635962   -1.806028
     34          1           0       -4.771079   10.470758   -2.870551
     35          1           0       -6.015308    8.378728   -3.243570
     36          1           0       -4.282889    6.660822   -3.060675
     37          1           0       -3.971575    7.086920   -1.358309
     38          1           0       -5.508756    6.348932   -1.828960
     39          1           0       -5.546147    8.957821   -0.266379
     40          1           0       -6.621820    9.882485   -1.330398
     41          1           0       -6.978456    8.186711   -0.961621
     42          7           0       -4.603860   10.004504   -5.851806
     43          6           0       -4.780134    9.912469   -7.290173
     44          6           0       -3.881334   11.018273   -7.888734
     45          8           0       -3.294478   11.816298   -7.144363
     46          6           0       -6.266521    9.998765   -7.702726
     47          6           0       -6.562027    9.305935   -9.028285
     48          7           0       -7.801716    8.776971   -9.144763
     49          8           0       -5.745911    9.243045   -9.951927
     50          1           0       -4.145528   10.876973   -5.601096
     51          1           0       -4.392249    8.940963   -7.614326
     52          1           0       -6.852496    9.540508   -6.900914
     53          1           0       -6.591811   11.044608   -7.776268
     54          1           0       -8.036268    8.285921   -9.997158
     55          1           0       -8.439764    8.718101   -8.365666
     56          7           0       -3.753091   11.021521   -9.221181
     57          6           0       -2.783796   11.866474   -9.917412
     58          6           0       -1.424285   11.775316   -9.174895
     59          8           0       -0.969896   12.818919   -8.587221
     60          6           0       -3.290665   13.297719  -10.165758
     61          6           0       -2.714059   13.983682  -11.421102
     62          6           0       -1.287381   14.547296  -11.336039
     63          7           0       -0.242433   13.535619  -11.114956
     64          6           0        0.156580   12.621468  -12.000217
     65          7           0        0.095348   12.885220  -13.320486
     66          7           0        0.633962   11.446234  -11.570649
     67          8           0       -0.807047   10.687766   -9.247454
     68          1           0       -4.302104   10.326633   -9.737366
     69          1           0       -2.625696   11.369308  -10.881105
     70          1           0       -3.110648   13.899191   -9.270102
     71          1           0       -4.375359   13.235350  -10.304054
     72          1           0       -2.774612   13.295464  -12.275972
     73          1           0       -3.357871   14.835216  -11.673627
     74          1           0       -1.057535   15.124093  -12.238413
     75          1           0       -1.200905   15.238755  -10.494842
     76          1           0       -0.131098   13.295336  -10.123479
     77          1           0        0.317629   12.176463  -14.003026
     78          1           0        0.011976   13.835238  -13.649686
     79          1           0        1.067479   10.807643  -12.222163
     80          1           0        0.296783   11.061810  -10.672541
 ---------------------------------------------------------------------

 SCF Done:  E(RB3LYP) =  -1866.81469804     A.U. after    3 cycles

 Alpha  occ. eigenvalues --  -19.22560 -19.20634 -19.20413 -19.20370 -19.19577
 Alpha  occ. eigenvalues --  -19.18734 -14.51765 -14.50680 -14.48738 -14.48452
 Alpha  occ. eigenvalues --  -14.46731 -14.44414 -14.43525 -14.42218 -10.46001
 Alpha  occ. eigenvalues --  -10.39697 -10.38138 -10.37833 -10.37049 -10.35816
 Alpha  occ. eigenvalues --  -10.35740 -10.34036 -10.31523 -10.31508 -10.31373
 Alpha  occ. eigenvalues --  -10.29398 -10.29043 -10.28425 -10.28230 -10.27270
 Alpha  occ. eigenvalues --  -10.27178 -10.26988 -10.26986 -10.26945 -10.26800
 Alpha  occ. eigenvalues --  -10.26728 -10.25562 -10.23345 -10.22710  -1.15030
 Alpha  occ. eigenvalues --   -1.14707  -1.13643  -1.12405  -1.11966  -1.10542
 Alpha  occ. eigenvalues --   -1.07170  -1.04553  -1.03463  -1.03128  -1.02450
 Alpha  occ. eigenvalues --   -1.00589  -0.99500  -0.99150  -0.94004  -0.89673
 Alpha  occ. eigenvalues --   -0.89442  -0.88038  -0.86430  -0.83909  -0.83388
 Alpha  occ. eigenvalues --   -0.82460  -0.81145  -0.78932  -0.76503  -0.75648
 Alpha  occ. eigenvalues --   -0.75109  -0.74139  -0.72504  -0.71666  -0.70463
 Alpha  occ. eigenvalues --   -0.69626  -0.68927  -0.68297  -0.67683  -0.67142
 Alpha  occ. eigenvalues --   -0.66890  -0.66558  -0.64858  -0.64542  -0.63739
 Alpha  occ. eigenvalues --   -0.63474  -0.62864  -0.62670  -0.62055  -0.61263
 Alpha  occ. eigenvalues --   -0.59890  -0.59386  -0.58780  -0.58085  -0.57427
 Alpha  occ. eigenvalues --   -0.56722  -0.56172  -0.56006  -0.55022  -0.54620
 Alpha  occ. eigenvalues --   -0.54087  -0.53709  -0.53405  -0.53183  -0.53147
 Alpha  occ. eigenvalues --   -0.52660  -0.52016  -0.51539  -0.51211  -0.50702
 Alpha  occ. eigenvalues --   -0.50403  -0.49885  -0.49569  -0.49365  -0.49250
 Alpha  occ. eigenvalues --   -0.48852  -0.48651  -0.48126  -0.47771  -0.47142
 Alpha  occ. eigenvalues --   -0.46498  -0.45983  -0.45874  -0.45474  -0.45113
 Alpha  occ. eigenvalues --   -0.44572  -0.44127  -0.43995  -0.43779  -0.43293
 Alpha  occ. eigenvalues --   -0.43095  -0.42434  -0.42135  -0.41886  -0.41367
 Alpha  occ. eigenvalues --   -0.39629  -0.39033  -0.38807  -0.38436  -0.37010
 Alpha  occ. eigenvalues --   -0.36646  -0.36488  -0.36207  -0.35629  -0.34941
 Alpha  occ. eigenvalues --   -0.34159  -0.33605  -0.33213  -0.33078  -0.32657
 Alpha  occ. eigenvalues --   -0.32456  -0.31800
 Alpha virt. eigenvalues --   -0.10771  -0.09535  -0.08189  -0.07898  -0.07552
 Alpha virt. eigenvalues --   -0.06638  -0.06265  -0.05559  -0.05107  -0.03821
 Alpha virt. eigenvalues --   -0.03259  -0.02033  -0.00380  -0.00161   0.00294

 Mulliken charges:
               1
     1  N   -0.797062
     2  C   -0.088895
     3  C    0.666462
     4  O   -0.522549
     5  C   -0.411716
     6  C    0.142184
     7  C   -0.187662
     8  C   -0.199499
     9  C   -0.128012
    10  C   -0.134461
    11  C   -0.126254
    12  H    0.385631
    13  H    0.199185
    14  H    0.157013
    15  H    0.237506
    16  H    0.126823
    17  H    0.169562
    18  H    0.150240
    19  H    0.136282
    20  H    0.149066
    21  H    0.428170
    22  H    0.462852
    23  N   -0.656849
    24  C   -0.013802
    25  C    0.616185
    26  O   -0.510318
    27  C   -0.308730
    28  C   -0.077981
    29  C   -0.462240
    30  C   -0.445740
    31  H    0.345001
    32  H    0.198666
    33  H    0.146652
    34  H    0.140979
    35  H    0.147061
    36  H    0.177404
    37  H    0.136227
    38  H    0.154604
    39  H    0.145399
    40  H    0.140787
    41  H    0.157241
    42  N   -0.605612
    43  C   -0.062040
    44  C    0.614537
    45  O   -0.576160
    46  C   -0.376155
    47  C    0.631282
    48  N   -0.737192
    49  O   -0.533097
    50  H    0.347689
    51  H    0.215985
    52  H    0.184769
    53  H    0.188431
    54  H    0.359484
    55  H    0.355151
    56  N   -0.625783
    57  C    0.014193
    58  C    0.577556
    59  O   -0.628443
    60  C   -0.270724
    61  C   -0.282329
    62  C   -0.164919
    63  N   -0.601629
    64  C    0.779546
    65  N   -0.757433
    66  N   -0.780677
    67  O   -0.578001
    68  H    0.396200
    69  H    0.142646
    70  H    0.181158
    71  H    0.154977
    72  H    0.146556
    73  H    0.167297
    74  H    0.156645
    75  H    0.193519
    76  H    0.392533
    77  H    0.374366
    78  H    0.380080
    79  H    0.360065
    80  H    0.420117
 Sum of Mulliken charges =   1.00000

 Dipole moment (field-independent basis, Debye):
    X=             -6.9412    Y=             60.3624    Z=            -43.7898  Tot=             74.8955
 Quadrupole moment (field-independent basis, Debye-Ang):
   XX=           -142.3261   YY=            534.1304   ZZ=            280.4847
   XY=            -65.4682   XZ=             47.7331   YZ=           -561.4477

 Normal termination of Gaussian 16 at Sat Jul 16 16:52:55 2022.
