 Gaussian 16, Revision C.01,
 Gaussian 16:  ES64L-G16RevC.01  3-Jul-2019

 ----------------------------------------------------------------------
 # B3LYP/6-31G* empiricaldispersion=gd3bj guess=read geom=check nosymm
 integral(ultrafinegrid)
 ----------------------------------------------------------------------

 -----------------------------------------------------
 Candidate Structure: Conf:34 Charge calc in gas phase
 -----------------------------------------------------
 Structure from the checkpoint file:  "conf-34.chk"
 Charge =  1 Multiplicity = 1

                          Input orientation:
 ---------------------------------------------------------------------
 Center     Atomic      Atomic             Coordinates (Angstroms)
 Number     Number       Type             X           Y           Z
 ---------------------------------------------------------------------
      1          7           0       -3.665485    9.052856   -6.210113
      2          6           0       -4.768613    9.831965   -6.870089
      3          6           0       -4.446202    9.767377   -8.374309
      4          8           0       -4.226840    8.653669   -8.845224
      5          6           0       -5.001924   11.164419   -6.150099
      6          6           0       -5.553160   10.901094   -4.762519
      7          6           0       -6.920862   10.650446   -4.587216
      8          6           0       -4.700877   10.824963   -3.652126
      9          6           0       -7.430436   10.331599   -3.329888
     10          6           0       -5.213166   10.501061   -2.392735
     11          6           0       -6.575323   10.252613   -2.228256
     12          1           0       -3.590329    8.156145   -6.704632
     13          1           0       -5.670689    9.219966   -6.760802
     14          1           0       -5.737008   11.723387   -6.739350
     15          1           0       -4.082007   11.752548   -6.115956
     16          1           0       -7.592531   10.715038   -5.440766
     17          1           0       -3.646004   11.046613   -3.783354
     18          1           0       -8.494026   10.149046   -3.208221
     19          1           0       -4.545863   10.454073   -1.536511
     20          1           0       -6.972011   10.006030   -1.247990
     21          1           0       -2.704110    9.563120   -6.298795
     22          1           0       -3.882708    8.909226   -5.218511
     23          7           0       -4.520829   10.924053   -9.065507
     24          6           0       -4.224341   10.974577  -10.507262
     25          6           0       -2.854239   11.647981  -10.645197
     26          8           0       -1.838768   11.010577  -10.858406
     27          6           0       -5.360810   11.638205  -11.292946
     28          6           0       -6.722177   10.934334  -11.151405
     29          6           0       -7.785667   11.700605  -11.947336
     30          6           0       -6.666214    9.463137  -11.584066
     31          1           0       -4.341332   11.772797   -8.532712
     32          1           0       -4.080953    9.944616  -10.829219
     33          1           0       -5.474495   12.686244  -10.980740
     34          1           0       -5.066397   11.662909  -12.350642
     35          1           0       -7.001796   10.967708  -10.088764
     36          1           0       -7.556879   11.685316  -13.020169
     37          1           0       -8.775095   11.250752  -11.812789
     38          1           0       -7.846983   12.749334  -11.633029
     39          1           0       -6.310659    9.374355  -12.618579
     40          1           0       -6.006636    8.866254  -10.946203
     41          1           0       -7.664154    9.013779  -11.538896
     42          7           0       -2.832311   13.016131  -10.410194
     43          6           0       -1.629968   13.525258   -9.769971
     44          6           0       -1.622380   13.012368   -8.308020
     45          8           0       -2.684666   12.782297   -7.715198
     46          6           0       -1.563342   15.052497   -9.857522
     47          6           0       -0.156080   15.593255   -9.600233
     48          7           0       -0.021806   16.932229   -9.757119
     49          8           0        0.790951   14.879021   -9.270689
     50          1           0       -3.688767   13.402027  -10.029689
     51          1           0       -0.781745   13.094244  -10.301359
     52          1           0       -1.881774   15.352774  -10.863063
     53          1           0       -2.263511   15.516484   -9.149934
     54          1           0        0.899310   17.337560   -9.659860
     55          1           0       -0.764468   17.512187  -10.118797
     56          7           0       -0.402826   12.808576   -7.791156
     57          6           0       -0.118773   12.313785   -6.451622
     58          6           0       -1.233236   11.350666   -5.960266
     59          8           0       -1.843679   11.612990   -4.903296
     60          6           0        0.212488   13.451459   -5.464043
     61          6           0        1.300268   13.117394   -4.424738
     62          6           0        0.912054   12.182650   -3.270248
     63          7           0        0.511994   10.831074   -3.699198
     64          6           0        1.318642    9.926800   -4.257414
     65          7           0        2.619875    9.881409   -3.915480
     66          7           0        0.826173    9.054524   -5.147484
     67          8           0       -1.325113   10.244755   -6.604319
     68          1           0        0.366625   13.210916   -8.324380
     69          1           0        0.770332   11.679940   -6.571547
     70          1           0       -0.711140   13.773163   -4.973505
     71          1           0        0.583789   14.296590   -6.053918
     72          1           0        2.179812   12.704011   -4.938276
     73          1           0        1.634198   14.053105   -3.959991
     74          1           0        1.731054   12.113096   -2.546384
     75          1           0        0.049087   12.578103   -2.730624
     76          1           0       -0.476436   10.783669   -3.958530
     77          1           0        3.267271    9.277180   -4.398736
     78          1           0        2.946168   10.337434   -3.076618
     79          1           0        1.392212    8.279142   -5.462188
     80          1           0        0.009229    9.320547   -5.723090
 ---------------------------------------------------------------------

 SCF Done:  E(RB3LYP) =  -1866.80798407     A.U. after    1 cycles

 Alpha  occ. eigenvalues --  -19.21334 -19.21200 -19.21075 -19.20982 -19.20355
 Alpha  occ. eigenvalues --  -19.19726 -14.52383 -14.51261 -14.49482 -14.49074
 Alpha  occ. eigenvalues --  -14.45150 -14.45054 -14.44485 -14.43823 -10.46632
 Alpha  occ. eigenvalues --  -10.38976 -10.38774 -10.38458 -10.37466 -10.36495
 Alpha  occ. eigenvalues --  -10.34863 -10.34339 -10.32232 -10.31928 -10.30684
 Alpha  occ. eigenvalues --  -10.29621 -10.29413 -10.28354 -10.27864 -10.27677
 Alpha  occ. eigenvalues --  -10.26735 -10.26646 -10.26587 -10.26409 -10.26234
 Alpha  occ. eigenvalues --  -10.26211 -10.25591 -10.23375 -10.23058  -1.15367
 Alpha  occ. eigenvalues --   -1.14339  -1.13402  -1.13078  -1.12537  -1.11385
 Alpha  occ. eigenvalues --   -1.07519  -1.05288  -1.04123  -1.03119  -1.02080
 Alpha  occ. eigenvalues --   -1.01430  -1.00513  -0.99874  -0.93559  -0.89942
 Alpha  occ. eigenvalues --   -0.89118  -0.87665  -0.87132  -0.84494  -0.83116
 Alpha  occ. eigenvalues --   -0.82036  -0.80926  -0.79618  -0.76854  -0.75310
 Alpha  occ. eigenvalues --   -0.75155  -0.74275  -0.72498  -0.72301  -0.71105
 Alpha  occ. eigenvalues --   -0.69404  -0.68446  -0.67969  -0.67597  -0.67392
 Alpha  occ. eigenvalues --   -0.67177  -0.66602  -0.66193  -0.64804  -0.64441
 Alpha  occ. eigenvalues --   -0.63913  -0.63521  -0.63084  -0.62393  -0.60728
 Alpha  occ. eigenvalues --   -0.60162  -0.59774  -0.58783  -0.58402  -0.57966
 Alpha  occ. eigenvalues --   -0.56756  -0.56309  -0.56031  -0.55085  -0.54751
 Alpha  occ. eigenvalues --   -0.54623  -0.53857  -0.53727  -0.53172  -0.53065
 Alpha  occ. eigenvalues --   -0.52910  -0.52198  -0.51701  -0.51219  -0.50878
 Alpha  occ. eigenvalues --   -0.50494  -0.50168  -0.49758  -0.49446  -0.49090
 Alpha  occ. eigenvalues --   -0.48788  -0.48482  -0.48007  -0.47410  -0.47064
 Alpha  occ. eigenvalues --   -0.46798  -0.46357  -0.45969  -0.45800  -0.45200
 Alpha  occ. eigenvalues --   -0.44828  -0.44362  -0.44132  -0.43844  -0.43671
 Alpha  occ. eigenvalues --   -0.43518  -0.42991  -0.41991  -0.41926  -0.41504
 Alpha  occ. eigenvalues --   -0.39703  -0.39117  -0.39074  -0.38978  -0.36867
 Alpha  occ. eigenvalues --   -0.36566  -0.36463  -0.35939  -0.35575  -0.35260
 Alpha  occ. eigenvalues --   -0.35003  -0.34262  -0.33946  -0.33841  -0.32776
 Alpha  occ. eigenvalues --   -0.32226  -0.31596
 Alpha virt. eigenvalues --   -0.11490  -0.08919  -0.08315  -0.08125  -0.07784
 Alpha virt. eigenvalues --   -0.07426  -0.06794  -0.06067  -0.05716  -0.03739
 Alpha virt. eigenvalues --   -0.02434  -0.00997  -0.00820  -0.00552   0.00628

 Mulliken charges:
               1
     1  N   -0.775333
     2  C   -0.105794
     3  C    0.640389
     4  O   -0.522961
     5  C   -0.414200
     6  C    0.123254
     7  C   -0.179444
     8  C   -0.229875
     9  C   -0.127061
    10  C   -0.133230
    11  C   -0.126461
    12  H    0.397251
    13  H    0.209513
    14  H    0.169358
    15  H    0.242599
    16  H    0.133874
    17  H    0.181690
    18  H    0.150412
    19  H    0.138058
    20  H    0.148835
    21  H    0.444556
    22  H    0.385500
    23  N   -0.625628
    24  C   -0.092061
    25  C    0.602843
    26  O   -0.481820
    27  C   -0.264126
    28  C   -0.067250
    29  C   -0.444877
    30  C   -0.468468
    31  H    0.378151
    32  H    0.218923
    33  H    0.119870
    34  H    0.161005
    35  H    0.121513
    36  H    0.150198
    37  H    0.153624
    38  H    0.139179
    39  H    0.148351
    40  H    0.167692
    41  H    0.151730
    42  N   -0.591671
    43  C   -0.064401
    44  C    0.624394
    45  O   -0.570054
    46  C   -0.404756
    47  C    0.624810
    48  N   -0.739786
    49  O   -0.527772
    50  H    0.321964
    51  H    0.215258
    52  H    0.198262
    53  H    0.185635
    54  H    0.359933
    55  H    0.353909
    56  N   -0.603209
    57  C    0.006468
    58  C    0.591120
    59  O   -0.557556
    60  C   -0.277361
    61  C   -0.285036
    62  C   -0.165919
    63  N   -0.596506
    64  C    0.774791
    65  N   -0.754856
    66  N   -0.784057
    67  O   -0.617676
    68  H    0.382614
    69  H    0.138708
    70  H    0.183707
    71  H    0.161112
    72  H    0.146097
    73  H    0.170001
    74  H    0.159298
    75  H    0.200937
    76  H    0.386760
    77  H    0.376197
    78  H    0.382522
    79  H    0.361735
    80  H    0.414602
 Sum of Mulliken charges =   1.00000

 Dipole moment (field-independent basis, Debye):
    X=             -3.7610    Y=             56.3382    Z=            -26.3164  Tot=             62.2952
 Quadrupole moment (field-independent basis, Debye-Ang):
   XX=           -146.2360   YY=            494.4854   ZZ=            -49.0711
   XY=            -48.6620   XZ=             50.3000   YZ=           -356.4636

 Normal termination of Gaussian 16 at Sat Jul 16 16:52:07 2022.
