 Gaussian 16, Revision C.01,
 Gaussian 16:  ES64L-G16RevC.01  3-Jul-2019

 ----------------------------------------------------------------------
 # B3LYP/6-31G* empiricaldispersion=gd3bj guess=read geom=check nosymm
 integral(ultrafinegrid)
 ----------------------------------------------------------------------

 ------------------------------------------------------
 Candidate Structure: Conf:883 Charge calc in gas phase
 ------------------------------------------------------
 Structure from the checkpoint file:  "conf-883.chk"
 Charge =  1 Multiplicity = 1

                          Input orientation:
 ---------------------------------------------------------------------
 Center     Atomic      Atomic             Coordinates (Angstroms)
 Number     Number       Type             X           Y           Z
 ---------------------------------------------------------------------
      1          7           0       -0.715341   11.984062   -6.504514
      2          6           0       -1.090648   12.678975   -5.238557
      3          6           0       -1.734910   11.552280   -4.399768
      4          8           0       -1.234693   10.433726   -4.446687
      5          6           0       -1.971085   13.896135   -5.567957
      6          6           0       -1.345210   14.788110   -6.618548
      7          6           0       -0.355075   15.717226   -6.275124
      8          6           0       -1.716874   14.652706   -7.962055
      9          6           0        0.248344   16.503429   -7.255860
     10          6           0       -1.115917   15.441935   -8.943312
     11          6           0       -0.133563   16.368114   -8.592610
     12          1           0       -0.192774   12.549999   -7.180831
     13          1           0       -0.164988   12.995915   -4.748243
     14          1           0       -2.132537   14.460098   -4.641861
     15          1           0       -2.944106   13.541006   -5.922762
     16          1           0       -0.064172   15.836111   -5.233875
     17          1           0       -2.469254   13.919416   -8.238499
     18          1           0        1.006848   17.228024   -6.975534
     19          1           0       -1.425834   15.334310   -9.978120
     20          1           0        0.326315   16.992082   -9.353624
     21          1           0       -0.212646   11.100881   -6.344549
     22          1           0       -1.591392   11.696637   -7.000740
     23          7           0       -2.872521   11.827444   -3.722534
     24          6           0       -3.647349   10.751299   -3.089483
     25          6           0       -3.961810    9.633842   -4.104647
     26          8           0       -3.995953    8.458680   -3.773284
     27          6           0       -4.918522   11.351765   -2.470636
     28          6           0       -5.869443   10.335235   -1.814284
     29          6           0       -5.173851    9.506551   -0.727076
     30          6           0       -7.091270   11.073546   -1.254153
     31          1           0       -3.248804   12.765006   -3.710688
     32          1           0       -3.031741   10.274837   -2.324036
     33          1           0       -4.611818   12.091782   -1.717619
     34          1           0       -5.464231   11.896885   -3.254470
     35          1           0       -6.215184    9.644612   -2.594780
     36          1           0       -4.403839    8.855952   -1.150474
     37          1           0       -4.712385   10.156391    0.027985
     38          1           0       -5.899826    8.867824   -0.213035
     39          1           0       -6.798871   11.763304   -0.452453
     40          1           0       -7.602639   11.656556   -2.029427
     41          1           0       -7.813414   10.365582   -0.834631
     42          7           0       -4.233347   10.056056   -5.377198
     43          6           0       -3.996559    9.152746   -6.487900
     44          6           0       -3.356989    9.995472   -7.610038
     45          8           0       -3.155158   11.222860   -7.428038
     46          6           0       -5.278597    8.380991   -6.881553
     47          6           0       -4.986448    7.026061   -7.514907
     48          7           0       -5.821362    6.022979   -7.166193
     49          8           0       -4.064276    6.849775   -8.317107
     50          1           0       -4.025226   11.019770   -5.612191
     51          1           0       -3.245578    8.417627   -6.172129
     52          1           0       -5.863022    8.253483   -5.967442
     53          1           0       -5.888620    8.967711   -7.579509
     54          1           0       -5.641242    5.099580   -7.538124
     55          1           0       -6.489640    6.114709   -6.416063
     56          7           0       -3.000138    9.352956   -8.712490
     57          6           0       -2.177027    9.960421   -9.764453
     58          6           0       -0.942764   10.652326   -9.086026
     59          8           0       -0.695726   11.881991   -9.379897
     60          6           0       -3.021721   10.829763  -10.713701
     61          6           0       -2.395542   11.005758  -12.123325
     62          6           0       -2.201457   12.466472  -12.551472
     63          7           0       -1.251324   13.104737  -11.633750
     64          6           0       -0.026867   13.519020  -11.947504
     65          7           0        0.252958   14.082441  -13.140760
     66          7           0        0.943050   13.391096  -11.030799
     67          8           0       -0.323367    9.977055   -8.258000
     68          1           0       -3.211769    8.345418   -8.739392
     69          1           0       -1.774159    9.111391  -10.326460
     70          1           0       -3.207120   11.794725  -10.230106
     71          1           0       -3.999921   10.350877  -10.817123
     72          1           0       -1.417403   10.510491  -12.168914
     73          1           0       -3.024115   10.514695  -12.873639
     74          1           0       -1.818778   12.514215  -13.576057
     75          1           0       -3.151500   13.010994  -12.523593
     76          1           0       -1.273219   12.693924  -10.668483
     77          1           0        1.203453   14.136311  -13.475271
     78          1           0       -0.486399   14.284600  -13.796071
     79          1           0        1.754845   13.990460  -11.041659
     80          1           0        0.712938   12.846916  -10.190319
 ---------------------------------------------------------------------

 SCF Done:  E(RB3LYP) =  -1866.81643710     A.U. after    1 cycles

 Alpha  occ. eigenvalues --  -19.22680 -19.22467 -19.20999 -19.19680 -19.19492
 Alpha  occ. eigenvalues --  -19.17492 -14.52044 -14.50024 -14.48103 -14.47242
 Alpha  occ. eigenvalues --  -14.47088 -14.44726 -14.44723 -14.43347 -10.45083
 Alpha  occ. eigenvalues --  -10.39956 -10.38901 -10.38486 -10.36549 -10.36535
 Alpha  occ. eigenvalues --  -10.36356 -10.33772 -10.32665 -10.32048 -10.31555
 Alpha  occ. eigenvalues --  -10.31228 -10.29888 -10.29070 -10.28970 -10.28734
 Alpha  occ. eigenvalues --  -10.28571 -10.28531 -10.28500 -10.28461 -10.27928
 Alpha  occ. eigenvalues --  -10.27442 -10.25962 -10.23701 -10.23030  -1.15216
 Alpha  occ. eigenvalues --   -1.14114  -1.13802  -1.12586  -1.11836  -1.11343
 Alpha  occ. eigenvalues --   -1.07897  -1.03702  -1.03549  -1.02548  -1.01825
 Alpha  occ. eigenvalues --   -1.01581  -1.00455  -0.99505  -0.95562  -0.90517
 Alpha  occ. eigenvalues --   -0.89631  -0.88784  -0.87046  -0.84584  -0.84051
 Alpha  occ. eigenvalues --   -0.83753  -0.81939  -0.78437  -0.76884  -0.76462
 Alpha  occ. eigenvalues --   -0.75343  -0.74491  -0.73043  -0.70714  -0.70619
 Alpha  occ. eigenvalues --   -0.70527  -0.70011  -0.68857  -0.68337  -0.67601
 Alpha  occ. eigenvalues --   -0.67443  -0.67208  -0.66035  -0.65637  -0.64145
 Alpha  occ. eigenvalues --   -0.63054  -0.62896  -0.62588  -0.62406  -0.61718
 Alpha  occ. eigenvalues --   -0.60601  -0.60263  -0.59262  -0.58799  -0.58076
 Alpha  occ. eigenvalues --   -0.56990  -0.56703  -0.56250  -0.55615  -0.55441
 Alpha  occ. eigenvalues --   -0.55042  -0.54361  -0.53647  -0.53483  -0.53013
 Alpha  occ. eigenvalues --   -0.52662  -0.52291  -0.51809  -0.51543  -0.51256
 Alpha  occ. eigenvalues --   -0.51100  -0.50397  -0.50266  -0.50058  -0.49791
 Alpha  occ. eigenvalues --   -0.49548  -0.49076  -0.48491  -0.48289  -0.47630
 Alpha  occ. eigenvalues --   -0.47494  -0.46839  -0.46317  -0.45802  -0.45468
 Alpha  occ. eigenvalues --   -0.45234  -0.44742  -0.44434  -0.44403  -0.44046
 Alpha  occ. eigenvalues --   -0.43934  -0.43638  -0.43619  -0.42792  -0.40558
 Alpha  occ. eigenvalues --   -0.39997  -0.39415  -0.39186  -0.37846  -0.37398
 Alpha  occ. eigenvalues --   -0.37007  -0.36681  -0.36501  -0.35898  -0.34979
 Alpha  occ. eigenvalues --   -0.34859  -0.34312  -0.34219  -0.34012  -0.33322
 Alpha  occ. eigenvalues --   -0.32545  -0.31671
 Alpha virt. eigenvalues --   -0.10414  -0.10089  -0.09845  -0.09335  -0.08510
 Alpha virt. eigenvalues --   -0.06607  -0.05814  -0.05788  -0.04546  -0.02752
 Alpha virt. eigenvalues --   -0.01965  -0.01218  -0.00432  -0.00312   0.00275

 Mulliken charges:
               1
     1  N   -0.789811
     2  C   -0.081637
     3  C    0.632612
     4  O   -0.504103
     5  C   -0.402585
     6  C    0.125138
     7  C   -0.179827
     8  C   -0.188185
     9  C   -0.127886
    10  C   -0.135951
    11  C   -0.135709
    12  H    0.399983
    13  H    0.210980
    14  H    0.176775
    15  H    0.187206
    16  H    0.141020
    17  H    0.162439
    18  H    0.155400
    19  H    0.140828
    20  H    0.141514
    21  H    0.426421
    22  H    0.473202
    23  N   -0.654796
    24  C   -0.012430
    25  C    0.622598
    26  O   -0.515595
    27  C   -0.308237
    28  C   -0.076998
    29  C   -0.462188
    30  C   -0.445766
    31  H    0.348805
    32  H    0.206040
    33  H    0.151526
    34  H    0.136138
    35  H    0.143474
    36  H    0.177231
    37  H    0.138668
    38  H    0.155115
    39  H    0.146869
    40  H    0.139972
    41  H    0.157969
    42  N   -0.616724
    43  C   -0.049397
    44  C    0.615364
    45  O   -0.624736
    46  C   -0.373637
    47  C    0.632258
    48  N   -0.733665
    49  O   -0.531543
    50  H    0.344617
    51  H    0.222915
    52  H    0.187877
    53  H    0.187729
    54  H    0.362576
    55  H    0.358387
    56  N   -0.598386
    57  C   -0.039858
    58  C    0.584756
    59  O   -0.659934
    60  C   -0.287653
    61  C   -0.284837
    62  C   -0.170597
    63  N   -0.618182
    64  C    0.762503
    65  N   -0.752900
    66  N   -0.770617
    67  O   -0.549215
    68  H    0.408636
    69  H    0.174812
    70  H    0.167183
    71  H    0.161354
    72  H    0.160701
    73  H    0.170856
    74  H    0.154181
    75  H    0.181532
    76  H    0.432416
    77  H    0.373763
    78  H    0.376498
    79  H    0.358309
    80  H    0.406436
 Sum of Mulliken charges =   1.00000

 Dipole moment (field-independent basis, Debye):
    X=            -10.3470    Y=             63.1793    Z=            -44.4657  Tot=             77.9480
 Quadrupole moment (field-independent basis, Debye-Ang):
   XX=           -153.8410   YY=            633.2507   ZZ=            273.9821
   XY=            -81.2725   XZ=             57.2319   YZ=           -587.9452

 Normal termination of Gaussian 16 at Sat Jul 16 16:51:25 2022.
