 Gaussian 16, Revision C.01,
 Gaussian 16:  ES64L-G16RevC.01  3-Jul-2019

 -------------------------------------------------------------------
 # B3LYP/6-31G* guess=read geom=check nosymm integral(ultrafinegrid)
 -------------------------------------------------------------------

 ------------------------------------------------------
 Candidate Structure: Conf:727 Charge calc in gas phase
 ------------------------------------------------------
 Structure from the checkpoint file:  "conf-727.chk"
 Charge =  1 Multiplicity = 1

                          Input orientation:
 ---------------------------------------------------------------------
 Center     Atomic      Atomic             Coordinates (Angstroms)
 Number     Number       Type             X           Y           Z
 ---------------------------------------------------------------------
      1          7           0       -6.051397   -0.964115    0.848001
      2          1           0       -6.227134   -0.396348    0.016919
      3          1           0       -6.884181   -0.876757    1.429344
      4          6           0       -4.890654   -0.407842    1.540644
      5          1           0       -4.853906   -0.844886    2.546368
      6          6           0       -4.882835    1.127292    1.631197
      7          6           0       -3.592009   -0.772897    0.774068
      8          1           0       -3.753989   -0.545066   -0.288050
      9          1           0       -2.764877   -0.149620    1.116149
     10          8           0       -5.281804    1.824100    0.708262
     11          6           0       -3.116580   -2.217976    0.909526
     12          7           0       -4.087014   -3.152265    0.812130
     13          1           0       -3.840540   -4.130146    0.880181
     14          1           0       -5.052794   -2.858339    0.676080
     15          8           0       -1.923040   -2.476906    1.078846
     16          7           0       -4.304361    1.644929    2.772379
     17          1           0       -3.844486    0.967034    3.367751
     18          6           0       -3.648309    2.944607    2.721400
     19          1           0       -4.239341    3.549595    2.029680
     20          6           0       -2.248719    2.721074    2.110421
     21          6           0       -3.620873    3.631513    4.117932
     22          1           0       -4.667709    3.599717    4.448165
     23          8           0       -1.683074    1.623398    2.199662
     24          6           0       -3.194122    5.114097    4.064114
     25          1           0       -2.141501    5.188571    3.756194
     26          1           0       -3.220709    5.491904    5.093357
     27          6           0       -2.771407    2.861192    5.141649
     28          1           0       -1.710967    2.846540    4.862777
     29          1           0       -2.847064    3.337773    6.124141
     30          1           0       -3.103048    1.824185    5.266426
     31          6           0       -4.070005    6.024551    3.193363
     32          1           0       -3.764994    7.070325    3.301457
     33          1           0       -4.018807    5.784356    2.122467
     34          1           0       -5.124564    5.955565    3.483441
     35          7           0       -1.656047    3.750375    1.454701
     36          1           0       -2.166099    4.618766    1.346624
     37          6           0       -0.461198    3.595396    0.616054
     38          1           0       -0.775817    3.372076   -0.412390
     39          6           0        0.375347    2.420519    1.095008
     40          6           0        0.374285    4.884969    0.620596
     41          1           0        1.233378    4.786836   -0.049501
     42          1           0       -0.234217    5.720404    0.260239
     43          1           0        0.730028    5.110304    1.628676
     44          8           0        0.959306    2.532596    2.251114
     45          7           0        0.590867    1.417292    0.283198
     46          1           0        0.090109    1.343088   -0.611685
     47          6           0        1.456323    0.244150    0.486159
     48          1           0        2.442481    0.586920    0.823289
     49          6           0        1.543912   -0.373835   -0.935904
     50          6           0        0.863653   -0.729710    1.549206
     51          1           0       -0.089759   -1.136170    1.191560
     52          8           0        0.689814   -0.067034   -1.770836
     53          6           0        1.805121   -1.861633    1.934038
     54          1           0        1.993031   -2.546287    1.103337
     55          1           0        1.339870   -2.436165    2.738836
     56          1           0        2.762708   -1.474717    2.302744
     57          8           0        0.614830    0.057568    2.746238
     58          1           0        1.098763    1.589171    2.617144
     59          7           0        2.571729   -1.202802   -1.166948
     60          1           0        3.174784   -1.531561   -0.412939
     61          6           0        2.665336   -2.036050   -2.358567
     62          1           0        1.669016   -2.413432   -2.619830
     63          6           0        3.579331   -3.219162   -1.963298
     64          6           0        3.183044   -1.244288   -3.573345
     65          1           0        4.236450   -0.968255   -3.421915
     66          1           0        2.585998   -0.329754   -3.670043
     67          8           0        3.977460   -3.327497   -0.794900
     68          8           0        3.013206   -2.088509   -4.709191
     69          1           0        3.431920   -1.673379   -5.478670
     70          7           0        3.877291   -4.083095   -2.946047
     71          1           0        3.626720   -3.811730   -3.894083
     72          6           0        4.762169   -5.227590   -2.729238
     73          1           0        4.519705   -5.668599   -1.758844
     74          1           0        4.575457   -5.957983   -3.517068
     75          6           0        6.246679   -4.822332   -2.810583
     76          8           0        6.888488   -4.951568   -3.845251
     77          7           0        6.749354   -4.301395   -1.657134
     78          1           0        6.114776   -4.103608   -0.890730
     79          6           0        8.108075   -3.774533   -1.594181
     80          1           0        8.719309   -4.367038   -2.278214
     81          6           0        8.690421   -3.957257   -0.200694
     82          6           0        8.170147   -2.287533   -2.029177
     83          1           0        7.706921   -2.243995   -3.022660
     84          1           0        7.538744   -1.696973   -1.350646
     85          8           0        9.853845   -4.170599    0.042706
     86          6           0        9.581482   -1.690261   -2.094014
     87          1           0       10.048687   -1.720407   -1.101578
     88          1           0       10.209542   -2.316247   -2.742544
     89          6           0        9.575520   -0.247302   -2.614269
     90          1           0        8.924244    0.380974   -1.991978
     91          1           0        9.147538   -0.227062   -3.628541
     92          6           0       10.966490    0.390535   -2.644705
     93          1           0       11.372881    0.413464   -1.625502
     94          1           0       11.646401   -0.248550   -3.237533
     95          7           0       10.882976    1.777232   -3.120457
     96          1           0       10.660589    1.780550   -4.115844
     97          1           0       11.796439    2.221753   -3.041811
     98          8           0        7.753970   -3.787955    0.771066
     99          1           0        8.219253   -3.904138    1.621385
    100          1           0       -0.343996    0.235636    2.800421
 ---------------------------------------------------------------------

 SCF Done:  E(RB3LYP) =  -2418.42733050     A.U. after    1 cycles

 Alpha  occ. eigenvalues --  -19.33362 -19.28832 -19.26279 -19.26091 -19.25762
 Alpha  occ. eigenvalues --  -19.24694 -19.22209 -19.21633 -19.20207 -19.19125
 Alpha  occ. eigenvalues --  -19.17695 -14.53373 -14.50580 -14.47967 -14.45820
 Alpha  occ. eigenvalues --  -14.45523 -14.42519 -14.42194 -14.41619 -14.35594
 Alpha  occ. eigenvalues --  -10.47714 -10.42556 -10.41886 -10.39371 -10.38982
 Alpha  occ. eigenvalues --  -10.38315 -10.38135 -10.37766 -10.36768 -10.36501
 Alpha  occ. eigenvalues --  -10.35170 -10.34353 -10.34209 -10.34104 -10.32446
 Alpha  occ. eigenvalues --  -10.31772 -10.30466 -10.29989 -10.29835 -10.28191
 Alpha  occ. eigenvalues --  -10.28098 -10.27899 -10.27397 -10.27159 -10.25174
 Alpha  occ. eigenvalues --  -10.25152 -10.23590 -10.23023  -1.24705  -1.17839
 Alpha  occ. eigenvalues --   -1.16931  -1.16900  -1.15284  -1.13984  -1.13391
 Alpha  occ. eigenvalues --   -1.12702  -1.10497  -1.10102  -1.09624  -1.07895
 Alpha  occ. eigenvalues --   -1.06705  -1.04562  -1.02718  -1.01739  -0.99114
 Alpha  occ. eigenvalues --   -0.98790  -0.97131  -0.93879  -0.92270  -0.91421
 Alpha  occ. eigenvalues --   -0.90280  -0.87226  -0.85998  -0.85485  -0.84676
 Alpha  occ. eigenvalues --   -0.83371  -0.82088  -0.81422  -0.79643  -0.79271
 Alpha  occ. eigenvalues --   -0.76864  -0.75786  -0.75022  -0.74589  -0.73962
 Alpha  occ. eigenvalues --   -0.72889  -0.72078  -0.71448  -0.70152  -0.68810
 Alpha  occ. eigenvalues --   -0.68499  -0.67973  -0.67708  -0.67137  -0.66306
 Alpha  occ. eigenvalues --   -0.65637  -0.65602  -0.65029  -0.64323  -0.63535
 Alpha  occ. eigenvalues --   -0.63286  -0.62680  -0.62234  -0.61340  -0.60841
 Alpha  occ. eigenvalues --   -0.60461  -0.59995  -0.59519  -0.58909  -0.58569
 Alpha  occ. eigenvalues --   -0.57460  -0.57255  -0.56618  -0.56357  -0.55613
 Alpha  occ. eigenvalues --   -0.55368  -0.55011  -0.54790  -0.54684  -0.54216
 Alpha  occ. eigenvalues --   -0.54146  -0.53937  -0.53922  -0.53608  -0.53376
 Alpha  occ. eigenvalues --   -0.53013  -0.52476  -0.52360  -0.52186  -0.51617
 Alpha  occ. eigenvalues --   -0.51520  -0.51436  -0.51081  -0.50698  -0.50552
 Alpha  occ. eigenvalues --   -0.49954  -0.49869  -0.49662  -0.49544  -0.49312
 Alpha  occ. eigenvalues --   -0.49081  -0.48938  -0.48152  -0.47952  -0.47659
 Alpha  occ. eigenvalues --   -0.47525  -0.47192  -0.47053  -0.46716  -0.46231
 Alpha  occ. eigenvalues --   -0.46118  -0.46097  -0.45580  -0.45249  -0.44682
 Alpha  occ. eigenvalues --   -0.44337  -0.44288  -0.43893  -0.43670  -0.43463
 Alpha  occ. eigenvalues --   -0.42803  -0.42357  -0.42260  -0.41470  -0.40556
 Alpha  occ. eigenvalues --   -0.39829  -0.39432  -0.39380  -0.38805  -0.38723
 Alpha  occ. eigenvalues --   -0.38366  -0.38251  -0.37568  -0.37541  -0.36837
 Alpha  occ. eigenvalues --   -0.36622  -0.35984  -0.35735  -0.34319  -0.34135
 Alpha  occ. eigenvalues --   -0.33816  -0.32601  -0.31395  -0.30531  -0.27874
 Alpha virt. eigenvalues --   -0.16378  -0.11921  -0.10655  -0.08265  -0.07865
 Alpha virt. eigenvalues --   -0.05966  -0.05760  -0.04689  -0.04291  -0.03815
 Alpha virt. eigenvalues --   -0.02866  -0.02783  -0.01375  -0.01213  -0.00334

 Mulliken charges:
               1
     1  N   -0.722824
     2  H    0.331160
     3  H    0.324782
     4  C   -0.092926
     5  H    0.155307
     6  C    0.595447
     7  C   -0.376915
     8  H    0.184703
     9  H    0.177358
    10  O   -0.510466
    11  C    0.581957
    12  N   -0.737772
    13  H    0.346214
    14  H    0.382205
    15  O   -0.529567
    16  N   -0.582755
    17  H    0.338422
    18  C   -0.097767
    19  H    0.200329
    20  C    0.665490
    21  C   -0.080943
    22  H    0.167560
    23  O   -0.572840
    24  C   -0.276194
    25  H    0.130471
    26  H    0.166300
    27  C   -0.474586
    28  H    0.152107
    29  H    0.175786
    30  H    0.149111
    31  C   -0.466275
    32  H    0.171635
    33  H    0.127936
    34  H    0.173625
    35  N   -0.612114
    36  H    0.363711
    37  C   -0.008478
    38  H    0.194258
    39  C    0.649842
    40  C   -0.479329
    41  H    0.189026
    42  H    0.186473
    43  H    0.207583
    44  O   -0.575975
    45  N   -0.571389
    46  H    0.397318
    47  C   -0.110077
    48  H    0.195344
    49  C    0.637570
    50  C    0.097616
    51  H    0.227339
    52  O   -0.531674
    53  C   -0.473355
    54  H    0.185047
    55  H    0.197866
    56  H    0.158628
    57  O   -0.674263
    58  H    0.473683
    59  N   -0.628511
    60  H    0.377443
    61  C   -0.057628
    62  H    0.216369
    63  C    0.606444
    64  C   -0.041227
    65  H    0.152719
    66  H    0.172813
    67  O   -0.555881
    68  O   -0.623381
    69  H    0.423474
    70  N   -0.589323
    71  H    0.381789
    72  C   -0.237740
    73  H    0.192840
    74  H    0.196381
    75  C    0.595724
    76  O   -0.504625
    77  N   -0.613700
    78  H    0.368355
    79  C   -0.036261
    80  H    0.208120
    81  C    0.587181
    82  C   -0.270473
    83  H    0.156891
    84  H    0.130677
    85  O   -0.448631
    86  C   -0.270572
    87  H    0.153271
    88  H    0.150955
    89  C   -0.245730
    90  H    0.136483
    91  H    0.122001
    92  C   -0.138057
    93  H    0.142624
    94  H    0.121482
    95  N   -0.720243
    96  H    0.292085
    97  H    0.301446
    98  O   -0.580380
    99  H    0.418215
   100  H    0.455852
 Sum of Mulliken charges =   1.00000

 Dipole moment (field-independent basis, Debye):
    X=             -2.1545    Y=              8.1230    Z=              3.8967  Tot=              9.2633
 Quadrupole moment (field-independent basis, Debye-Ang):
   XX=           -227.2581   YY=           -230.2758   ZZ=           -237.3855
   XY=              6.3169   XZ=            -37.6411   YZ=             12.7802

 Normal termination of Gaussian 16 at Fri May 27 02:51:11 2022.
