 Gaussian 16, Revision C.01,
 Gaussian 16:  ES64L-G16RevC.01  3-Jul-2019

 -------------------------------------------------------------------
 # B3LYP/6-31G* guess=read geom=check nosymm integral(ultrafinegrid)
 -------------------------------------------------------------------

 ------------------------------------------------------
 Candidate Structure: Conf:879 Charge calc in gas phase
 ------------------------------------------------------
 Structure from the checkpoint file:  "conf-879.chk"
 Charge =  1 Multiplicity = 1

                          Input orientation:
 ---------------------------------------------------------------------
 Center     Atomic      Atomic             Coordinates (Angstroms)
 Number     Number       Type             X           Y           Z
 ---------------------------------------------------------------------
      1          7           0       -5.812926   -2.864415    3.146507
      2          1           0       -6.463730   -2.531758    2.432413
      3          1           0       -6.342307   -2.815770    4.016079
      4          6           0       -4.704793   -1.922991    3.211716
      5          1           0       -4.228256   -2.028438    4.193450
      6          6           0       -5.162902   -0.451279    3.048199
      7          6           0       -3.655299   -2.288037    2.104552
      8          1           0       -3.895065   -3.299374    1.767629
      9          1           0       -3.749346   -1.610694    1.247725
     10          8           0       -6.291198   -0.178625    2.659371
     11          6           0       -2.222986   -2.202288    2.588351
     12          7           0       -1.502900   -3.342800    2.566485
     13          1           0       -0.581135   -3.353597    2.984902
     14          1           0       -1.923449   -4.229769    2.327498
     15          8           0       -1.726346   -1.130453    2.986598
     16          7           0       -4.223301    0.485774    3.373922
     17          1           0       -3.263210    0.151598    3.435215
     18          6           0       -4.421422    1.891258    3.053240
     19          1           0       -5.377155    1.942580    2.513795
     20          6           0       -3.335135    2.292214    2.042765
     21          6           0       -4.539777    2.783333    4.321047
     22          1           0       -4.673627    3.822530    3.975556
     23          8           0       -2.792797    1.463284    1.308494
     24          6           0       -3.275516    2.717315    5.205389
     25          1           0       -2.380344    2.853268    4.582173
     26          1           0       -3.201361    1.706990    5.628279
     27          6           0       -5.814710    2.414078    5.095942
     28          1           0       -5.738926    1.401157    5.505150
     29          1           0       -5.982078    3.103604    5.928056
     30          1           0       -6.697553    2.446847    4.449391
     31          6           0       -3.243006    3.748754    6.339823
     32          1           0       -2.299871    3.685036    6.892767
     33          1           0       -3.331989    4.772529    5.954228
     34          1           0       -4.053873    3.594759    7.058295
     35          7           0       -2.958361    3.601484    1.955689
     36          1           0       -3.272966    4.277553    2.636857
     37          6           0       -1.854807    3.956506    1.077830
     38          1           0       -2.186670    3.918756    0.032677
     39          6           0       -0.750470    2.917912    1.236643
     40          6           0       -1.331638    5.362726    1.403900
     41          1           0       -0.524784    5.641418    0.720502
     42          1           0       -2.139085    6.091446    1.284178
     43          1           0       -0.954664    5.411529    2.429892
     44          8           0       -0.366633    2.651028    2.441953
     45          7           0       -0.161913    2.414800    0.177917
     46          1           0       -0.565007    2.560931   -0.753486
     47          6           0        0.938480    1.439361    0.134675
     48          1           0        1.781555    1.815036    0.727205
     49          6           0        1.315927    1.390948   -1.369236
     50          6           0        0.497765    0.072228    0.725752
     51          1           0       -0.505951   -0.144832    0.342321
     52          8           0        0.478238    1.720654   -2.209314
     53          6           0        1.441298   -1.090689    0.440942
     54          1           0        1.481848   -1.331670   -0.624634
     55          1           0        1.074802   -1.976732    0.968602
     56          1           0        2.455398   -0.885375    0.799325
     57          8           0        0.422853    0.280250    2.155936
     58          1           0        0.068202    1.707266    2.470219
     59          7           0        2.569869    1.005038   -1.648037
     60          1           0        3.215761    0.678874   -0.929962
     61          6           0        3.064615    0.767023   -2.996075
     62          1           0        2.250102    0.394692   -3.625994
     63          6           0        4.194373   -0.270040   -2.843364
     64          6           0        3.604120    2.075598   -3.615372
     65          1           0        4.444424    2.436717   -3.007194
     66          1           0        2.799731    2.822088   -3.587340
     67          8           0        4.721339   -0.439667   -1.744172
     68          8           0        4.005157    1.810730   -4.953593
     69          1           0        4.684768    2.464778   -5.200872
     70          7           0        4.557078   -0.914489   -3.976582
     71          1           0        4.082835   -0.651476   -4.831648
     72          6           0        5.790118   -1.683666   -4.075876
     73          1           0        6.097665   -1.954537   -3.064477
     74          1           0        5.610239   -2.610336   -4.629114
     75          6           0        6.975795   -0.965678   -4.749618
     76          8           0        8.050282   -1.541348   -4.835790
     77          7           0        6.724570    0.286633   -5.228194
     78          1           0        5.798584    0.683835   -5.116629
     79          6           0        7.741293    1.073373   -5.912699
     80          1           0        8.701111    0.596954   -5.708489
     81          6           0        7.835229    2.484338   -5.351181
     82          6           0        7.513689    1.167766   -7.445246
     83          1           0        6.534428    1.633558   -7.621029
     84          1           0        8.267800    1.853809   -7.852267
     85          8           0        8.847728    3.115216   -5.196751
     86          6           0        7.592522   -0.174549   -8.188863
     87          1           0        6.846617   -0.868834   -7.775796
     88          1           0        7.297915    0.020510   -9.227758
     89          6           0        8.979924   -0.829840   -8.176790
     90          1           0        9.265884   -1.080654   -7.148220
     91          1           0        9.717858   -0.118351   -8.570102
     92          6           0        9.053929   -2.111342   -9.016316
     93          1           0       10.072988   -2.507971   -8.945968
     94          1           0        8.391093   -2.875424   -8.569589
     95          7           0        8.778825   -1.847334  -10.435927
     96          1           0        7.774628   -1.799788  -10.597457
     97          1           0        9.110940   -2.625864  -11.001563
     98          8           0        6.601164    3.050279   -5.091427
     99          1           0        6.796604    3.964308   -4.807047
    100          1           0       -0.280900   -0.315597    2.532035
 ---------------------------------------------------------------------

 SCF Done:  E(RB3LYP) =  -2418.43653779     A.U. after    3 cycles

 Alpha  occ. eigenvalues --  -19.32444 -19.29000 -19.28877 -19.25354 -19.24779
 Alpha  occ. eigenvalues --  -19.24651 -19.23514 -19.22389 -19.22302 -19.19955
 Alpha  occ. eigenvalues --  -19.18237 -14.52594 -14.48390 -14.48298 -14.48267
 Alpha  occ. eigenvalues --  -14.46447 -14.43769 -14.43415 -14.39318 -14.35098
 Alpha  occ. eigenvalues --  -10.46537 -10.42151 -10.41792 -10.40318 -10.40238
 Alpha  occ. eigenvalues --  -10.39369 -10.38131 -10.37951 -10.37822 -10.36541
 Alpha  occ. eigenvalues --  -10.36169 -10.34571 -10.34284 -10.32503 -10.31869
 Alpha  occ. eigenvalues --  -10.31224 -10.31094 -10.31043 -10.29703 -10.29616
 Alpha  occ. eigenvalues --  -10.28676 -10.26727 -10.25788 -10.25320 -10.24994
 Alpha  occ. eigenvalues --  -10.24625 -10.23788 -10.21876  -1.23835  -1.18995
 Alpha  occ. eigenvalues --   -1.17009  -1.16132  -1.15645  -1.15061  -1.14320
 Alpha  occ. eigenvalues --   -1.12507  -1.11727  -1.10418  -1.10057  -1.09432
 Alpha  occ. eigenvalues --   -1.04941  -1.04752  -1.02906  -1.02770  -1.00819
 Alpha  occ. eigenvalues --   -0.99767  -0.97117  -0.93163  -0.91763  -0.90651
 Alpha  occ. eigenvalues --   -0.88961  -0.87684  -0.86419  -0.85926  -0.84914
 Alpha  occ. eigenvalues --   -0.82620  -0.82157  -0.80205  -0.79619  -0.78887
 Alpha  occ. eigenvalues --   -0.76280  -0.76052  -0.75182  -0.74865  -0.73479
 Alpha  occ. eigenvalues --   -0.72097  -0.71926  -0.71110  -0.70706  -0.69990
 Alpha  occ. eigenvalues --   -0.69744  -0.68769  -0.67552  -0.66916  -0.66685
 Alpha  occ. eigenvalues --   -0.66353  -0.66235  -0.65579  -0.64598  -0.64038
 Alpha  occ. eigenvalues --   -0.63024  -0.62900  -0.61828  -0.61459  -0.60891
 Alpha  occ. eigenvalues --   -0.60402  -0.59979  -0.59507  -0.58991  -0.58435
 Alpha  occ. eigenvalues --   -0.57923  -0.57484  -0.56797  -0.56574  -0.56158
 Alpha  occ. eigenvalues --   -0.56068  -0.55696  -0.55118  -0.54478  -0.54415
 Alpha  occ. eigenvalues --   -0.53903  -0.53767  -0.53611  -0.53260  -0.53124
 Alpha  occ. eigenvalues --   -0.52951  -0.52566  -0.52220  -0.52047  -0.51925
 Alpha  occ. eigenvalues --   -0.51627  -0.51477  -0.51021  -0.50976  -0.50840
 Alpha  occ. eigenvalues --   -0.50644  -0.50317  -0.49852  -0.49729  -0.49457
 Alpha  occ. eigenvalues --   -0.49289  -0.49153  -0.48929  -0.48355  -0.47978
 Alpha  occ. eigenvalues --   -0.47566  -0.47183  -0.46744  -0.46493  -0.46273
 Alpha  occ. eigenvalues --   -0.46039  -0.45726  -0.45406  -0.44637  -0.44273
 Alpha  occ. eigenvalues --   -0.44226  -0.43895  -0.43803  -0.43643  -0.42812
 Alpha  occ. eigenvalues --   -0.42122  -0.41845  -0.41364  -0.41218  -0.40564
 Alpha  occ. eigenvalues --   -0.40499  -0.39797  -0.39256  -0.39209  -0.38524
 Alpha  occ. eigenvalues --   -0.38508  -0.38043  -0.37984  -0.37678  -0.37028
 Alpha  occ. eigenvalues --   -0.36819  -0.36716  -0.36310  -0.35760  -0.34232
 Alpha  occ. eigenvalues --   -0.33800  -0.32220  -0.32169  -0.31569  -0.27339
 Alpha virt. eigenvalues --   -0.15306  -0.10862  -0.10301  -0.09299  -0.08202
 Alpha virt. eigenvalues --   -0.07522  -0.06043  -0.04336  -0.04235  -0.03862
 Alpha virt. eigenvalues --   -0.03188  -0.03069  -0.01923  -0.01069  -0.00440

 Mulliken charges:
               1
     1  N   -0.700558
     2  H    0.323930
     3  H    0.317655
     4  C   -0.087407
     5  H    0.168266
     6  C    0.576954
     7  C   -0.366467
     8  H    0.184142
     9  H    0.204990
    10  O   -0.506286
    11  C    0.618030
    12  N   -0.723848
    13  H    0.359943
    14  H    0.371584
    15  O   -0.572591
    16  N   -0.608004
    17  H    0.371257
    18  C   -0.073189
    19  H    0.216433
    20  C    0.630549
    21  C   -0.094260
    22  H    0.113382
    23  O   -0.543519
    24  C   -0.274180
    25  H    0.126395
    26  H    0.151629
    27  C   -0.457551
    28  H    0.160656
    29  H    0.162145
    30  H    0.167373
    31  C   -0.449910
    32  H    0.158052
    33  H    0.137568
    34  H    0.166323
    35  N   -0.613614
    36  H    0.357823
    37  C    0.004144
    38  H    0.192076
    39  C    0.660124
    40  C   -0.498459
    41  H    0.187000
    42  H    0.196759
    43  H    0.194999
    44  O   -0.580303
    45  N   -0.584388
    46  H    0.396373
    47  C   -0.102803
    48  H    0.203377
    49  C    0.622441
    50  C    0.138846
    51  H    0.186698
    52  O   -0.526160
    53  C   -0.470512
    54  H    0.175662
    55  H    0.165286
    56  H    0.181423
    57  O   -0.703408
    58  H    0.484201
    59  N   -0.620199
    60  H    0.372013
    61  C   -0.074205
    62  H    0.197728
    63  C    0.611364
    64  C   -0.031516
    65  H    0.152362
    66  H    0.168106
    67  O   -0.525719
    68  O   -0.646278
    69  H    0.440065
    70  N   -0.602384
    71  H    0.355210
    72  C   -0.244428
    73  H    0.230398
    74  H    0.200514
    75  C    0.607034
    76  O   -0.497589
    77  N   -0.643852
    78  H    0.356253
    79  C   -0.050275
    80  H    0.223762
    81  C    0.596636
    82  C   -0.276026
    83  H    0.133678
    84  H    0.170202
    85  O   -0.426937
    86  C   -0.264569
    87  H    0.122474
    88  H    0.151719
    89  C   -0.253989
    90  H    0.161830
    91  H    0.144139
    92  C   -0.149339
    93  H    0.147522
    94  H    0.114782
    95  N   -0.716203
    96  H    0.292938
    97  H    0.303142
    98  O   -0.617970
    99  H    0.422788
   100  H    0.467749
 Sum of Mulliken charges =   1.00000

 Dipole moment (field-independent basis, Debye):
    X=             -2.2364    Y=              5.7928    Z=              2.3112  Tot=              6.6257
 Quadrupole moment (field-independent basis, Debye-Ang):
   XX=           -300.2649   YY=           -203.8194   ZZ=           -216.1131
   XY=             -4.8099   XZ=            -40.3603   YZ=              7.8067

 Normal termination of Gaussian 16 at Fri May 27 02:51:33 2022.
