 Gaussian 16, Revision C.01,
 Gaussian 16:  ES64L-G16RevC.01  3-Jul-2019

 -------------------------------------------------------------------
 # B3LYP/6-31G* guess=read geom=check nosymm integral(ultrafinegrid)
 -------------------------------------------------------------------

 ------------------------------------------------------
 Candidate Structure: Conf:731 Charge calc in gas phase
 ------------------------------------------------------
 Structure from the checkpoint file:  "conf-731.chk"
 Charge =  1 Multiplicity = 1

                          Input orientation:
 ---------------------------------------------------------------------
 Center     Atomic      Atomic             Coordinates (Angstroms)
 Number     Number       Type             X           Y           Z
 ---------------------------------------------------------------------
      1          7           0       -6.033834   -0.654323   -1.333491
      2          1           0       -5.612084   -0.166322   -2.125878
      3          1           0       -6.872392   -0.125421   -1.096257
      4          6           0       -5.081581   -0.605197   -0.221340
      5          1           0       -5.619790   -0.861901    0.699537
      6          6           0       -4.424628    0.775153   -0.076830
      7          6           0       -3.937526   -1.626196   -0.441114
      8          1           0       -3.520301   -1.455643   -1.443155
      9          1           0       -3.128164   -1.453444    0.273585
     10          8           0       -4.171071    1.473708   -1.053939
     11          6           0       -4.314536   -3.108733   -0.306646
     12          7           0       -5.503761   -3.451463   -0.861985
     13          1           0       -5.795048   -4.418124   -0.821841
     14          1           0       -6.078957   -2.739013   -1.306364
     15          8           0       -3.557736   -3.896838    0.246842
     16          7           0       -4.087422    1.154855    1.196413
     17          1           0       -4.128723    0.452558    1.923070
     18          6           0       -3.172143    2.269102    1.392961
     19          1           0       -3.556773    3.085783    0.777192
     20          6           0       -1.789837    1.863251    0.832533
     21          6           0       -3.165300    2.736053    2.874422
     22          1           0       -4.223234    2.932150    3.099021
     23          8           0       -1.318592    0.731033    1.061876
     24          6           0       -2.398171    4.062190    3.069487
     25          1           0       -1.348077    3.933372    2.770466
     26          1           0       -2.375271    4.270198    4.146257
     27          6           0       -2.669659    1.670153    3.865985
     28          1           0       -1.605938    1.448735    3.735739
     29          1           0       -2.809336    2.029282    4.890769
     30          1           0       -3.213813    0.722089    3.787625
     31          6           0       -2.996248    5.280121    2.354250
     32          1           0       -2.448470    6.189464    2.621506
     33          1           0       -2.961667    5.195842    1.261071
     34          1           0       -4.044895    5.429185    2.636376
     35          7           0       -1.156241    2.776164    0.066152
     36          1           0       -1.665429    3.627166   -0.139970
     37          6           0       -0.039439    2.489324   -0.864037
     38          1           0       -0.306150    1.579727   -1.416759
     39          6           0        1.274640    2.208706   -0.092389
     40          6           0        0.137093    3.654598   -1.830350
     41          1           0        0.902930    3.408461   -2.575313
     42          1           0       -0.804233    3.852816   -2.354614
     43          1           0        0.455744    4.552902   -1.293028
     44          8           0        2.151106    3.032840    0.094720
     45          7           0        1.354953    0.898488    0.340114
     46          1           0        0.447921    0.431740    0.384106
     47          6           0        2.340327    0.500887    1.331105
     48          1           0        3.182845    1.193983    1.247593
     49          6           0        2.786218   -0.909264    0.965667
     50          6           0        1.777084    0.509314    2.780383
     51          1           0        2.523372    0.053372    3.441368
     52          8           0        2.097373   -1.932178    1.383645
     53          6           0        1.435596    1.897681    3.297733
     54          1           0        2.326514    2.532993    3.309079
     55          1           0        1.049081    1.818934    4.317648
     56          1           0        0.683725    2.387853    2.673435
     57          8           0        0.651370   -0.397722    2.835240
     58          1           0       -0.133048    0.011378    2.402026
     59          7           0        3.830188   -1.109960    0.214433
     60          1           0        4.392227   -0.319611   -0.126093
     61          6           0        4.339082   -2.385796   -0.292979
     62          1           0        4.421527   -3.107651    0.524706
     63          6           0        5.708866   -2.033993   -0.893021
     64          6           0        3.407374   -2.980509   -1.406941
     65          1           0        3.230180   -2.200832   -2.159243
     66          1           0        2.453047   -3.245678   -0.943448
     67          8           0        6.003584   -0.855898   -1.103033
     68          8           0        3.968263   -4.140038   -1.964391
     69          1           0        4.502414   -3.864392   -2.744238
     70          7           0        6.494891   -3.087622   -1.215659
     71          1           0        6.026389   -3.989274   -1.203047
     72          6           0        7.513846   -2.900081   -2.236484
     73          1           0        8.176599   -2.083966   -1.940425
     74          1           0        8.107540   -3.816350   -2.308385
     75          6           0        6.845691   -2.601376   -3.595540
     76          8           0        5.694179   -2.983187   -3.838641
     77          7           0        7.588392   -1.898223   -4.466575
     78          1           0        8.557310   -1.677842   -4.259883
     79          6           0        7.144743   -1.555339   -5.813465
     80          1           0        6.425724   -2.312300   -6.139889
     81          6           0        8.379085   -1.603108   -6.706998
     82          6           0        6.486996   -0.152394   -5.895076
     83          1           0        7.238704    0.601770   -5.624716
     84          1           0        6.220677    0.024623   -6.943889
     85          8           0        9.517447   -1.606446   -6.289434
     86          6           0        5.250399    0.001779   -5.000953
     87          1           0        4.521557   -0.780053   -5.251964
     88          1           0        5.534749   -0.165704   -3.954679
     89          6           0        4.587283    1.381012   -5.117515
     90          1           0        4.262851    1.557481   -6.153476
     91          1           0        5.318965    2.167914   -4.881729
     92          6           0        3.379069    1.519129   -4.176038
     93          1           0        2.643760    0.738048   -4.411512
     94          1           0        3.705501    1.336987   -3.142921
     95          7           0        2.676485    2.807457   -4.194827
     96          1           0        2.341941    3.003500   -5.138175
     97          1           0        3.329375    3.558002   -3.969914
     98          8           0        8.053046   -1.596362   -8.009373
     99          1           0        8.887004   -1.587969   -8.518175
    100          1           0        1.350516   -1.590371    1.987825
 ---------------------------------------------------------------------

 SCF Done:  E(RB3LYP) =  -2418.44555212     A.U. after    1 cycles

 Alpha  occ. eigenvalues --  -19.34192 -19.29085 -19.28613 -19.24443 -19.24279
 Alpha  occ. eigenvalues --  -19.23908 -19.23133 -19.23073 -19.22579 -19.20442
 Alpha  occ. eigenvalues --  -19.15699 -14.53319 -14.48073 -14.47421 -14.47240
 Alpha  occ. eigenvalues --  -14.46328 -14.45029 -14.40184 -14.39597 -14.39417
 Alpha  occ. eigenvalues --  -10.46978 -10.41146 -10.41002 -10.40631 -10.39859
 Alpha  occ. eigenvalues --  -10.39617 -10.37609 -10.37573 -10.36938 -10.36405
 Alpha  occ. eigenvalues --  -10.34676 -10.34209 -10.33785 -10.33778 -10.33190
 Alpha  occ. eigenvalues --  -10.33041 -10.30887 -10.29326 -10.29119 -10.28532
 Alpha  occ. eigenvalues --  -10.27595 -10.27399 -10.26941 -10.26430 -10.26231
 Alpha  occ. eigenvalues --  -10.26139 -10.26099 -10.25783  -1.24973  -1.19669
 Alpha  occ. eigenvalues --   -1.16600  -1.16106  -1.15227  -1.14713  -1.14093
 Alpha  occ. eigenvalues --   -1.12226  -1.11759  -1.10812  -1.10170  -1.07506
 Alpha  occ. eigenvalues --   -1.04535  -1.04060  -1.03864  -1.02808  -1.01583
 Alpha  occ. eigenvalues --   -0.97454  -0.95817  -0.94386  -0.92285  -0.90543
 Alpha  occ. eigenvalues --   -0.89520  -0.88869  -0.87202  -0.85211  -0.83954
 Alpha  occ. eigenvalues --   -0.83687  -0.82190  -0.82020  -0.80043  -0.79801
 Alpha  occ. eigenvalues --   -0.77377  -0.75867  -0.75214  -0.73820  -0.73117
 Alpha  occ. eigenvalues --   -0.72422  -0.71728  -0.70467  -0.70338  -0.69690
 Alpha  occ. eigenvalues --   -0.69204  -0.68109  -0.67949  -0.67625  -0.67420
 Alpha  occ. eigenvalues --   -0.66436  -0.65852  -0.64875  -0.64241  -0.63527
 Alpha  occ. eigenvalues --   -0.63268  -0.62478  -0.61534  -0.60941  -0.60313
 Alpha  occ. eigenvalues --   -0.59726  -0.59283  -0.59011  -0.58728  -0.58395
 Alpha  occ. eigenvalues --   -0.58175  -0.57979  -0.57909  -0.57598  -0.56630
 Alpha  occ. eigenvalues --   -0.56314  -0.56095  -0.55770  -0.55327  -0.55218
 Alpha  occ. eigenvalues --   -0.54808  -0.54441  -0.53850  -0.53591  -0.53532
 Alpha  occ. eigenvalues --   -0.52875  -0.52363  -0.52224  -0.51927  -0.51550
 Alpha  occ. eigenvalues --   -0.51516  -0.51331  -0.51095  -0.50951  -0.50635
 Alpha  occ. eigenvalues --   -0.50544  -0.50068  -0.49994  -0.49548  -0.49168
 Alpha  occ. eigenvalues --   -0.48873  -0.48811  -0.48615  -0.48410  -0.47700
 Alpha  occ. eigenvalues --   -0.47168  -0.47120  -0.46894  -0.46527  -0.45950
 Alpha  occ. eigenvalues --   -0.45842  -0.45730  -0.45473  -0.45214  -0.44777
 Alpha  occ. eigenvalues --   -0.44588  -0.44479  -0.43811  -0.43787  -0.43028
 Alpha  occ. eigenvalues --   -0.42624  -0.42581  -0.42240  -0.41852  -0.41793
 Alpha  occ. eigenvalues --   -0.41634  -0.41372  -0.40863  -0.40430  -0.39364
 Alpha  occ. eigenvalues --   -0.38864  -0.38730  -0.38423  -0.37420  -0.36838
 Alpha  occ. eigenvalues --   -0.36707  -0.35802  -0.35580  -0.35531  -0.35283
 Alpha  occ. eigenvalues --   -0.34403  -0.32508  -0.31394  -0.31100  -0.29532
 Alpha virt. eigenvalues --   -0.16055  -0.10500  -0.10341  -0.09524  -0.08286
 Alpha virt. eigenvalues --   -0.07667  -0.06629  -0.04658  -0.03165  -0.02325
 Alpha virt. eigenvalues --   -0.01829  -0.01226  -0.01030  -0.00686  -0.00486

 Mulliken charges:
               1
     1  N   -0.721160
     2  H    0.328151
     3  H    0.320467
     4  C   -0.096827
     5  H    0.156258
     6  C    0.613276
     7  C   -0.357219
     8  H    0.173634
     9  H    0.168941
    10  O   -0.534443
    11  C    0.574914
    12  N   -0.749131
    13  H    0.339858
    14  H    0.376725
    15  O   -0.515390
    16  N   -0.604037
    17  H    0.343414
    18  C   -0.049937
    19  H    0.180211
    20  C    0.659006
    21  C   -0.102624
    22  H    0.160702
    23  O   -0.599490
    24  C   -0.274747
    25  H    0.137898
    26  H    0.158431
    27  C   -0.472170
    28  H    0.145676
    29  H    0.171738
    30  H    0.149662
    31  C   -0.457327
    32  H    0.169100
    33  H    0.131658
    34  H    0.165812
    35  N   -0.594028
    36  H    0.363695
    37  C   -0.053416
    38  H    0.188964
    39  C    0.627206
    40  C   -0.518568
    41  H    0.232269
    42  H    0.162670
    43  H    0.178055
    44  O   -0.490066
    45  N   -0.623512
    46  H    0.366054
    47  C   -0.095730
    48  H    0.216805
    49  C    0.668222
    50  C    0.094241
    51  H    0.179773
    52  O   -0.564360
    53  C   -0.482626
    54  H    0.187095
    55  H    0.191497
    56  H    0.173597
    57  O   -0.679964
    58  H    0.464347
    59  N   -0.585923
    60  H    0.401321
    61  C   -0.088090
    62  H    0.214952
    63  C    0.613362
    64  C   -0.038106
    65  H    0.160935
    66  H    0.186856
    67  O   -0.532552
    68  O   -0.635739
    69  H    0.447302
    70  N   -0.568947
    71  H    0.360845
    72  C   -0.261110
    73  H    0.209534
    74  H    0.211182
    75  C    0.647395
    76  O   -0.556129
    77  N   -0.591479
    78  H    0.360694
    79  C   -0.052188
    80  H    0.206345
    81  C    0.589647
    82  C   -0.267129
    83  H    0.150673
    84  H    0.171583
    85  O   -0.461400
    86  C   -0.272608
    87  H    0.149659
    88  H    0.151321
    89  C   -0.268069
    90  H    0.136717
    91  H    0.134713
    92  C   -0.145430
    93  H    0.142539
    94  H    0.133895
    95  N   -0.709384
    96  H    0.305640
    97  H    0.306650
    98  O   -0.555903
    99  H    0.429589
   100  H    0.483589
 Sum of Mulliken charges =   1.00000

 Dipole moment (field-independent basis, Debye):
    X=             10.4506    Y=              3.3867    Z=             -3.3867  Tot=             11.4958
 Quadrupole moment (field-independent basis, Debye-Ang):
   XX=           -137.9320   YY=           -267.5046   ZZ=           -201.3985
   XY=            -41.1488   XZ=            -60.2741   YZ=             14.7553

 Normal termination of Gaussian 16 at Fri May 27 02:51:15 2022.
