 Gaussian 16, Revision C.01,
 Gaussian 16:  ES64L-G16RevC.01  3-Jul-2019

 -------------------------------------------------------------------
 # B3LYP/6-31G* guess=read geom=check nosymm integral(ultrafinegrid)
 -------------------------------------------------------------------

 ------------------------------------------------------
 Candidate Structure: Conf:885 Charge calc in gas phase
 ------------------------------------------------------
 Structure from the checkpoint file:  "conf-885.chk"
 Charge =  1 Multiplicity = 1

                          Input orientation:
 ---------------------------------------------------------------------
 Center     Atomic      Atomic             Coordinates (Angstroms)
 Number     Number       Type             X           Y           Z
 ---------------------------------------------------------------------
      1          7           0       -6.719095   -1.535171    3.077356
      2          1           0       -7.141807   -0.661832    2.761218
      3          1           0       -6.854229   -1.562857    4.086762
      4          6           0       -5.295118   -1.501725    2.766889
      5          1           0       -4.794274   -2.294083    3.330287
      6          6           0       -4.648329   -0.145749    3.099373
      7          6           0       -5.106222   -1.788579    1.263797
      8          1           0       -5.618326   -2.734794    1.048905
      9          1           0       -5.616815   -1.014717    0.676679
     10          8           0       -5.251653    0.915537    2.884329
     11          6           0       -3.644414   -1.907852    0.831933
     12          7           0       -3.398943   -1.692109   -0.490776
     13          1           0       -2.481284   -2.000232   -0.876039
     14          1           0       -4.185428   -1.689293   -1.128472
     15          8           0       -2.741688   -2.162772    1.634061
     16          7           0       -3.386734   -0.185713    3.607130
     17          1           0       -2.873704   -1.048891    3.433794
     18          6           0       -2.613785    1.040280    3.830066
     19          1           0       -3.336729    1.802146    4.136254
     20          6           0       -2.044478    1.449207    2.456385
     21          6           0       -1.536473    0.874807    4.918770
     22          1           0       -0.776256    0.187986    4.523193
     23          8           0       -0.852619    1.201731    2.146469
     24          6           0       -2.106604    0.238927    6.208663
     25          1           0       -1.268232    0.120753    6.906940
     26          1           0       -2.456797   -0.775419    5.984487
     27          6           0       -0.848866    2.222273    5.199885
     28          1           0       -1.563024    2.981902    5.537011
     29          1           0       -0.096388    2.104132    5.986457
     30          1           0       -0.337004    2.611374    4.314223
     31          6           0       -3.234528    1.013958    6.901895
     32          1           0       -3.543528    0.492275    7.813668
     33          1           0       -2.924162    2.022513    7.195408
     34          1           0       -4.122682    1.106363    6.265794
     35          7           0       -2.946598    1.983178    1.618868
     36          1           0       -3.907118    1.993227    1.980664
     37          6           0       -2.821151    2.106369    0.156965
     38          1           0       -2.977383    1.113550   -0.286851
     39          6           0       -1.420763    2.602256   -0.190962
     40          6           0       -3.880667    3.085215   -0.361060
     41          1           0       -3.851238    3.132939   -1.453720
     42          1           0       -4.879545    2.751057   -0.063072
     43          1           0       -3.700727    4.085169    0.041394
     44          8           0       -1.017305    3.716292    0.189505
     45          7           0       -0.639320    1.758258   -0.896033
     46          1           0       -0.930705    0.801862   -1.079654
     47          6           0        0.756633    2.060927   -1.189938
     48          1           0        0.820141    3.099998   -1.531316
     49          6           0        1.192006    1.079868   -2.301197
     50          6           0        1.655116    1.883727    0.067572
     51          1           0        1.668025    0.831400    0.361931
     52          8           0        0.761797   -0.068791   -2.290011
     53          6           0        3.052324    2.452936   -0.055676
     54          1           0        3.615880    1.909520   -0.820857
     55          1           0        3.578989    2.346986    0.896289
     56          1           0        3.021377    3.518367   -0.313947
     57          8           0        0.986797    2.568133    1.218978
     58          1           0        0.422586    3.337710    0.860383
     59          7           0        2.004463    1.584578   -3.264544
     60          1           0        2.485279    2.450454   -3.044676
     61          6           0        2.704056    0.705671   -4.199797
     62          1           0        2.046731   -0.148792   -4.380987
     63          6           0        4.016282    0.219649   -3.542779
     64          6           0        2.920264    1.441360   -5.538588
     65          1           0        3.511040    0.813507   -6.211241
     66          1           0        3.503620    2.360783   -5.363922
     67          8           0        4.394038    0.672458   -2.467275
     68          8           0        1.706026    1.694005   -6.205888
     69          1           0        1.197432    2.332759   -5.682325
     70          7           0        4.713778   -0.728234   -4.218939
     71          1           0        4.393006   -1.044744   -5.123779
     72          6           0        5.964031   -1.250899   -3.673643
     73          1           0        6.503571   -1.760661   -4.477929
     74          1           0        6.582342   -0.429194   -3.308604
     75          6           0        5.807293   -2.238558   -2.506095
     76          8           0        6.678575   -2.338747   -1.660341
     77          7           0        4.662505   -2.998254   -2.502132
     78          1           0        4.151933   -3.053143   -3.374539
     79          6           0        4.617203   -4.185295   -1.663634
     80          1           0        4.929560   -3.895797   -0.656980
     81          6           0        5.616617   -5.227389   -2.184653
     82          6           0        3.205397   -4.800066   -1.623545
     83          1           0        2.935910   -5.137896   -2.635631
     84          1           0        3.258875   -5.703684   -1.005768
     85          8           0        6.070323   -5.245227   -3.306007
     86          6           0        2.109985   -3.870086   -1.083356
     87          1           0        2.404300   -3.493873   -0.093347
     88          1           0        2.019990   -2.988598   -1.732119
     89          6           0        0.761004   -4.596323   -0.974594
     90          1           0        0.855391   -5.417897   -0.251028
     91          1           0        0.520521   -5.071197   -1.938547
     92          6           0       -0.424971   -3.716339   -0.552656
     93          1           0       -1.289749   -4.357880   -0.348887
     94          1           0       -0.211398   -3.194100    0.386707
     95          7           0       -0.856810   -2.699547   -1.533553
     96          1           0       -1.020390   -3.145534   -2.437091
     97          1           0       -0.127372   -2.004799   -1.689325
     98          8           0        5.889546   -6.155848   -1.246364
     99          1           0        6.508618   -6.795038   -1.648461
    100          1           0        0.226034    1.947104    1.652555
 ---------------------------------------------------------------------

 SCF Done:  E(RB3LYP) =  -2418.43351507     A.U. after    3 cycles

 Alpha  occ. eigenvalues --  -19.36059 -19.26583 -19.26416 -19.26391 -19.26173
 Alpha  occ. eigenvalues --  -19.25098 -19.22959 -19.21891 -19.20895 -19.20437
 Alpha  occ. eigenvalues --  -19.19190 -14.50699 -14.49918 -14.48679 -14.47564
 Alpha  occ. eigenvalues --  -14.45700 -14.43790 -14.43073 -14.41262 -14.39363
 Alpha  occ. eigenvalues --  -10.43381 -10.43350 -10.42316 -10.40301 -10.40066
 Alpha  occ. eigenvalues --  -10.38838 -10.38495 -10.38021 -10.37819 -10.36566
 Alpha  occ. eigenvalues --  -10.36370 -10.35130 -10.35098 -10.33421 -10.31885
 Alpha  occ. eigenvalues --  -10.31308 -10.31111 -10.29759 -10.29508 -10.28872
 Alpha  occ. eigenvalues --  -10.28231 -10.28211 -10.27436 -10.26708 -10.26255
 Alpha  occ. eigenvalues --  -10.25933 -10.25895 -10.24538  -1.23548  -1.18332
 Alpha  occ. eigenvalues --   -1.17714  -1.17470  -1.16942  -1.14966  -1.13369
 Alpha  occ. eigenvalues --   -1.12822  -1.11701  -1.11314  -1.08531  -1.07040
 Alpha  occ. eigenvalues --   -1.05983  -1.05469  -1.03357  -1.02224  -1.00265
 Alpha  occ. eigenvalues --   -0.98331  -0.97096  -0.96937  -0.93693  -0.90489
 Alpha  occ. eigenvalues --   -0.89265  -0.88888  -0.88146  -0.84959  -0.84540
 Alpha  occ. eigenvalues --   -0.83719  -0.82233  -0.81248  -0.79423  -0.77438
 Alpha  occ. eigenvalues --   -0.77146  -0.76914  -0.75378  -0.74727  -0.73298
 Alpha  occ. eigenvalues --   -0.73037  -0.72524  -0.71881  -0.70952  -0.70540
 Alpha  occ. eigenvalues --   -0.70239  -0.68412  -0.67897  -0.67617  -0.66482
 Alpha  occ. eigenvalues --   -0.66401  -0.65751  -0.65692  -0.64495  -0.63966
 Alpha  occ. eigenvalues --   -0.63606  -0.62955  -0.62280  -0.61520  -0.61098
 Alpha  occ. eigenvalues --   -0.60560  -0.60152  -0.59531  -0.58963  -0.58607
 Alpha  occ. eigenvalues --   -0.58547  -0.58215  -0.57572  -0.56980  -0.56836
 Alpha  occ. eigenvalues --   -0.56610  -0.55819  -0.55615  -0.55259  -0.54726
 Alpha  occ. eigenvalues --   -0.54605  -0.54328  -0.54106  -0.53756  -0.53559
 Alpha  occ. eigenvalues --   -0.53225  -0.52808  -0.52660  -0.52520  -0.52346
 Alpha  occ. eigenvalues --   -0.51889  -0.51586  -0.51541  -0.51385  -0.50636
 Alpha  occ. eigenvalues --   -0.50532  -0.50256  -0.49752  -0.49543  -0.49388
 Alpha  occ. eigenvalues --   -0.49191  -0.48936  -0.48817  -0.48677  -0.48600
 Alpha  occ. eigenvalues --   -0.48413  -0.48039  -0.47796  -0.47226  -0.46840
 Alpha  occ. eigenvalues --   -0.46729  -0.46335  -0.45962  -0.45943  -0.44577
 Alpha  occ. eigenvalues --   -0.44398  -0.44297  -0.43963  -0.43827  -0.43173
 Alpha  occ. eigenvalues --   -0.42597  -0.41479  -0.41302  -0.41190  -0.40910
 Alpha  occ. eigenvalues --   -0.40823  -0.40671  -0.40421  -0.40257  -0.39651
 Alpha  occ. eigenvalues --   -0.39306  -0.38851  -0.38619  -0.38544  -0.37787
 Alpha  occ. eigenvalues --   -0.36571  -0.36099  -0.35676  -0.35169  -0.35059
 Alpha  occ. eigenvalues --   -0.34115  -0.33788  -0.33396  -0.32078  -0.31822
 Alpha virt. eigenvalues --   -0.13477  -0.12578  -0.12242  -0.09142  -0.08082
 Alpha virt. eigenvalues --   -0.06461  -0.06431  -0.05584  -0.05322  -0.04436
 Alpha virt. eigenvalues --   -0.03378  -0.03140  -0.01774  -0.01105  -0.00474

 Mulliken charges:
               1
     1  N   -0.699734
     2  H    0.317847
     3  H    0.314885
     4  C   -0.063994
     5  H    0.169043
     6  C    0.587189
     7  C   -0.366991
     8  H    0.207802
     9  H    0.158403
    10  O   -0.559238
    11  C    0.588929
    12  N   -0.799871
    13  H    0.417075
    14  H    0.329679
    15  O   -0.541943
    16  N   -0.593919
    17  H    0.376732
    18  C   -0.067329
    19  H    0.195424
    20  C    0.665353
    21  C   -0.095725
    22  H    0.147351
    23  O   -0.632404
    24  C   -0.257281
    25  H    0.149901
    26  H    0.141838
    27  C   -0.467366
    28  H    0.159002
    29  H    0.167766
    30  H    0.138482
    31  C   -0.463330
    32  H    0.163966
    33  H    0.156073
    34  H    0.150672
    35  N   -0.601523
    36  H    0.398834
    37  C   -0.034746
    38  H    0.188703
    39  C    0.619085
    40  C   -0.483419
    41  H    0.176643
    42  H    0.186693
    43  H    0.203729
    44  O   -0.572137
    45  N   -0.596779
    46  H    0.377708
    47  C   -0.100330
    48  H    0.196190
    49  C    0.631450
    50  C    0.096723
    51  H    0.210583
    52  O   -0.516539
    53  C   -0.503517
    54  H    0.240887
    55  H    0.202419
    56  H    0.163559
    57  O   -0.661540
    58  H    0.477056
    59  N   -0.594180
    60  H    0.348999
    61  C   -0.111298
    62  H    0.206602
    63  C    0.634673
    64  C   -0.040143
    65  H    0.167510
    66  H    0.147219
    67  O   -0.509147
    68  O   -0.590078
    69  H    0.400925
    70  N   -0.615142
    71  H    0.345855
    72  C   -0.245350
    73  H    0.203099
    74  H    0.218195
    75  C    0.627786
    76  O   -0.491122
    77  N   -0.581663
    78  H    0.317155
    79  C   -0.035590
    80  H    0.199876
    81  C    0.597184
    82  C   -0.300678
    83  H    0.142439
    84  H    0.178029
    85  O   -0.469670
    86  C   -0.258480
    87  H    0.143140
    88  H    0.129873
    89  C   -0.265698
    90  H    0.150711
    91  H    0.129981
    92  C   -0.143682
    93  H    0.156162
    94  H    0.163031
    95  N   -0.787734
    96  H    0.307799
    97  H    0.350597
    98  O   -0.563013
    99  H    0.422531
   100  H    0.519272
 Sum of Mulliken charges =   1.00000

 Dipole moment (field-independent basis, Debye):
    X=             -1.7741    Y=              2.2987    Z=             -4.6882  Tot=              5.5146
 Quadrupole moment (field-independent basis, Debye-Ang):
   XX=           -254.3494   YY=           -237.3730   ZZ=           -221.0084
   XY=             -1.3546   XZ=            -33.3333   YZ=              4.3357

 Normal termination of Gaussian 16 at Fri May 27 02:51:46 2022.
