 Gaussian 16, Revision C.01,
 Gaussian 16:  ES64L-G16RevC.01  3-Jul-2019

 -------------------------------------------------------------------
 # B3LYP/6-31G* guess=read geom=check nosymm integral(ultrafinegrid)
 -------------------------------------------------------------------

 ------------------------------------------------------
 Candidate Structure: Conf:549 Charge calc in gas phase
 ------------------------------------------------------
 Structure from the checkpoint file:  "conf-549.chk"
 Charge =  1 Multiplicity = 1

                          Input orientation:
 ---------------------------------------------------------------------
 Center     Atomic      Atomic             Coordinates (Angstroms)
 Number     Number       Type             X           Y           Z
 ---------------------------------------------------------------------
      1          7           0       -5.577421    2.304893    4.328750
      2          1           0       -6.561811    2.552367    4.283642
      3          1           0       -5.017450    3.080330    3.983593
      4          6           0       -5.292079    1.100229    3.570196
      5          1           0       -5.618675    0.232570    4.155221
      6          6           0       -3.759079    1.021701    3.418475
      7          6           0       -5.997086    1.008841    2.181253
      8          1           0       -6.974736    1.500324    2.263650
      9          1           0       -5.437807    1.574800    1.423202
     10          8           0       -3.058912    2.041987    3.494166
     11          6           0       -6.204246   -0.421804    1.681519
     12          7           0       -7.172506   -0.579192    0.744739
     13          1           0       -7.368845   -1.513076    0.409366
     14          1           0       -7.792184    0.168581    0.470828
     15          8           0       -5.540178   -1.379237    2.084020
     16          7           0       -3.247569   -0.209028    3.196582
     17          1           0       -3.914606   -0.944181    2.948536
     18          6           0       -1.809892   -0.485352    3.198168
     19          1           0       -1.365822    0.199715    3.930076
     20          6           0       -1.222588   -0.112848    1.814224
     21          6           0       -1.520493   -1.944081    3.613421
     22          1           0       -1.869454   -2.587908    2.795083
     23          8           0       -0.861286   -0.961520    0.978964
     24          6           0       -2.288107   -2.359910    4.891938
     25          1           0       -2.044316   -3.413011    5.082998
     26          1           0       -3.366270   -2.337718    4.696056
     27          6           0       -0.008204   -2.174397    3.771207
     28          1           0        0.435668   -1.489600    4.503323
     29          1           0        0.183938   -3.195898    4.116639
     30          1           0        0.512173   -2.043766    2.818930
     31          6           0       -1.992875   -1.537720    6.153028
     32          1           0       -2.559929   -1.933903    7.001867
     33          1           0       -0.932902   -1.569211    6.428315
     34          1           0       -2.280154   -0.486450    6.036124
     35          7           0       -1.155572    1.222015    1.589378
     36          1           0       -1.602666    1.799433    2.311486
     37          6           0       -1.045318    1.834467    0.256221
     38          1           0       -1.647191    1.229476   -0.439901
     39          6           0        0.386006    1.805869   -0.321670
     40          6           0       -1.587493    3.261857    0.302917
     41          1           0       -1.555122    3.713344   -0.690262
     42          1           0       -2.620650    3.257109    0.661458
     43          1           0       -0.987750    3.884926    0.972980
     44          8           0        0.915370    2.784623   -0.853840
     45          7           0        0.994941    0.589624   -0.269202
     46          1           0        0.427667   -0.198315    0.079233
     47          6           0        2.338535    0.414284   -0.788144
     48          1           0        2.921686    1.309624   -0.549913
     49          6           0        2.270396    0.327255   -2.314372
     50          6           0        3.066506   -0.809294   -0.191348
     51          1           0        4.066430   -0.823521   -0.631780
     52          8           0        2.282878   -0.823885   -2.929269
     53          6           0        3.158178   -0.784096    1.325551
     54          1           0        3.701201    0.106016    1.659643
     55          1           0        3.700792   -1.667824    1.672500
     56          1           0        2.169723   -0.770652    1.795218
     57          8           0        2.447562   -2.031308   -0.676267
     58          1           0        1.646565   -2.230710   -0.158635
     59          7           0        2.141916    1.423346   -3.009469
     60          1           0        2.026318    2.274896   -2.446551
     61          6           0        2.148658    1.533405   -4.482726
     62          1           0        1.719302    0.620299   -4.903032
     63          6           0        3.632883    1.686857   -4.904107
     64          6           0        1.327897    2.759661   -4.921618
     65          1           0        1.675947    3.643606   -4.367363
     66          1           0        0.273652    2.595613   -4.679030
     67          8           0        4.093958    2.781629   -5.197205
     68          8           0        1.421731    2.931559   -6.311910
     69          1           0        2.305348    3.300321   -6.484670
     70          7           0        4.355205    0.532467   -4.861707
     71          1           0        3.891343   -0.287812   -4.491202
     72          6           0        5.792472    0.565713   -4.694926
     73          1           0        6.261513   -0.233411   -5.280111
     74          1           0        6.153174    1.522376   -5.082045
     75          6           0        6.162407    0.407118   -3.204193
     76          8           0        5.296296    0.214105   -2.342654
     77          7           0        7.479683    0.479029   -2.942430
     78          1           0        8.145742    0.698759   -3.677216
     79          6           0        8.050970    0.376386   -1.602491
     80          1           0        7.365925    0.848509   -0.891831
     81          6           0        9.356678    1.163908   -1.646501
     82          6           0        8.272759   -1.104506   -1.196639
     83          1           0        7.316722   -1.611979   -1.374127
     84          1           0        8.998847   -1.548662   -1.889758
     85          8           0        9.964802    1.396209   -2.669723
     86          6           0        8.711884   -1.335212    0.255115
     87          1           0        9.681719   -0.857290    0.435835
     88          1           0        8.000504   -0.843442    0.934801
     89          6           0        8.809207   -2.828081    0.596060
     90          1           0        9.502664   -3.330744   -0.089615
     91          1           0        7.827939   -3.304493    0.445855
     92          6           0        9.282352   -3.088989    2.029005
     93          1           0       10.275370   -2.641810    2.164053
     94          1           0        8.607937   -2.567984    2.735753
     95          7           0        9.409932   -4.528549    2.268909
     96          1           0        8.486459   -4.958001    2.309679
     97          1           0        9.838838   -4.695159    3.177283
     98          8           0        9.765232    1.552393   -0.427847
     99          1           0       10.620049    2.012238   -0.543528
    100          1           0        2.315451   -1.552949   -2.226740
 ---------------------------------------------------------------------

 SCF Done:  E(RB3LYP) =  -2418.43625416     A.U. after    2 cycles

 Alpha  occ. eigenvalues --  -19.34608 -19.30555 -19.29126 -19.24102 -19.23537
 Alpha  occ. eigenvalues --  -19.23250 -19.23100 -19.23045 -19.22619 -19.20894
 Alpha  occ. eigenvalues --  -19.20721 -14.53024 -14.47630 -14.46961 -14.46242
 Alpha  occ. eigenvalues --  -14.45643 -14.44707 -14.44009 -14.38176 -14.36786
 Alpha  occ. eigenvalues --  -10.46813 -10.41561 -10.40611 -10.40238 -10.39613
 Alpha  occ. eigenvalues --  -10.39161 -10.38448 -10.37811 -10.37685 -10.37245
 Alpha  occ. eigenvalues --  -10.35779 -10.34311 -10.33720 -10.33434 -10.33288
 Alpha  occ. eigenvalues --  -10.32104 -10.30656 -10.29692 -10.28770 -10.27654
 Alpha  occ. eigenvalues --  -10.27404 -10.27313 -10.26748 -10.25921 -10.25418
 Alpha  occ. eigenvalues --  -10.25165 -10.24656 -10.23804  -1.25179  -1.20144
 Alpha  occ. eigenvalues --   -1.16900  -1.15860  -1.15296  -1.14102  -1.13920
 Alpha  occ. eigenvalues --   -1.12561  -1.12036  -1.11233  -1.11107  -1.10119
 Alpha  occ. eigenvalues --   -1.04772  -1.03390  -1.02844  -1.02523  -1.00784
 Alpha  occ. eigenvalues --   -0.99400  -0.96039  -0.93629  -0.92239  -0.89575
 Alpha  occ. eigenvalues --   -0.88974  -0.88843  -0.87180  -0.84827  -0.84261
 Alpha  occ. eigenvalues --   -0.83732  -0.82013  -0.81174  -0.78692  -0.78645
 Alpha  occ. eigenvalues --   -0.76936  -0.76425  -0.75716  -0.74084  -0.73505
 Alpha  occ. eigenvalues --   -0.72167  -0.71798  -0.70315  -0.69882  -0.69279
 Alpha  occ. eigenvalues --   -0.68557  -0.67972  -0.67851  -0.67441  -0.67190
 Alpha  occ. eigenvalues --   -0.65467  -0.65218  -0.65133  -0.64548  -0.63579
 Alpha  occ. eigenvalues --   -0.62874  -0.62521  -0.62071  -0.61722  -0.60580
 Alpha  occ. eigenvalues --   -0.60178  -0.59832  -0.59087  -0.58875  -0.58630
 Alpha  occ. eigenvalues --   -0.58220  -0.57814  -0.57541  -0.57292  -0.56996
 Alpha  occ. eigenvalues --   -0.56618  -0.56094  -0.55567  -0.55359  -0.54692
 Alpha  occ. eigenvalues --   -0.54473  -0.54151  -0.53628  -0.53276  -0.52819
 Alpha  occ. eigenvalues --   -0.52808  -0.52496  -0.52345  -0.52154  -0.51947
 Alpha  occ. eigenvalues --   -0.51747  -0.51201  -0.50747  -0.50643  -0.50443
 Alpha  occ. eigenvalues --   -0.50167  -0.49854  -0.49516  -0.49417  -0.49304
 Alpha  occ. eigenvalues --   -0.48809  -0.48754  -0.48573  -0.48281  -0.47954
 Alpha  occ. eigenvalues --   -0.47551  -0.47362  -0.47018  -0.46497  -0.46338
 Alpha  occ. eigenvalues --   -0.46159  -0.45771  -0.45691  -0.45111  -0.44910
 Alpha  occ. eigenvalues --   -0.44630  -0.44503  -0.44172  -0.43624  -0.42936
 Alpha  occ. eigenvalues --   -0.42676  -0.42573  -0.41982  -0.40754  -0.40376
 Alpha  occ. eigenvalues --   -0.39996  -0.39830  -0.39565  -0.39551  -0.39081
 Alpha  occ. eigenvalues --   -0.37971  -0.37882  -0.37736  -0.37029  -0.36875
 Alpha  occ. eigenvalues --   -0.36246  -0.35987  -0.35869  -0.35603  -0.35432
 Alpha  occ. eigenvalues --   -0.34977  -0.34285  -0.33431  -0.30177  -0.28991
 Alpha virt. eigenvalues --   -0.16175  -0.10251  -0.09220  -0.09031  -0.08833
 Alpha virt. eigenvalues --   -0.07645  -0.06938  -0.06304  -0.05971  -0.02447
 Alpha virt. eigenvalues --   -0.01141  -0.00962  -0.00650  -0.00604   0.00054

 Mulliken charges:
               1
     1  N   -0.714154
     2  H    0.302623
     3  H    0.322087
     4  C   -0.046127
     5  H    0.178028
     6  C    0.611155
     7  C   -0.397292
     8  H    0.163277
     9  H    0.179751
    10  O   -0.556621
    11  C    0.617390
    12  N   -0.737760
    13  H    0.359032
    14  H    0.351719
    15  O   -0.525630
    16  N   -0.629412
    17  H    0.399244
    18  C   -0.050720
    19  H    0.183840
    20  C    0.633421
    21  C   -0.097962
    22  H    0.152702
    23  O   -0.580471
    24  C   -0.262758
    25  H    0.146082
    26  H    0.146328
    27  C   -0.475721
    28  H    0.151873
    29  H    0.161637
    30  H    0.142683
    31  C   -0.461703
    32  H    0.162629
    33  H    0.149547
    34  H    0.156693
    35  N   -0.621559
    36  H    0.401569
    37  C   -0.065902
    38  H    0.185277
    39  C    0.635279
    40  C   -0.470588
    41  H    0.181245
    42  H    0.168897
    43  H    0.183877
    44  O   -0.537824
    45  N   -0.638400
    46  H    0.390899
    47  C   -0.064670
    48  H    0.219036
    49  C    0.678005
    50  C    0.055751
    51  H    0.226212
    52  O   -0.589481
    53  C   -0.487252
    54  H    0.181936
    55  H    0.191407
    56  H    0.178186
    57  O   -0.656142
    58  H    0.436972
    59  N   -0.566263
    60  H    0.412648
    61  C   -0.117232
    62  H    0.212179
    63  C    0.627619
    64  C   -0.036218
    65  H    0.158536
    66  H    0.167794
    67  O   -0.502044
    68  O   -0.605131
    69  H    0.423650
    70  N   -0.570111
    71  H    0.354279
    72  C   -0.265457
    73  H    0.201923
    74  H    0.229318
    75  C    0.620227
    76  O   -0.563731
    77  N   -0.604474
    78  H    0.364832
    79  C   -0.030729
    80  H    0.185326
    81  C    0.586777
    82  C   -0.267392
    83  H    0.156503
    84  H    0.158628
    85  O   -0.458853
    86  C   -0.267898
    87  H    0.155621
    88  H    0.129764
    89  C   -0.248070
    90  H    0.158339
    91  H    0.119338
    92  C   -0.135418
    93  H    0.145782
    94  H    0.108639
    95  N   -0.713114
    96  H    0.292294
    97  H    0.304805
    98  O   -0.553388
    99  H    0.429133
   100  H    0.483427
 Sum of Mulliken charges =   1.00000

 Dipole moment (field-independent basis, Debye):
    X=              5.1087    Y=             -0.2875    Z=             -1.9697  Tot=              5.4828
 Quadrupole moment (field-independent basis, Debye-Ang):
   XX=           -107.7806   YY=           -280.3751   ZZ=           -263.6672
   XY=             -5.3214   XZ=            -12.2037   YZ=             -5.2189

 Normal termination of Gaussian 16 at Fri May 27 02:51:38 2022.
