 Gaussian 16, Revision C.01,
 Gaussian 16:  ES64L-G16RevC.01  3-Jul-2019

 -------------------------------------------------------------------
 # B3LYP/6-31G* guess=read geom=check nosymm integral(ultrafinegrid)
 -------------------------------------------------------------------

 ------------------------------------------------------
 Candidate Structure: Conf:883 Charge calc in gas phase
 ------------------------------------------------------
 Structure from the checkpoint file:  "conf-883.chk"
 Charge =  1 Multiplicity = 1

                          Input orientation:
 ---------------------------------------------------------------------
 Center     Atomic      Atomic             Coordinates (Angstroms)
 Number     Number       Type             X           Y           Z
 ---------------------------------------------------------------------
      1          7           0       -3.275648    5.447145   -3.444316
      2          1           0       -2.370135    5.161109   -3.834788
      3          1           0       -3.147824    6.378089   -3.051591
      4          6           0       -3.702339    4.511567   -2.408403
      5          1           0       -4.655498    4.872786   -1.998228
      6          6           0       -2.702308    4.360714   -1.242896
      7          6           0       -3.934924    3.109133   -3.022386
      8          1           0       -3.018226    2.805946   -3.547449
      9          1           0       -4.109994    2.368618   -2.237075
     10          8           0       -1.493535    4.555336   -1.372297
     11          6           0       -5.113284    2.958678   -3.999383
     12          7           0       -5.404514    4.060099   -4.734513
     13          1           0       -6.133602    3.990887   -5.430672
     14          1           0       -4.809464    4.885287   -4.659066
     15          8           0       -5.707434    1.890923   -4.086789
     16          7           0       -3.245369    3.951959   -0.057830
     17          1           0       -4.229744    3.714339   -0.021967
     18          6           0       -2.420704    3.432450    1.031340
     19          1           0       -1.393889    3.468536    0.656560
     20          6           0       -2.840744    1.973430    1.251102
     21          6           0       -2.483563    4.285103    2.332753
     22          1           0       -1.940931    3.703803    3.095587
     23          8           0       -4.007647    1.643494    1.451374
     24          6           0       -3.922996    4.509466    2.842287
     25          1           0       -4.464894    3.558416    2.820460
     26          1           0       -4.442898    5.181634    2.145554
     27          6           0       -1.727766    5.605075    2.112596
     28          1           0       -2.213155    6.205328    1.334829
     29          1           0       -1.699886    6.201401    3.029220
     30          1           0       -0.693325    5.427933    1.797803
     31          6           0       -3.996828    5.093009    4.258825
     32          1           0       -5.039296    5.180930    4.583245
     33          1           0       -3.479779    4.448425    4.980879
     34          1           0       -3.549974    6.090686    4.323559
     35          7           0       -1.832916    1.054361    1.189876
     36          1           0       -0.899872    1.317905    0.896982
     37          6           0       -2.103365   -0.367247    1.302478
     38          1           0       -2.711654   -0.534149    2.199627
     39          6           0       -0.759672   -1.074334    1.432788
     40          6           0       -2.864023   -0.932906    0.080111
     41          1           0       -3.082302   -2.000002    0.203904
     42          1           0       -3.810485   -0.398287   -0.016913
     43          1           0       -2.277785   -0.793306   -0.833839
     44          8           0        0.283280   -0.611686    0.977608
     45          7           0       -0.770973   -2.303974    2.045398
     46          1           0       -1.635883   -2.736649    2.345550
     47          6           0        0.462044   -3.068097    2.128327
     48          1           0        1.281050   -2.349522    2.221978
     49          6           0        0.665706   -3.828954    0.811934
     50          6           0        0.482872   -4.011978    3.342556
     51          1           0        1.430987   -4.567963    3.317517
     52          8           0        0.255958   -5.064155    0.681989
     53          6           0        0.341987   -3.295243    4.677129
     54          1           0        1.180042   -2.607952    4.832040
     55          1           0        0.357303   -4.021859    5.496735
     56          1           0       -0.590458   -2.727681    4.731578
     57          8           0       -0.613165   -4.933321    3.105367
     58          1           0       -0.676338   -5.570528    3.837055
     59          7           0        1.217229   -3.240461   -0.207074
     60          1           0        1.521801   -2.257944   -0.133901
     61          6           0        1.405529   -3.811533   -1.543912
     62          1           0        1.795169   -4.829451   -1.454592
     63          6           0        2.401590   -2.872202   -2.243102
     64          6           0        0.060056   -3.863679   -2.346269
     65          1           0       -0.356249   -2.848955   -2.397095
     66          1           0       -0.638450   -4.502396   -1.796927
     67          8           0        2.637247   -1.764374   -1.769577
     68          8           0        0.268920   -4.421415   -3.614942
     69          1           0        0.433636   -3.681749   -4.243825
     70          7           0        2.926701   -3.361206   -3.394998
     71          1           0        2.477481   -4.202486   -3.745166
     72          6           0        3.445447   -2.450054   -4.396148
     73          1           0        3.927959   -1.615355   -3.880873
     74          1           0        4.201545   -2.961026   -5.001306
     75          6           0        2.305768   -1.921559   -5.296261
     76          8           0        1.127495   -2.238594   -5.100015
     77          7           0        2.695453   -1.096878   -6.287473
     78          1           0        3.682783   -0.919650   -6.425166
     79          6           0        1.772292   -0.542730   -7.278325
     80          1           0        0.826285   -1.073470   -7.150964
     81          6           0        2.249583   -0.803685   -8.703947
     82          6           0        1.525751    0.974861   -7.098423
     83          1           0        2.458359    1.520040   -7.300968
     84          1           0        0.811946    1.273764   -7.874694
     85          8           0        1.538988   -0.720095   -9.674509
     86          6           0        0.995447    1.347050   -5.709525
     87          1           0        0.127278    0.718801   -5.468053
     88          1           0        1.761078    1.115638   -4.956232
     89          6           0        0.603156    2.826592   -5.597180
     90          1           0       -0.276118    3.034975   -6.219424
     91          1           0        1.417456    3.456000   -5.987411
     92          6           0        0.301287    3.237953   -4.154601
     93          1           0       -0.462627    2.568347   -3.737255
     94          1           0        1.211168    3.083569   -3.545394
     95          7           0       -0.225529    4.604172   -4.075424
     96          1           0        0.470820    5.264235   -4.421441
     97          1           0       -0.398440    4.829334   -3.094872
     98          8           0        3.578513   -1.074210   -8.767743
     99          1           0        3.798621   -1.173335   -9.714144
    100          1           0       -0.180091   -5.350275    1.538392
 ---------------------------------------------------------------------

 SCF Done:  E(RB3LYP) =  -2418.43387816     A.U. after    2 cycles

 Alpha  occ. eigenvalues --  -19.36369 -19.33220 -19.28235 -19.25896 -19.24501
 Alpha  occ. eigenvalues --  -19.24358 -19.23064 -19.21964 -19.19919 -19.18753
 Alpha  occ. eigenvalues --  -19.14239 -14.54701 -14.51171 -14.47727 -14.46734
 Alpha  occ. eigenvalues --  -14.45197 -14.43078 -14.38125 -14.37528 -14.36342
 Alpha  occ. eigenvalues --  -10.48672 -10.42673 -10.41292 -10.41027 -10.40577
 Alpha  occ. eigenvalues --  -10.40293 -10.40070 -10.37111 -10.37048 -10.35521
 Alpha  occ. eigenvalues --  -10.35348 -10.34708 -10.34122 -10.32594 -10.32400
 Alpha  occ. eigenvalues --  -10.31945 -10.30247 -10.29098 -10.28214 -10.26916
 Alpha  occ. eigenvalues --  -10.26426 -10.25953 -10.25442 -10.24983 -10.24258
 Alpha  occ. eigenvalues --  -10.23427 -10.23139 -10.22666  -1.26996  -1.19690
 Alpha  occ. eigenvalues --   -1.18832  -1.18026  -1.16683  -1.14534  -1.12462
 Alpha  occ. eigenvalues --   -1.12068  -1.11501  -1.10319  -1.09861  -1.07380
 Alpha  occ. eigenvalues --   -1.06080  -1.04382  -1.03122  -1.01714  -0.99372
 Alpha  occ. eigenvalues --   -0.95282  -0.94615  -0.93234  -0.92729  -0.91173
 Alpha  occ. eigenvalues --   -0.88659  -0.88313  -0.86902  -0.85599  -0.84453
 Alpha  occ. eigenvalues --   -0.82134  -0.81736  -0.81248  -0.79622  -0.77685
 Alpha  occ. eigenvalues --   -0.77056  -0.76585  -0.76438  -0.75481  -0.73416
 Alpha  occ. eigenvalues --   -0.71802  -0.71071  -0.70367  -0.70297  -0.69412
 Alpha  occ. eigenvalues --   -0.68997  -0.68796  -0.68199  -0.67956  -0.67547
 Alpha  occ. eigenvalues --   -0.65468  -0.65393  -0.64877  -0.64539  -0.64031
 Alpha  occ. eigenvalues --   -0.62509  -0.62294  -0.62016  -0.61730  -0.60215
 Alpha  occ. eigenvalues --   -0.60050  -0.59794  -0.59301  -0.58603  -0.57971
 Alpha  occ. eigenvalues --   -0.57749  -0.57119  -0.56307  -0.56286  -0.56135
 Alpha  occ. eigenvalues --   -0.56014  -0.55816  -0.55481  -0.54917  -0.54796
 Alpha  occ. eigenvalues --   -0.54699  -0.54143  -0.53890  -0.53731  -0.53489
 Alpha  occ. eigenvalues --   -0.53274  -0.53018  -0.52600  -0.52147  -0.51860
 Alpha  occ. eigenvalues --   -0.51473  -0.51264  -0.50865  -0.50796  -0.50320
 Alpha  occ. eigenvalues --   -0.49826  -0.49459  -0.49260  -0.49151  -0.48983
 Alpha  occ. eigenvalues --   -0.48837  -0.48348  -0.47938  -0.47847  -0.47236
 Alpha  occ. eigenvalues --   -0.46954  -0.46216  -0.46116  -0.45938  -0.45630
 Alpha  occ. eigenvalues --   -0.45536  -0.45131  -0.44571  -0.44205  -0.43613
 Alpha  occ. eigenvalues --   -0.43584  -0.43163  -0.42931  -0.42421  -0.42002
 Alpha  occ. eigenvalues --   -0.41681  -0.40819  -0.40742  -0.40213  -0.39914
 Alpha  occ. eigenvalues --   -0.39573  -0.39487  -0.39299  -0.39196  -0.38890
 Alpha  occ. eigenvalues --   -0.38716  -0.38541  -0.37941  -0.37805  -0.37546
 Alpha  occ. eigenvalues --   -0.36122  -0.34743  -0.34322  -0.34170  -0.33349
 Alpha  occ. eigenvalues --   -0.31493  -0.30456  -0.29693  -0.29001  -0.28071
 Alpha virt. eigenvalues --   -0.17995  -0.11522  -0.10261  -0.09048  -0.08384
 Alpha virt. eigenvalues --   -0.07131  -0.06664  -0.04529  -0.04145  -0.02936
 Alpha virt. eigenvalues --   -0.02608  -0.01859  -0.01396  -0.00914  -0.00606

 Mulliken charges:
               1
     1  N   -0.758414
     2  H    0.357821
     3  H    0.311449
     4  C   -0.081004
     5  H    0.155750
     6  C    0.596454
     7  C   -0.368515
     8  H    0.180221
     9  H    0.161841
    10  O   -0.532328
    11  C    0.578830
    12  N   -0.751932
    13  H    0.335611
    14  H    0.378656
    15  O   -0.517840
    16  N   -0.594778
    17  H    0.350172
    18  C   -0.070314
    19  H    0.169800
    20  C    0.630285
    21  C   -0.068277
    22  H    0.121449
    23  O   -0.528279
    24  C   -0.277060
    25  H    0.168037
    26  H    0.135016
    27  C   -0.454749
    28  H    0.157990
    29  H    0.158007
    30  H    0.148030
    31  C   -0.450649
    32  H    0.154987
    33  H    0.139276
    34  H    0.152160
    35  N   -0.628435
    36  H    0.359378
    37  C   -0.019607
    38  H    0.183218
    39  C    0.619016
    40  C   -0.461264
    41  H    0.139317
    42  H    0.228037
    43  H    0.167505
    44  O   -0.520119
    45  N   -0.613359
    46  H    0.363563
    47  C   -0.063473
    48  H    0.231237
    49  C    0.646744
    50  C    0.074214
    51  H    0.178855
    52  O   -0.563393
    53  C   -0.469474
    54  H    0.191001
    55  H    0.182489
    56  H    0.185538
    57  O   -0.660893
    58  H    0.442960
    59  N   -0.569563
    60  H    0.422534
    61  C   -0.099924
    62  H    0.212083
    63  C    0.610341
    64  C   -0.035068
    65  H    0.166536
    66  H    0.172851
    67  O   -0.514265
    68  O   -0.634787
    69  H    0.453160
    70  N   -0.572269
    71  H    0.355275
    72  C   -0.266297
    73  H    0.227682
    74  H    0.202046
    75  C    0.633260
    76  O   -0.546087
    77  N   -0.586613
    78  H    0.354988
    79  C   -0.071185
    80  H    0.218267
    81  C    0.595396
    82  C   -0.272944
    83  H    0.145186
    84  H    0.183690
    85  O   -0.436522
    86  C   -0.264790
    87  H    0.149939
    88  H    0.131337
    89  C   -0.257707
    90  H    0.157191
    91  H    0.130174
    92  C   -0.126711
    93  H    0.134263
    94  H    0.113433
    95  N   -0.761835
    96  H    0.295813
    97  H    0.348937
    98  O   -0.583976
    99  H    0.427712
   100  H    0.477687
 Sum of Mulliken charges =   1.00000

 Dipole moment (field-independent basis, Debye):
    X=              8.6295    Y=            -12.6578    Z=              3.3096  Tot=             15.6730
 Quadrupole moment (field-independent basis, Debye-Ang):
   XX=           -271.2190   YY=           -183.5944   ZZ=           -198.4488
   XY=            -27.7248   XZ=            -58.7867   YZ=            -40.6782

 Normal termination of Gaussian 16 at Fri May 27 02:51:12 2022.
