 Gaussian 16, Revision C.01,
 Gaussian 16:  ES64L-G16RevC.01  3-Jul-2019

 -------------------------------------------------------------------
 # B3LYP/6-31G* guess=read geom=check nosymm integral(ultrafinegrid)
 -------------------------------------------------------------------

 -----------------------------------------------------
 Candidate Structure: Conf:19 Charge calc in gas phase
 -----------------------------------------------------
 Structure from the checkpoint file:  "conf-19.chk"
 Charge =  1 Multiplicity = 1

                          Input orientation:
 ---------------------------------------------------------------------
 Center     Atomic      Atomic             Coordinates (Angstroms)
 Number     Number       Type             X           Y           Z
 ---------------------------------------------------------------------
      1          7           0       -0.366417    2.170009   -0.873984
      2          1           0        0.205338    2.690625   -0.208331
      3          1           0       -0.090747    2.461299   -1.814764
      4          6           0       -1.767254    2.553355   -0.619205
      5          1           0       -1.909852    3.638607   -0.736217
      6          6           0       -2.003499    2.259227    0.871288
      7          6           0       -2.705802    1.864339   -1.614516
      8          1           0       -2.583235    0.774654   -1.573486
      9          1           0       -3.752379    2.096955   -1.373788
     10          8           0       -1.130602    2.607257    1.674889
     11          6           0       -2.467494    2.353389   -3.047426
     12          7           0       -3.010472    1.595530   -4.025165
     13          1           0       -2.942891    1.908436   -4.984934
     14          1           0       -3.553206    0.766264   -3.832402
     15          8           0       -1.829661    3.383716   -3.280416
     16          7           0       -3.135777    1.632300    1.270054
     17          1           0       -3.780381    1.263034    0.585490
     18          6           0       -3.405892    1.331610    2.688795
     19          1           0       -2.928175    2.136148    3.257933
     20          6           0       -2.686150   -0.004111    3.023124
     21          6           0       -4.914427    1.296107    3.007987
     22          1           0       -5.340216    0.420537    2.496384
     23          8           0       -3.265973   -1.066846    3.204741
     24          6           0       -5.627577    2.569529    2.501710
     25          1           0       -5.388926    2.732849    1.442997
     26          1           0       -5.222838    3.441194    3.035737
     27          6           0       -5.114431    1.102233    4.521239
     28          1           0       -4.715373    1.958884    5.079912
     29          1           0       -6.177111    1.016002    4.762323
     30          1           0       -4.625483    0.192358    4.875470
     31          6           0       -7.153356    2.536547    2.651791
     32          1           0       -7.601585    3.426880    2.198305
     33          1           0       -7.583069    1.657690    2.155370
     34          1           0       -7.466025    2.512904    3.700072
     35          7           0       -1.322976    0.111823    3.041134
     36          1           0       -0.914610    1.014057    2.790907
     37          6           0       -0.466175   -1.054084    3.125032
     38          1           0       -0.708432   -1.611504    4.045618
     39          6           0        0.947002   -0.535319    3.271226
     40          6           0       -0.621444   -2.029739    1.929730
     41          1           0       -0.117420   -2.985124    2.112128
     42          1           0       -1.687703   -2.244340    1.843072
     43          1           0       -0.240653   -1.599108    1.000039
     44          8           0        1.308661    0.596537    3.372302
     45          7           0        2.048575   -1.612102    3.278432
     46          1           0        1.758932   -2.460562    2.751530
     47          6           0        3.333363   -1.179985    2.615326
     48          1           0        3.436152   -0.105913    2.782370
     49          6           0        3.119071   -1.568638    1.139386
     50          6           0        4.476284   -1.974780    3.305640
     51          1           0        4.410464   -3.015372    2.970158
     52          8           0        2.515057   -2.624194    0.927981
     53          6           0        5.850253   -1.403876    2.985236
     54          1           0        6.037946   -1.412336    1.906765
     55          1           0        6.624659   -2.005518    3.468798
     56          1           0        5.940289   -0.367633    3.336372
     57          8           0        4.198579   -2.016993    4.709824
     58          1           0        4.640126   -1.269652    5.147855
     59          7           0        3.593698   -0.734224    0.211700
     60          1           0        4.105112    0.112773    0.445857
     61          6           0        3.256132   -0.858300   -1.193872
     62          1           0        3.198392   -1.921644   -1.439766
     63          6           0        4.346591   -0.106993   -1.976274
     64          6           0        1.906371   -0.142941   -1.522918
     65          1           0        1.536193   -0.563634   -2.471917
     66          1           0        2.116669    0.917802   -1.707164
     67          8           0        5.031891    0.736845   -1.406639
     68          8           0        0.967109   -0.280729   -0.485899
     69          1           0        0.359893    0.507191   -0.575109
     70          7           0        4.385341   -0.345442   -3.314977
     71          1           0        3.871762   -1.135642   -3.683099
     72          6           0        5.185023    0.456166   -4.236356
     73          1           0        5.860665    1.069156   -3.636759
     74          1           0        5.800019   -0.192896   -4.867231
     75          6           0        4.399702    1.401131   -5.169513
     76          8           0        5.007981    2.113919   -5.952145
     77          7           0        3.040764    1.340654   -5.071456
     78          1           0        2.646185    0.908166   -4.245767
     79          6           0        2.156580    2.296626   -5.726342
     80          1           0        2.721641    3.217450   -5.918933
     81          6           0        1.031125    2.607676   -4.740080
     82          6           0        1.574074    1.786235   -7.067727
     83          1           0        0.980575    0.881676   -6.870270
     84          1           0        0.878562    2.548833   -7.436652
     85          8           0        0.940599    2.062080   -3.646452
     86          6           0        2.632459    1.488270   -8.136169
     87          1           0        3.262741    2.374441   -8.283235
     88          1           0        3.305349    0.699116   -7.778602
     89          6           0        2.012383    1.062884   -9.474170
     90          1           0        1.358432    1.863967   -9.850760
     91          1           0        1.366000    0.184157   -9.322510
     92          6           0        3.065733    0.729150  -10.545928
     93          1           0        3.717968    1.598837  -10.698101
     94          1           0        3.714935   -0.076583  -10.177728
     95          7           0        2.553230    0.324040  -11.855427
     96          1           0        1.976995    1.066992  -12.249001
     97          1           0        1.941557   -0.485379  -11.756036
     98          8           0        0.147533    3.484745   -5.198128
     99          1           0       -0.582895    3.574447   -4.527920
    100          1           0        2.314151   -1.857737    4.253932
 ---------------------------------------------------------------------

 SCF Done:  E(RB3LYP) =  -2418.41588012     A.U. after    2 cycles

 Alpha  occ. eigenvalues --  -19.32216 -19.29867 -19.27186 -19.24724 -19.23596
 Alpha  occ. eigenvalues --  -19.23051 -19.22360 -19.22280 -19.22115 -19.21372
 Alpha  occ. eigenvalues --  -19.18513 -14.58244 -14.48637 -14.47339 -14.47263
 Alpha  occ. eigenvalues --  -14.47109 -14.45692 -14.43340 -14.42174 -14.35383
 Alpha  occ. eigenvalues --  -10.47512 -10.42182 -10.41200 -10.40882 -10.39673
 Alpha  occ. eigenvalues --  -10.39427 -10.38742 -10.38723 -10.38389 -10.37397
 Alpha  occ. eigenvalues --  -10.36302 -10.34289 -10.33328 -10.33061 -10.32666
 Alpha  occ. eigenvalues --  -10.31518 -10.31485 -10.31363 -10.30752 -10.28901
 Alpha  occ. eigenvalues --  -10.27644 -10.25997 -10.25941 -10.25030 -10.24499
 Alpha  occ. eigenvalues --  -10.24347 -10.23934 -10.23308  -1.23963  -1.18986
 Alpha  occ. eigenvalues --   -1.17880  -1.16633  -1.15113  -1.14432  -1.14376
 Alpha  occ. eigenvalues --   -1.13155  -1.11622  -1.10756  -1.09986  -1.09889
 Alpha  occ. eigenvalues --   -1.04936  -1.03350  -1.03005  -1.02766  -1.02151
 Alpha  occ. eigenvalues --   -0.99865  -0.99196  -0.92824  -0.92167  -0.90154
 Alpha  occ. eigenvalues --   -0.88949  -0.87929  -0.87191  -0.86749  -0.84055
 Alpha  occ. eigenvalues --   -0.82486  -0.82190  -0.80283  -0.79080  -0.78657
 Alpha  occ. eigenvalues --   -0.77365  -0.76078  -0.75007  -0.74343  -0.73948
 Alpha  occ. eigenvalues --   -0.73278  -0.71197  -0.71097  -0.70537  -0.69740
 Alpha  occ. eigenvalues --   -0.69274  -0.68664  -0.68241  -0.67433  -0.66627
 Alpha  occ. eigenvalues --   -0.65609  -0.65136  -0.65063  -0.64754  -0.63887
 Alpha  occ. eigenvalues --   -0.63839  -0.63116  -0.62044  -0.61742  -0.60523
 Alpha  occ. eigenvalues --   -0.60498  -0.59981  -0.59584  -0.59344  -0.58808
 Alpha  occ. eigenvalues --   -0.58622  -0.58226  -0.57561  -0.57430  -0.57171
 Alpha  occ. eigenvalues --   -0.56823  -0.55959  -0.55741  -0.55420  -0.54981
 Alpha  occ. eigenvalues --   -0.54568  -0.54349  -0.53937  -0.53522  -0.53381
 Alpha  occ. eigenvalues --   -0.53049  -0.52711  -0.52642  -0.52349  -0.52197
 Alpha  occ. eigenvalues --   -0.51637  -0.51194  -0.51003  -0.50656  -0.50401
 Alpha  occ. eigenvalues --   -0.50307  -0.50157  -0.49853  -0.49446  -0.49310
 Alpha  occ. eigenvalues --   -0.49091  -0.48530  -0.48485  -0.48284  -0.48042
 Alpha  occ. eigenvalues --   -0.47585  -0.47472  -0.47014  -0.46813  -0.46649
 Alpha  occ. eigenvalues --   -0.46365  -0.46207  -0.45423  -0.44649  -0.44456
 Alpha  occ. eigenvalues --   -0.43930  -0.43904  -0.43288  -0.43022  -0.42783
 Alpha  occ. eigenvalues --   -0.42573  -0.41640  -0.41081  -0.40419  -0.40308
 Alpha  occ. eigenvalues --   -0.39989  -0.39900  -0.39370  -0.39249  -0.38711
 Alpha  occ. eigenvalues --   -0.37989  -0.37812  -0.37762  -0.37586  -0.37422
 Alpha  occ. eigenvalues --   -0.36938  -0.36469  -0.36316  -0.35660  -0.35126
 Alpha  occ. eigenvalues --   -0.34666  -0.33773  -0.33102  -0.31853  -0.27362
 Alpha virt. eigenvalues --   -0.17917  -0.11880  -0.09793  -0.08717  -0.08157
 Alpha virt. eigenvalues --   -0.07796  -0.07187  -0.06701  -0.04705  -0.04479
 Alpha virt. eigenvalues --   -0.03554  -0.03046  -0.02544  -0.02256  -0.02131

 Mulliken charges:
               1
     1  N   -0.806471
     2  H    0.341991
     3  H    0.376992
     4  C   -0.045974
     5  H    0.193800
     6  C    0.646124
     7  C   -0.403701
     8  H    0.180576
     9  H    0.184803
    10  O   -0.549152
    11  C    0.643734
    12  N   -0.738961
    13  H    0.365036
    14  H    0.358149
    15  O   -0.536709
    16  N   -0.624867
    17  H    0.343849
    18  C   -0.058348
    19  H    0.190657
    20  C    0.631287
    21  C   -0.096831
    22  H    0.143224
    23  O   -0.515938
    24  C   -0.254146
    25  H    0.115855
    26  H    0.144012
    27  C   -0.473412
    28  H    0.145545
    29  H    0.167463
    30  H    0.176254
    31  C   -0.451203
    32  H    0.157189
    33  H    0.146257
    34  H    0.162515
    35  N   -0.652771
    36  H    0.400831
    37  C   -0.021858
    38  H    0.212222
    39  C    0.585474
    40  C   -0.517483
    41  H    0.158579
    42  H    0.220805
    43  H    0.227221
    44  O   -0.359001
    45  N   -0.720374
    46  H    0.422234
    47  C   -0.121444
    48  H    0.213627
    49  C    0.677500
    50  C    0.118671
    51  H    0.193390
    52  O   -0.537189
    53  C   -0.496937
    54  H    0.191347
    55  H    0.205935
    56  H    0.165566
    57  O   -0.628361
    58  H    0.422879
    59  N   -0.596938
    60  H    0.363070
    61  C   -0.084113
    62  H    0.192598
    63  C    0.607027
    64  C   -0.015317
    65  H    0.128646
    66  H    0.158981
    67  O   -0.515418
    68  O   -0.672819
    69  H    0.440317
    70  N   -0.619567
    71  H    0.344990
    72  C   -0.240740
    73  H    0.233889
    74  H    0.202720
    75  C    0.599048
    76  O   -0.496205
    77  N   -0.621447
    78  H    0.352566
    79  C   -0.046121
    80  H    0.207478
    81  C    0.588033
    82  C   -0.259790
    83  H    0.125262
    84  H    0.164476
    85  O   -0.510982
    86  C   -0.257946
    87  H    0.160520
    88  H    0.140602
    89  C   -0.266192
    90  H    0.126470
    91  H    0.116584
    92  C   -0.140441
    93  H    0.149782
    94  H    0.140508
    95  N   -0.700548
    96  H    0.294626
    97  H    0.290903
    98  O   -0.584440
    99  H    0.457879
   100  H    0.421582
 Sum of Mulliken charges =   1.00000

 Dipole moment (field-independent basis, Debye):
    X=              0.6515    Y=             -2.8517    Z=              4.2000  Tot=              5.1183
 Quadrupole moment (field-independent basis, Debye-Ang):
   XX=           -218.1230   YY=           -283.6740   ZZ=           -225.8367
   XY=            -39.8668   XZ=             65.6781   YZ=             -5.4151

 Normal termination of Gaussian 16 at Fri May 27 02:50:18 2022.
