 Gaussian 16, Revision C.01,
 Gaussian 16:  ES64L-G16RevC.01  3-Jul-2019

 -------------------------------------------------------------------
 # B3LYP/6-31G* guess=read geom=check nosymm integral(ultrafinegrid)
 -------------------------------------------------------------------

 ------------------------------------------------------
 Candidate Structure: Conf:234 Charge calc in gas phase
 ------------------------------------------------------
 Structure from the checkpoint file:  "conf-234.chk"
 Charge =  1 Multiplicity = 1

                          Input orientation:
 ---------------------------------------------------------------------
 Center     Atomic      Atomic             Coordinates (Angstroms)
 Number     Number       Type             X           Y           Z
 ---------------------------------------------------------------------
      1          7           0       -4.156085   -2.932641    5.438709
      2          1           0       -3.564743   -3.657144    5.837432
      3          1           0       -5.009168   -3.356825    5.080596
      4          6           0       -3.485872   -2.174172    4.411030
      5          1           0       -2.621427   -1.667181    4.852481
      6          6           0       -4.481223   -1.160225    3.828675
      7          6           0       -2.965127   -3.043922    3.191875
      8          1           0       -2.129315   -3.663200    3.527050
      9          1           0       -3.786518   -3.681091    2.857593
     10          8           0       -5.456178   -1.558499    3.189657
     11          6           0       -2.504306   -2.174505    2.070347
     12          7           0       -3.329009   -1.843699    1.096987
     13          1           0       -3.047057   -1.162488    0.393337
     14          1           0       -4.314983   -2.071103    1.191880
     15          8           0       -1.302794   -1.702824    2.138800
     16          7           0       -4.161234    0.147624    3.986173
     17          1           0       -3.296134    0.376866    4.460766
     18          6           0       -4.854852    1.220686    3.257467
     19          1           0       -5.437639    0.714278    2.485439
     20          6           0       -3.733975    1.950625    2.491558
     21          6           0       -5.861521    2.016272    4.132241
     22          1           0       -6.595347    1.251217    4.421357
     23          8           0       -3.395287    1.548125    1.369966
     24          6           0       -6.598004    3.064901    3.272441
     25          1           0       -6.924395    2.586879    2.338673
     26          1           0       -5.894527    3.857577    2.980020
     27          6           0       -5.302961    2.600107    5.442952
     28          1           0       -4.781858    3.557116    5.300151
     29          1           0       -6.120282    2.810755    6.138069
     30          1           0       -4.630006    1.901572    5.952634
     31          6           0       -7.816772    3.692214    3.959004
     32          1           0       -8.334150    4.372597    3.275078
     33          1           0       -8.534737    2.924056    4.269724
     34          1           0       -7.537671    4.270099    4.846402
     35          7           0       -3.075416    2.937895    3.136182
     36          1           0       -3.373420    3.198313    4.065738
     37          6           0       -1.815575    3.489415    2.644279
     38          1           0       -2.017567    4.076808    1.740762
     39          6           0       -0.878652    2.313590    2.289618
     40          6           0       -1.185212    4.380624    3.718853
     41          1           0       -0.262107    4.831357    3.343829
     42          1           0       -1.865258    5.192399    3.998214
     43          1           0       -0.940905    3.791336    4.608758
     44          8           0       -0.791290    1.320321    3.007869
     45          7           0       -0.205631    2.471113    1.123278
     46          1           0       -0.255741    3.334348    0.589092
     47          6           0        0.672237    1.469906    0.544679
     48          1           0        1.107425    0.872516    1.351796
     49          6           0        1.742506    2.247388   -0.250642
     50          6           0       -0.139006    0.545786   -0.413874
     51          1           0       -0.464281    1.150913   -1.269044
     52          8           0        1.449268    3.329375   -0.756643
     53          6           0        0.620846   -0.683795   -0.888534
     54          1           0        1.515269   -0.407205   -1.452112
     55          1           0       -0.016184   -1.288625   -1.540458
     56          1           0        0.935562   -1.303817   -0.040320
     57          8           0       -1.332434    0.073643    0.260165
     58          1           0       -1.155571   -0.948963    1.458379
     59          7           0        2.950600    1.658534   -0.353646
     60          1           0        3.116510    0.715201   -0.009987
     61          6           0        4.003111    2.139133   -1.233329
     62          1           0        3.552499    2.694469   -2.062516
     63          6           0        4.746019    0.885450   -1.733802
     64          6           0        4.956119    3.091571   -0.476249
     65          1           0        5.431741    2.545449    0.349871
     66          1           0        4.351480    3.905013   -0.053978
     67          8           0        4.594792   -0.193711   -1.160220
     68          8           0        5.919540    3.593183   -1.391728
     69          1           0        6.723109    3.838462   -0.888339
     70          7           0        5.563146    1.078329   -2.797478
     71          1           0        5.662838    2.031147   -3.127115
     72          6           0        6.563798    0.100525   -3.199710
     73          1           0        6.261399   -0.870155   -2.802155
     74          1           0        6.594788    0.019019   -4.290407
     75          6           0        7.999668    0.381560   -2.716589
     76          8           0        8.907102   -0.377204   -3.027935
     77          7           0        8.164176    1.493555   -1.948671
     78          1           0        7.382887    2.119019   -1.784159
     79          6           0        9.477801    1.901944   -1.474308
     80          1           0       10.047679    1.000671   -1.233769
     81          6           0        9.288177    2.724201   -0.210962
     82          6           0       10.255797    2.711485   -2.548844
     83          1           0       10.264180    2.075295   -3.441448
     84          1           0        9.671209    3.608252   -2.796042
     85          8           0        8.342729    3.466857    0.012348
     86          6           0       11.689601    3.095511   -2.165967
     87          1           0       11.701068    3.773810   -1.306790
     88          1           0       12.237546    2.194313   -1.856029
     89          6           0       12.441298    3.768534   -3.321686
     90          1           0       11.850198    4.615459   -3.703508
     91          1           0       12.547463    3.067434   -4.160727
     92          6           0       13.831821    4.275846   -2.920688
     93          1           0       14.408583    3.446010   -2.492483
     94          1           0       14.370512    4.596766   -3.829403
     95          7           0       13.731221    5.322044   -1.892979
     96          1           0       13.379195    6.180146   -2.317108
     97          1           0       14.659061    5.547637   -1.538496
     98          8           0       10.302713    2.587455    0.648741
     99          1           0       10.144258    3.201543    1.392419
    100          1           0       -1.880610    0.833778    0.572817
 ---------------------------------------------------------------------

 SCF Done:  E(RB3LYP) =  -2418.45166063     A.U. after    3 cycles

 Alpha  occ. eigenvalues --  -19.33242 -19.28940 -19.27941 -19.23841 -19.23087
 Alpha  occ. eigenvalues --  -19.22966 -19.22762 -19.22114 -19.21636 -19.20479
 Alpha  occ. eigenvalues --  -19.16932 -14.52163 -14.48124 -14.47973 -14.46685
 Alpha  occ. eigenvalues --  -14.45731 -14.44513 -14.42862 -14.42049 -14.35444
 Alpha  occ. eigenvalues --  -10.46850 -10.40705 -10.40631 -10.40254 -10.39483
 Alpha  occ. eigenvalues --  -10.38994 -10.37460 -10.36156 -10.35369 -10.34799
 Alpha  occ. eigenvalues --  -10.34653 -10.34171 -10.33875 -10.33093 -10.32191
 Alpha  occ. eigenvalues --  -10.31931 -10.30437 -10.29607 -10.29271 -10.29103
 Alpha  occ. eigenvalues --  -10.28338 -10.27602 -10.27121 -10.25198 -10.24865
 Alpha  occ. eigenvalues --  -10.24666 -10.22652 -10.22572  -1.24076  -1.19197
 Alpha  occ. eigenvalues --   -1.16138  -1.15265  -1.14747  -1.13956  -1.13382
 Alpha  occ. eigenvalues --   -1.12274  -1.10392  -1.09618  -1.09081  -1.08230
 Alpha  occ. eigenvalues --   -1.04561  -1.03725  -1.03073  -1.02201  -1.00962
 Alpha  occ. eigenvalues --   -1.00582  -0.98484  -0.92067  -0.91307  -0.90419
 Alpha  occ. eigenvalues --   -0.89717  -0.87656  -0.86127  -0.85175  -0.83794
 Alpha  occ. eigenvalues --   -0.81895  -0.81111  -0.80872  -0.79114  -0.79033
 Alpha  occ. eigenvalues --   -0.75899  -0.75447  -0.74816  -0.73542  -0.73185
 Alpha  occ. eigenvalues --   -0.72593  -0.71731  -0.70526  -0.69964  -0.69655
 Alpha  occ. eigenvalues --   -0.69467  -0.68873  -0.68347  -0.66871  -0.66688
 Alpha  occ. eigenvalues --   -0.66350  -0.65644  -0.64631  -0.64384  -0.64079
 Alpha  occ. eigenvalues --   -0.62370  -0.62187  -0.61670  -0.61125  -0.60792
 Alpha  occ. eigenvalues --   -0.60256  -0.59509  -0.58511  -0.58111  -0.57501
 Alpha  occ. eigenvalues --   -0.57153  -0.56981  -0.56197  -0.56005  -0.55812
 Alpha  occ. eigenvalues --   -0.55278  -0.55005  -0.54823  -0.54543  -0.54350
 Alpha  occ. eigenvalues --   -0.54048  -0.53818  -0.53250  -0.53154  -0.52937
 Alpha  occ. eigenvalues --   -0.52683  -0.52538  -0.52067  -0.51649  -0.51203
 Alpha  occ. eigenvalues --   -0.50973  -0.50523  -0.50380  -0.50286  -0.49845
 Alpha  occ. eigenvalues --   -0.49636  -0.49550  -0.49431  -0.49182  -0.49054
 Alpha  occ. eigenvalues --   -0.49006  -0.48705  -0.48248  -0.47910  -0.47561
 Alpha  occ. eigenvalues --   -0.47287  -0.47275  -0.47017  -0.46789  -0.46470
 Alpha  occ. eigenvalues --   -0.46122  -0.45897  -0.45517  -0.45052  -0.44940
 Alpha  occ. eigenvalues --   -0.44592  -0.44353  -0.42969  -0.42464  -0.42274
 Alpha  occ. eigenvalues --   -0.41866  -0.41665  -0.41555  -0.41443  -0.40490
 Alpha  occ. eigenvalues --   -0.40237  -0.38837  -0.38556  -0.38276  -0.37813
 Alpha  occ. eigenvalues --   -0.37504  -0.37340  -0.37265  -0.36969  -0.35985
 Alpha  occ. eigenvalues --   -0.35943  -0.35701  -0.35556  -0.35005  -0.34794
 Alpha  occ. eigenvalues --   -0.34571  -0.33684  -0.31370  -0.30233  -0.27623
 Alpha virt. eigenvalues --   -0.15555  -0.11536  -0.08799  -0.08140  -0.07893
 Alpha virt. eigenvalues --   -0.07634  -0.06295  -0.04055  -0.03000  -0.02765
 Alpha virt. eigenvalues --   -0.02023  -0.01301  -0.01016  -0.00560   0.00129

 Mulliken charges:
               1
     1  N   -0.698048
     2  H    0.326053
     3  H    0.332517
     4  C   -0.050805
     5  H    0.173105
     6  C    0.616947
     7  C   -0.357855
     8  H    0.209843
     9  H    0.197961
    10  O   -0.538663
    11  C    0.583195
    12  N   -0.692264
    13  H    0.403450
    14  H    0.404576
    15  O   -0.549256
    16  N   -0.606619
    17  H    0.354203
    18  C   -0.066348
    19  H    0.199896
    20  C    0.617333
    21  C   -0.078576
    22  H    0.166036
    23  O   -0.568650
    24  C   -0.267401
    25  H    0.149049
    26  H    0.135390
    27  C   -0.495735
    28  H    0.144650
    29  H    0.188101
    30  H    0.154646
    31  C   -0.453568
    32  H    0.164965
    33  H    0.157880
    34  H    0.154660
    35  N   -0.598907
    36  H    0.359161
    37  C   -0.018707
    38  H    0.175950
    39  C    0.610723
    40  C   -0.493400
    41  H    0.187174
    42  H    0.178518
    43  H    0.182167
    44  O   -0.550231
    45  N   -0.624325
    46  H    0.363528
    47  C   -0.067252
    48  H    0.183784
    49  C    0.618518
    50  C    0.131613
    51  H    0.172371
    52  O   -0.527943
    53  C   -0.485612
    54  H    0.191095
    55  H    0.178237
    56  H    0.163301
    57  O   -0.724196
    58  H    0.486113
    59  N   -0.613779
    60  H    0.361935
    61  C   -0.079269
    62  H    0.197803
    63  C    0.607766
    64  C   -0.026592
    65  H    0.150018
    66  H    0.165075
    67  O   -0.531723
    68  O   -0.658024
    69  H    0.449018
    70  N   -0.601095
    71  H    0.357236
    72  C   -0.241195
    73  H    0.225618
    74  H    0.196727
    75  C    0.604447
    76  O   -0.510051
    77  N   -0.650590
    78  H    0.356507
    79  C   -0.022709
    80  H    0.204081
    81  C    0.597701
    82  C   -0.273795
    83  H    0.176169
    84  H    0.138321
    85  O   -0.510126
    86  C   -0.260993
    87  H    0.166232
    88  H    0.141055
    89  C   -0.255619
    90  H    0.125634
    91  H    0.138664
    92  C   -0.143751
    93  H    0.143341
    94  H    0.123848
    95  N   -0.717524
    96  H    0.294266
    97  H    0.303140
    98  O   -0.535188
    99  H    0.423936
   100  H    0.481141
 Sum of Mulliken charges =   1.00000

 Dipole moment (field-independent basis, Debye):
    X=             -2.5877    Y=              5.8112    Z=              9.7465  Tot=             11.6387
 Quadrupole moment (field-independent basis, Debye-Ang):
   XX=           -135.6773   YY=           -222.7691   ZZ=           -227.3853
   XY=             61.2207   XZ=            -47.5982   YZ=             -2.4153

 Normal termination of Gaussian 16 at Fri May 27 02:51:49 2022.
