 Gaussian 16, Revision C.01,
 Gaussian 16:  ES64L-G16RevC.01  3-Jul-2019

 -------------------------------------------------------------------
 # B3LYP/6-31G* guess=read geom=check nosymm integral(ultrafinegrid)
 -------------------------------------------------------------------

 ------------------------------------------------------
 Candidate Structure: Conf:962 Charge calc in gas phase
 ------------------------------------------------------
 Structure from the checkpoint file:  "conf-962.chk"
 Charge =  1 Multiplicity = 1

                          Input orientation:
 ---------------------------------------------------------------------
 Center     Atomic      Atomic             Coordinates (Angstroms)
 Number     Number       Type             X           Y           Z
 ---------------------------------------------------------------------
      1          7           0       -5.293132   -2.862577    1.195017
      2          1           0       -5.742142   -1.974226    0.970297
      3          1           0       -6.035935   -3.537166    1.367801
      4          6           0       -4.499628   -2.672080    2.416113
      5          1           0       -5.109001   -2.780885    3.329318
      6          6           0       -4.013465   -1.211080    2.459611
      7          6           0       -3.374787   -3.729733    2.498801
      8          1           0       -2.892520   -3.714935    3.479423
      9          1           0       -3.834569   -4.717454    2.383175
     10          8           0       -4.722493   -0.305626    2.016251
     11          6           0       -2.293522   -3.546861    1.440531
     12          7           0       -2.690341   -3.746400    0.171113
     13          1           0       -2.022592   -3.632027   -0.581985
     14          1           0       -3.691570   -3.736796   -0.017774
     15          8           0       -1.138173   -3.219631    1.769788
     16          7           0       -2.827387   -0.970182    3.087529
     17          1           0       -2.130206   -1.707456    3.139063
     18          6           0       -2.343018    0.401180    3.235703
     19          1           0       -3.218921    1.021460    3.440480
     20          6           0       -1.733269    0.822947    1.890255
     21          6           0       -1.323762    0.541203    4.386323
     22          1           0       -0.439792   -0.045374    4.100607
     23          8           0       -0.596883    0.436556    1.549688
     24          6           0       -1.852173   -0.040899    5.717870
     25          1           0       -1.047220    0.063344    6.456478
     26          1           0       -2.011470   -1.119559    5.600562
     27          6           0       -0.888327    2.010134    4.529215
     28          1           0       -1.731230    2.661207    4.785543
     29          1           0       -0.141379    2.107027    5.323653
     30          1           0       -0.441632    2.400478    3.607820
     31          6           0       -3.132591    0.594499    6.274436
     32          1           0       -3.398336    0.128863    7.229071
     33          1           0       -3.015781    1.667604    6.459399
     34          1           0       -3.987103    0.459646    5.600801
     35          7           0       -2.513908    1.581646    1.101263
     36          1           0       -3.491032    1.651787    1.370044
     37          6           0       -2.162281    2.044639   -0.245735
     38          1           0       -2.359233    1.240501   -0.967364
     39          6           0       -0.670638    2.381638   -0.273658
     40          6           0       -3.001140    3.278275   -0.601382
     41          1           0       -2.786052    3.601074   -1.624195
     42          1           0       -4.068671    3.042192   -0.541828
     43          1           0       -2.774839    4.099260    0.083935
     44          8           0       -0.179884    3.193779    0.539959
     45          7           0        0.073520    1.754028   -1.194173
     46          1           0       -0.306595    1.034637   -1.805804
     47          6           0        1.523026    1.887209   -1.271653
     48          1           0        1.791538    2.947604   -1.197058
     49          6           0        1.919614    1.323545   -2.656322
     50          6           0        2.214974    1.093098   -0.134076
     51          1           0        1.918756    0.041977   -0.173028
     52          8           0        1.204915    0.486640   -3.200146
     53          6           0        3.718565    1.238571   -0.041898
     54          1           0        4.189266    0.731317   -0.889701
     55          1           0        4.073527    0.758539    0.873788
     56          1           0        4.030058    2.289584   -0.023882
     57          8           0        1.634660    1.597674    1.173541
     58          1           0        1.113347    2.481347    1.004012
     59          7           0        3.052079    1.819890   -3.192696
     60          1           0        3.689749    2.376603   -2.630565
     61          6           0        3.680862    1.204238   -4.353239
     62          1           0        2.998035    1.245939   -5.207976
     63          6           0        4.089756   -0.241843   -4.032845
     64          6           0        4.966028    2.017862   -4.647704
     65          1           0        4.693924    3.009758   -5.019563
     66          1           0        5.551762    1.507342   -5.424111
     67          8           0        4.724855   -0.488794   -2.997336
     68          8           0        5.707469    2.223135   -3.459136
     69          1           0        5.936705    1.341087   -3.109650
     70          7           0        3.814134   -1.169516   -4.969188
     71          1           0        3.159526   -0.940260   -5.705789
     72          6           0        4.229253   -2.564619   -4.836622
     73          1           0        4.393358   -2.979919   -5.831690
     74          1           0        5.168895   -2.574572   -4.278103
     75          6           0        3.178305   -3.451328   -4.144593
     76          8           0        2.603953   -4.342494   -4.758241
     77          7           0        2.948577   -3.171471   -2.833292
     78          1           0        3.431900   -2.408866   -2.371211
     79          6           0        1.963853   -3.935623   -2.084908
     80          1           0        1.137714   -4.165502   -2.766179
     81          6           0        1.415896   -3.095466   -0.942137
     82          6           0        2.515025   -5.288808   -1.560305
     83          1           0        1.682175   -5.835503   -1.103300
     84          1           0        2.826967   -5.858895   -2.442389
     85          8           0        1.916868   -2.058169   -0.540477
     86          6           0        3.675268   -5.171649   -0.564999
     87          1           0        4.502038   -4.614849   -1.029742
     88          1           0        3.354614   -4.592720    0.312251
     89          6           0        4.178216   -6.544961   -0.099611
     90          1           0        4.457730   -7.145786   -0.976549
     91          1           0        3.363075   -7.075211    0.409295
     92          6           0        5.379694   -6.479224    0.849589
     93          1           0        5.663881   -7.502557    1.120278
     94          1           0        6.243727   -6.046087    0.311935
     95          7           0        5.044485   -5.770809    2.093407
     96          1           0        5.060280   -4.764906    1.934469
     97          1           0        5.763137   -5.949354    2.792477
     98          8           0        0.334880   -3.672118   -0.413637
     99          1           0        0.022205   -3.256450    0.440176
    100          1           0        0.855405    0.993060    1.453065
 ---------------------------------------------------------------------

 SCF Done:  E(RB3LYP) =  -2418.45041813     A.U. after    1 cycles

 Alpha  occ. eigenvalues --  -19.35884 -19.26554 -19.26307 -19.25512 -19.24660
 Alpha  occ. eigenvalues --  -19.24352 -19.22831 -19.22786 -19.22557 -19.22419
 Alpha  occ. eigenvalues --  -19.18686 -14.50115 -14.49227 -14.47977 -14.47380
 Alpha  occ. eigenvalues --  -14.46770 -14.44707 -14.43105 -14.42071 -14.36204
 Alpha  occ. eigenvalues --  -10.43272 -10.41928 -10.41583 -10.40366 -10.39703
 Alpha  occ. eigenvalues --  -10.39625 -10.39287 -10.38883 -10.37482 -10.36818
 Alpha  occ. eigenvalues --  -10.36150 -10.34570 -10.34162 -10.33882 -10.33582
 Alpha  occ. eigenvalues --  -10.31488 -10.30812 -10.29929 -10.29581 -10.29384
 Alpha  occ. eigenvalues --  -10.29011 -10.26711 -10.26619 -10.25638 -10.25254
 Alpha  occ. eigenvalues --  -10.25082 -10.24146 -10.23079  -1.23178  -1.17989
 Alpha  occ. eigenvalues --   -1.17853  -1.16683  -1.16328  -1.14563  -1.14476
 Alpha  occ. eigenvalues --   -1.13332  -1.12043  -1.10664  -1.09438  -1.06601
 Alpha  occ. eigenvalues --   -1.05540  -1.04443  -1.03236  -1.03033  -1.00598
 Alpha  occ. eigenvalues --   -0.99578  -0.98713  -0.93054  -0.92843  -0.91042
 Alpha  occ. eigenvalues --   -0.89556  -0.87889  -0.86533  -0.86326  -0.84311
 Alpha  occ. eigenvalues --   -0.82795  -0.82553  -0.80545  -0.80045  -0.77562
 Alpha  occ. eigenvalues --   -0.76191  -0.75726  -0.75288  -0.74379  -0.73763
 Alpha  occ. eigenvalues --   -0.72908  -0.72293  -0.71698  -0.70473  -0.70266
 Alpha  occ. eigenvalues --   -0.69257  -0.69091  -0.68090  -0.67671  -0.67061
 Alpha  occ. eigenvalues --   -0.66032  -0.65281  -0.64814  -0.64442  -0.63495
 Alpha  occ. eigenvalues --   -0.63290  -0.62505  -0.62309  -0.61959  -0.61749
 Alpha  occ. eigenvalues --   -0.60726  -0.60587  -0.59544  -0.59019  -0.58597
 Alpha  occ. eigenvalues --   -0.58236  -0.57816  -0.56957  -0.56888  -0.56116
 Alpha  occ. eigenvalues --   -0.55521  -0.55274  -0.55202  -0.55052  -0.54513
 Alpha  occ. eigenvalues --   -0.54436  -0.54220  -0.54103  -0.53660  -0.53473
 Alpha  occ. eigenvalues --   -0.53273  -0.52967  -0.52729  -0.52221  -0.51907
 Alpha  occ. eigenvalues --   -0.51837  -0.51675  -0.51166  -0.51016  -0.50445
 Alpha  occ. eigenvalues --   -0.50283  -0.49944  -0.49713  -0.49312  -0.49259
 Alpha  occ. eigenvalues --   -0.49112  -0.48974  -0.48765  -0.48434  -0.48340
 Alpha  occ. eigenvalues --   -0.48106  -0.47721  -0.47620  -0.47524  -0.47125
 Alpha  occ. eigenvalues --   -0.46933  -0.46699  -0.46228  -0.45947  -0.45389
 Alpha  occ. eigenvalues --   -0.45028  -0.43884  -0.43703  -0.43106  -0.42237
 Alpha  occ. eigenvalues --   -0.41542  -0.41283  -0.41211  -0.40908  -0.40421
 Alpha  occ. eigenvalues --   -0.39969  -0.39696  -0.39189  -0.39088  -0.38736
 Alpha  occ. eigenvalues --   -0.38674  -0.38287  -0.37851  -0.37814  -0.37423
 Alpha  occ. eigenvalues --   -0.37127  -0.36943  -0.36618  -0.35783  -0.35630
 Alpha  occ. eigenvalues --   -0.35602  -0.34383  -0.32515  -0.31854  -0.28453
 Alpha virt. eigenvalues --   -0.12871  -0.11631  -0.11050  -0.09319  -0.09132
 Alpha virt. eigenvalues --   -0.07629  -0.07397  -0.05269  -0.04363  -0.02886
 Alpha virt. eigenvalues --   -0.02578  -0.01955  -0.01490  -0.00673   0.00136

 Mulliken charges:
               1
     1  N   -0.751863
     2  H    0.341749
     3  H    0.324012
     4  C   -0.067057
     5  H    0.185803
     6  C    0.614132
     7  C   -0.383110
     8  H    0.184516
     9  H    0.193676
    10  O   -0.542393
    11  C    0.602263
    12  N   -0.731624
    13  H    0.357550
    14  H    0.381291
    15  O   -0.557811
    16  N   -0.618490
    17  H    0.372554
    18  C   -0.047356
    19  H    0.179877
    20  C    0.671018
    21  C   -0.111842
    22  H    0.150331
    23  O   -0.619155
    24  C   -0.257231
    25  H    0.154076
    26  H    0.138128
    27  C   -0.472316
    28  H    0.161875
    29  H    0.170240
    30  H    0.143201
    31  C   -0.461988
    32  H    0.166230
    33  H    0.157872
    34  H    0.148079
    35  N   -0.587991
    36  H    0.376685
    37  C   -0.010339
    38  H    0.177069
    39  C    0.640893
    40  C   -0.483467
    41  H    0.184044
    42  H    0.182583
    43  H    0.202516
    44  O   -0.589470
    45  N   -0.591582
    46  H    0.376367
    47  C   -0.119377
    48  H    0.201567
    49  C    0.642836
    50  C    0.076213
    51  H    0.256555
    52  O   -0.523981
    53  C   -0.494849
    54  H    0.217548
    55  H    0.198882
    56  H    0.167182
    57  O   -0.667824
    58  H    0.484986
    59  N   -0.598455
    60  H    0.363341
    61  C   -0.078469
    62  H    0.175958
    63  C    0.642248
    64  C   -0.068886
    65  H    0.184219
    66  H    0.168460
    67  O   -0.561185
    68  O   -0.618459
    69  H    0.420257
    70  N   -0.576819
    71  H    0.356372
    72  C   -0.246144
    73  H    0.199642
    74  H    0.204495
    75  C    0.600084
    76  O   -0.501761
    77  N   -0.605310
    78  H    0.357980
    79  C   -0.037014
    80  H    0.192476
    81  C    0.598164
    82  C   -0.269904
    83  H    0.160260
    84  H    0.175003
    85  O   -0.501109
    86  C   -0.279662
    87  H    0.128345
    88  H    0.142991
    89  C   -0.235716
    90  H    0.132613
    91  H    0.146766
    92  C   -0.148686
    93  H    0.147354
    94  H    0.114464
    95  N   -0.716682
    96  H    0.291823
    97  H    0.302471
    98  O   -0.604822
    99  H    0.442800
   100  H    0.507210
 Sum of Mulliken charges =   1.00000

 Dipole moment (field-independent basis, Debye):
    X=             -1.5305    Y=              2.0160    Z=             -0.7693  Tot=              2.6455
 Quadrupole moment (field-independent basis, Debye-Ang):
   XX=           -201.2251   YY=           -260.1310   ZZ=           -223.4531
   XY=             13.0930   XZ=            -39.1779   YZ=            -20.2713

 Normal termination of Gaussian 16 at Fri May 27 02:50:59 2022.
