 Gaussian 16, Revision C.01,
 Gaussian 16:  ES64L-G16RevC.01  3-Jul-2019

 -------------------------------------------------------------------
 # B3LYP/6-31G* guess=read geom=check nosymm integral(ultrafinegrid)
 -------------------------------------------------------------------

 ------------------------------------------------------
 Candidate Structure: Conf:404 Charge calc in gas phase
 ------------------------------------------------------
 Structure from the checkpoint file:  "conf-404.chk"
 Charge =  1 Multiplicity = 1

                          Input orientation:
 ---------------------------------------------------------------------
 Center     Atomic      Atomic             Coordinates (Angstroms)
 Number     Number       Type             X           Y           Z
 ---------------------------------------------------------------------
      1          7           0       -5.434438    0.353517   -0.783547
      2          1           0       -4.883747    1.190722   -0.974997
      3          1           0       -6.185331    0.671498   -0.172962
      4          6           0       -4.602203   -0.590861   -0.053697
      5          1           0       -5.248966   -1.420878    0.262720
      6          6           0       -4.014349    0.015492    1.245001
      7          6           0       -3.554867   -1.192429   -1.009489
      8          1           0       -3.058884   -2.064794   -0.559439
      9          1           0       -4.085723   -1.566087   -1.890138
     10          8           0       -4.447774    1.082427    1.684844
     11          6           0       -2.459629   -0.217539   -1.436571
     12          7           0       -1.834536   -0.494625   -2.590541
     13          1           0       -0.988373    0.028080   -2.795289
     14          1           0       -1.992351   -1.352701   -3.114961
     15          8           0       -2.152083    0.758738   -0.727281
     16          7           0       -3.066056   -0.702747    1.920333
     17          1           0       -2.603392   -1.465434    1.444433
     18          6           0       -2.364612   -0.136852    3.081511
     19          1           0       -3.116387    0.418931    3.649997
     20          6           0       -1.333844    0.865786    2.506347
     21          6           0       -1.745025   -1.216091    3.989157
     22          1           0       -0.971631   -1.738220    3.406389
     23          8           0       -0.154322    0.496888    2.309530
     24          6           0       -2.811524   -2.243496    4.427635
     25          1           0       -3.359520   -2.597533    3.546420
     26          1           0       -3.554627   -1.736442    5.059362
     27          6           0       -1.065895   -0.550162    5.198068
     28          1           0       -1.801871   -0.022148    5.817451
     29          1           0       -0.578611   -1.296995    5.830539
     30          1           0       -0.298211    0.165408    4.890673
     31          6           0       -2.244047   -3.456216    5.174603
     32          1           0       -3.038823   -4.177048    5.392712
     33          1           0       -1.483664   -3.972954    4.575341
     34          1           0       -1.785316   -3.179580    6.129105
     35          7           0       -1.873266    2.057665    2.203903
     36          1           0       -2.892552    2.058994    2.303272
     37          6           0       -1.425651    3.127007    1.283207
     38          1           0       -2.034574    3.012909    0.380222
     39          6           0        0.038821    2.953979    0.893802
     40          6           0       -1.668243    4.498560    1.915598
     41          1           0       -1.442646    5.292082    1.196526
     42          1           0       -2.718243    4.594175    2.208750
     43          1           0       -1.034675    4.634543    2.794297
     44          8           0        0.948498    3.490799    1.562233
     45          7           0        0.290686    2.189961   -0.185088
     46          1           0       -0.476830    1.640950   -0.602647
     47          6           0        1.667061    1.964107   -0.615690
     48          1           0        2.188922    2.926468   -0.565619
     49          6           0        1.660097    1.432526   -2.056554
     50          6           0        2.421172    0.949218    0.288240
     51          1           0        2.009654   -0.056051    0.189345
     52          8           0        0.901318    0.514491   -2.384626
     53          6           0        3.922800    0.937398    0.092582
     54          1           0        4.168904    0.599699   -0.919867
     55          1           0        4.367099    0.236831    0.801802
     56          1           0        4.357414    1.931274    0.251085
     57          8           0        2.147824    1.307047    1.712752
     58          1           0        1.966609    2.321251    1.761142
     59          7           0        2.535408    2.001696   -2.902476
     60          1           0        3.267274    2.617052   -2.556973
     61          6           0        2.801432    1.446678   -4.223919
     62          1           0        1.889099    1.486666   -4.828849
     63          6           0        3.330247    0.008088   -4.095211
     64          6           0        3.911848    2.321565   -4.859717
     65          1           0        3.504446    3.305518   -5.109108
     66          1           0        4.261598    1.849843   -5.788305
     67          8           0        4.287404   -0.229579   -3.355401
     68          8           0        4.959324    2.540604   -3.935815
     69          1           0        5.314114    1.663902   -3.692965
     70          7           0        2.732400   -0.926371   -4.875432
     71          1           0        1.958578   -0.644174   -5.462831
     72          6           0        3.207354   -2.298966   -4.970087
     73          1           0        3.399617   -2.566105   -6.013013
     74          1           0        4.157653   -2.348792   -4.431816
     75          6           0        2.282899   -3.383679   -4.399878
     76          8           0        2.480177   -4.551010   -4.696591
     77          7           0        1.292577   -2.975564   -3.547360
     78          1           0        1.173064   -1.990062   -3.345693
     79          6           0        0.396927   -3.946570   -2.935882
     80          1           0        0.892212   -4.916611   -3.011488
     81          6           0       -0.922161   -4.026756   -3.710257
     82          6           0        0.085571   -3.605902   -1.464846
     83          1           0       -0.392269   -2.617382   -1.430169
     84          1           0       -0.657289   -4.329021   -1.101656
     85          8           0       -1.620229   -3.070532   -4.001342
     86          6           0        1.310562   -3.621004   -0.544009
     87          1           0        1.758981   -4.624288   -0.545869
     88          1           0        2.067173   -2.935902   -0.945893
     89          6           0        0.953841   -3.213318    0.892435
     90          1           0        0.201126   -3.908396    1.291364
     91          1           0        0.498367   -2.212261    0.889464
     92          6           0        2.147446   -3.193879    1.852032
     93          1           0        1.795544   -2.888686    2.843872
     94          1           0        2.548871   -4.215597    1.958733
     95          7           0        3.167794   -2.217440    1.424978
     96          1           0        3.716879   -2.614175    0.663153
     97          1           0        3.831697   -2.080921    2.186375
     98          8           0       -1.260125   -5.287655   -4.002617
     99          1           0       -2.118893   -5.266331   -4.469529
    100          1           0        1.207874    0.928848    1.996538
 ---------------------------------------------------------------------

 SCF Done:  E(RB3LYP) =  -2418.45338702     A.U. after    2 cycles

 Alpha  occ. eigenvalues --  -19.34841 -19.29866 -19.25580 -19.25545 -19.25438
 Alpha  occ. eigenvalues --  -19.25249 -19.24610 -19.23667 -19.22737 -19.21830
 Alpha  occ. eigenvalues --  -19.20304 -14.49265 -14.48799 -14.48536 -14.47644
 Alpha  occ. eigenvalues --  -14.46461 -14.45808 -14.44744 -14.41096 -14.39574
 Alpha  occ. eigenvalues --  -10.42680 -10.42402 -10.42068 -10.41475 -10.40843
 Alpha  occ. eigenvalues --  -10.39753 -10.38623 -10.38602 -10.38189 -10.37205
 Alpha  occ. eigenvalues --  -10.35598 -10.34935 -10.34924 -10.33528 -10.33390
 Alpha  occ. eigenvalues --  -10.32860 -10.32178 -10.30039 -10.29790 -10.29266
 Alpha  occ. eigenvalues --  -10.29212 -10.28633 -10.27866 -10.27653 -10.27502
 Alpha  occ. eigenvalues --  -10.26473 -10.25892 -10.25076  -1.22449  -1.20974
 Alpha  occ. eigenvalues --   -1.17531  -1.16604  -1.15949  -1.15524  -1.13926
 Alpha  occ. eigenvalues --   -1.13385  -1.12797  -1.12583  -1.11803  -1.05607
 Alpha  occ. eigenvalues --   -1.05385  -1.04446  -1.04384  -1.02494  -1.01880
 Alpha  occ. eigenvalues --   -1.00251  -0.97546  -0.97355  -0.92653  -0.90340
 Alpha  occ. eigenvalues --   -0.90006  -0.88582  -0.88550  -0.85755  -0.85507
 Alpha  occ. eigenvalues --   -0.83865  -0.82585  -0.82394  -0.79260  -0.78993
 Alpha  occ. eigenvalues --   -0.76497  -0.76025  -0.75432  -0.74402  -0.73606
 Alpha  occ. eigenvalues --   -0.72961  -0.72634  -0.71448  -0.70816  -0.70422
 Alpha  occ. eigenvalues --   -0.70314  -0.69997  -0.68990  -0.67996  -0.67678
 Alpha  occ. eigenvalues --   -0.66942  -0.66420  -0.65937  -0.65475  -0.64066
 Alpha  occ. eigenvalues --   -0.63461  -0.62986  -0.62041  -0.61793  -0.61489
 Alpha  occ. eigenvalues --   -0.60868  -0.60491  -0.60010  -0.59843  -0.59445
 Alpha  occ. eigenvalues --   -0.58739  -0.58333  -0.58020  -0.57787  -0.57549
 Alpha  occ. eigenvalues --   -0.57388  -0.56401  -0.56370  -0.56039  -0.55323
 Alpha  occ. eigenvalues --   -0.54940  -0.54690  -0.54493  -0.54351  -0.53830
 Alpha  occ. eigenvalues --   -0.53609  -0.53519  -0.52890  -0.52658  -0.52420
 Alpha  occ. eigenvalues --   -0.52220  -0.52074  -0.51899  -0.51388  -0.51131
 Alpha  occ. eigenvalues --   -0.50877  -0.50437  -0.50304  -0.50214  -0.49770
 Alpha  occ. eigenvalues --   -0.49483  -0.49411  -0.48944  -0.48780  -0.48595
 Alpha  occ. eigenvalues --   -0.48267  -0.48252  -0.47954  -0.47761  -0.47596
 Alpha  occ. eigenvalues --   -0.46909  -0.46635  -0.46424  -0.46240  -0.45912
 Alpha  occ. eigenvalues --   -0.45650  -0.45512  -0.44808  -0.44517  -0.44240
 Alpha  occ. eigenvalues --   -0.43289  -0.42798  -0.42251  -0.42045  -0.41734
 Alpha  occ. eigenvalues --   -0.41098  -0.40875  -0.40525  -0.40161  -0.40099
 Alpha  occ. eigenvalues --   -0.39277  -0.38753  -0.38475  -0.38399  -0.38084
 Alpha  occ. eigenvalues --   -0.37878  -0.37008  -0.36704  -0.36545  -0.35845
 Alpha  occ. eigenvalues --   -0.34878  -0.34797  -0.33796  -0.33568  -0.32695
 Alpha virt. eigenvalues --   -0.12871  -0.11929  -0.10543  -0.09799  -0.09719
 Alpha virt. eigenvalues --   -0.08472  -0.07272  -0.06558  -0.05118  -0.04147
 Alpha virt. eigenvalues --   -0.03467  -0.03047  -0.01906  -0.01592  -0.01166

 Mulliken charges:
               1
     1  N   -0.689244
     2  H    0.310939
     3  H    0.323800
     4  C   -0.080829
     5  H    0.180274
     6  C    0.631554
     7  C   -0.390032
     8  H    0.162135
     9  H    0.206642
    10  O   -0.546687
    11  C    0.616011
    12  N   -0.786734
    13  H    0.374889
    14  H    0.401035
    15  O   -0.567305
    16  N   -0.601763
    17  H    0.334143
    18  C   -0.063692
    19  H    0.189352
    20  C    0.673740
    21  C   -0.101013
    22  H    0.137636
    23  O   -0.623567
    24  C   -0.256365
    25  H    0.135954
    26  H    0.146503
    27  C   -0.470691
    28  H    0.155576
    29  H    0.167849
    30  H    0.156492
    31  C   -0.452243
    32  H    0.162684
    33  H    0.138682
    34  H    0.160049
    35  N   -0.600222
    36  H    0.395341
    37  C   -0.033056
    38  H    0.202521
    39  C    0.587972
    40  C   -0.451020
    41  H    0.173338
    42  H    0.172524
    43  H    0.192450
    44  O   -0.578617
    45  N   -0.620680
    46  H    0.409985
    47  C   -0.082514
    48  H    0.194164
    49  C    0.635444
    50  C    0.092743
    51  H    0.223005
    52  O   -0.561095
    53  C   -0.488948
    54  H    0.202948
    55  H    0.199607
    56  H    0.166812
    57  O   -0.657049
    58  H    0.478608
    59  N   -0.581849
    60  H    0.367634
    61  C   -0.081329
    62  H    0.169880
    63  C    0.635830
    64  C   -0.069899
    65  H    0.186255
    66  H    0.168427
    67  O   -0.535272
    68  O   -0.614991
    69  H    0.422363
    70  N   -0.611510
    71  H    0.349653
    72  C   -0.237238
    73  H    0.208530
    74  H    0.232738
    75  C    0.597827
    76  O   -0.488015
    77  N   -0.614389
    78  H    0.348457
    79  C   -0.037129
    80  H    0.215966
    81  C    0.596496
    82  C   -0.303691
    83  H    0.143070
    84  H    0.159002
    85  O   -0.492927
    86  C   -0.267180
    87  H    0.154607
    88  H    0.145181
    89  C   -0.256818
    90  H    0.135776
    91  H    0.134539
    92  C   -0.152111
    93  H    0.152748
    94  H    0.139876
    95  N   -0.740134
    96  H    0.311326
    97  H    0.314284
    98  O   -0.530321
    99  H    0.426072
   100  H    0.508227
 Sum of Mulliken charges =   1.00000

 Dipole moment (field-independent basis, Debye):
    X=              1.4372    Y=             -0.6057    Z=             -3.0612  Tot=              3.4356
 Quadrupole moment (field-independent basis, Debye-Ang):
   XX=           -253.3466   YY=           -255.3730   ZZ=           -220.5550
   XY=             15.4226   XZ=            -13.7346   YZ=            -11.7777

 Normal termination of Gaussian 16 at Fri May 27 02:52:13 2022.
