 Gaussian 16, Revision C.01,
 Gaussian 16:  ES64L-G16RevC.01  3-Jul-2019

 -------------------------------------------------------------------
 # B3LYP/6-31G* guess=read geom=check nosymm integral(ultrafinegrid)
 -------------------------------------------------------------------

 ------------------------------------------------------
 Candidate Structure: Conf:797 Charge calc in gas phase
 ------------------------------------------------------
 Structure from the checkpoint file:  "conf-797.chk"
 Charge =  1 Multiplicity = 1

                          Input orientation:
 ---------------------------------------------------------------------
 Center     Atomic      Atomic             Coordinates (Angstroms)
 Number     Number       Type             X           Y           Z
 ---------------------------------------------------------------------
      1          7           0       -2.424786   -0.740423   -3.272789
      2          1           0       -2.764178    0.165395   -3.600718
      3          1           0       -3.253856   -1.278709   -3.023859
      4          6           0       -1.598648   -0.520055   -2.086295
      5          1           0       -1.408885   -1.498255   -1.626835
      6          6           0       -2.271676    0.432496   -1.079376
      7          6           0       -0.258896    0.091468   -2.568130
      8          1           0        0.033032   -0.400241   -3.495247
      9          1           0       -0.428981    1.154748   -2.781964
     10          8           0       -2.631323    1.554608   -1.441887
     11          6           0        0.854665    0.001270   -1.568490
     12          7           0        1.978326   -0.572086   -1.896590
     13          1           0        2.816650   -0.599018   -1.306093
     14          1           0        2.018199   -1.063124   -2.819682
     15          8           0        0.573535    0.511000   -0.407435
     16          7           0       -2.474788   -0.045596    0.172118
     17          1           0       -2.050758   -0.921873    0.442798
     18          6           0       -3.088020    0.774540    1.218026
     19          1           0       -3.860938    1.356091    0.709821
     20          6           0       -2.049172    1.775555    1.787735
     21          6           0       -3.784853   -0.104592    2.288131
     22          1           0       -4.564782   -0.643304    1.729334
     23          8           0       -1.307161    1.498460    2.739232
     24          6           0       -4.494403    0.748703    3.362420
     25          1           0       -3.741112    1.281136    3.956450
     26          1           0       -4.984666    0.051882    4.053477
     27          6           0       -2.875828   -1.154177    2.952085
     28          1           0       -2.076240   -0.682816    3.526688
     29          1           0       -3.471709   -1.773671    3.630600
     30          1           0       -2.420509   -1.845755    2.230093
     31          6           0       -5.542726    1.735341    2.833044
     32          1           0       -6.080317    2.202973    3.664269
     33          1           0       -5.097394    2.546509    2.244982
     34          1           0       -6.285346    1.231763    2.201979
     35          7           0       -2.011736    2.970350    1.146731
     36          1           0       -2.578719    3.047049    0.308374
     37          6           0       -1.406510    4.206736    1.673868
     38          1           0       -1.317354    4.873563    0.806933
     39          6           0        0.027260    4.024441    2.219521
     40          6           0       -2.303402    4.866089    2.725916
     41          1           0       -1.860579    5.806105    3.060646
     42          1           0       -3.292450    5.066346    2.302517
     43          1           0       -2.410833    4.214947    3.597650
     44          8           0        0.397843    4.603931    3.228868
     45          7           0        0.868370    3.261173    1.453924
     46          1           0        0.481616    2.720309    0.691840
     47          6           0        2.186051    2.895159    1.946938
     48          1           0        2.493385    3.693573    2.626345
     49          6           0        3.161302    2.756659    0.782837
     50          6           0        2.182039    1.536675    2.731169
     51          1           0        3.190907    1.112489    2.678354
     52          8           0        2.969945    1.903366   -0.103810
     53          6           0        1.774882    1.684842    4.193965
     54          1           0        2.471169    2.346019    4.719795
     55          1           0        1.794770    0.704465    4.680567
     56          1           0        0.771604    2.107537    4.287827
     57          8           0        1.340597    0.583601    2.058325
     58          1           0        0.417685    0.771106    2.343669
     59          7           0        4.270744    3.515396    0.844024
     60          1           0        4.257839    4.326417    1.451915
     61          6           0        5.315269    3.529676   -0.189510
     62          1           0        4.818170    3.467587   -1.165827
     63          6           0        6.295831    2.337064   -0.051969
     64          6           0        6.094975    4.841932   -0.082915
     65          1           0        6.744257    4.935121   -0.961198
     66          1           0        6.742397    4.811217    0.803571
     67          8           0        7.506672    2.508418    0.017840
     68          8           0        5.135131    5.889719   -0.000700
     69          1           0        5.611706    6.727211    0.103622
     70          7           0        5.696420    1.116933   -0.022095
     71          1           0        4.694338    1.058835   -0.188036
     72          6           0        6.454556   -0.109181    0.071158
     73          1           0        7.507676    0.132621   -0.093351
     74          1           0        6.370136   -0.555132    1.074199
     75          6           0        5.926213   -1.127967   -0.937072
     76          8           0        4.719778   -1.208643   -1.208585
     77          7           0        6.856506   -1.936783   -1.482313
     78          1           0        7.828376   -1.830624   -1.222470
     79          6           0        6.519938   -2.988431   -2.440009
     80          1           0        5.710018   -3.586407   -2.003087
     81          6           0        7.676538   -3.962060   -2.636750
     82          6           0        6.026867   -2.421994   -3.807873
     83          1           0        6.075619   -1.330227   -3.745079
     84          1           0        6.706945   -2.729046   -4.608368
     85          8           0        7.636227   -4.878488   -3.420357
     86          6           0        4.592809   -2.850072   -4.144336
     87          1           0        4.587182   -3.898632   -4.472677
     88          1           0        4.006398   -2.794917   -3.219550
     89          6           0        3.944474   -1.950276   -5.202543
     90          1           0        4.511622   -1.996046   -6.141298
     91          1           0        3.990722   -0.907836   -4.857500
     92          6           0        2.486485   -2.303573   -5.501973
     93          1           0        2.062845   -1.557868   -6.182402
     94          1           0        2.429558   -3.275896   -6.012879
     95          7           0        1.660408   -2.297846   -4.264827
     96          1           0        1.835824   -3.162627   -3.751525
     97          1           0        0.675785   -2.348895   -4.530438
     98          8           0        8.743383   -3.695642   -1.846600
     99          1           0        9.424321   -4.366402   -2.047951
    100          1           0        1.254684    0.511574    0.342972
 ---------------------------------------------------------------------

 SCF Done:  E(RB3LYP) =  -2418.45547716     A.U. after    1 cycles

 Alpha  occ. eigenvalues --  -19.32330 -19.29495 -19.25339 -19.23416 -19.23078
 Alpha  occ. eigenvalues --  -19.22761 -19.22741 -19.22215 -19.22119 -19.19914
 Alpha  occ. eigenvalues --  -19.19843 -14.49700 -14.46988 -14.46747 -14.46689
 Alpha  occ. eigenvalues --  -14.46121 -14.44703 -14.44044 -14.44042 -14.42435
 Alpha  occ. eigenvalues --  -10.45449 -10.41652 -10.39594 -10.39412 -10.39075
 Alpha  occ. eigenvalues --  -10.39054 -10.37392 -10.37306 -10.34470 -10.33822
 Alpha  occ. eigenvalues --  -10.33614 -10.32879 -10.32770 -10.32638 -10.32554
 Alpha  occ. eigenvalues --  -10.32146 -10.31998 -10.31845 -10.30751 -10.28332
 Alpha  occ. eigenvalues --  -10.27849 -10.27221 -10.27093 -10.25816 -10.25634
 Alpha  occ. eigenvalues --  -10.25394 -10.25354 -10.24825  -1.22419  -1.20120
 Alpha  occ. eigenvalues --   -1.14518  -1.14269  -1.14117  -1.13502  -1.12143
 Alpha  occ. eigenvalues --   -1.11803  -1.11724  -1.11091  -1.10671  -1.06402
 Alpha  occ. eigenvalues --   -1.03160  -1.03114  -1.02743  -1.02277  -1.00849
 Alpha  occ. eigenvalues --   -1.00520  -0.99946  -0.99477  -0.89934  -0.89626
 Alpha  occ. eigenvalues --   -0.89116  -0.87902  -0.86175  -0.85559  -0.84704
 Alpha  occ. eigenvalues --   -0.82121  -0.81614  -0.80025  -0.79629  -0.79128
 Alpha  occ. eigenvalues --   -0.78155  -0.74784  -0.73708  -0.73175  -0.72624
 Alpha  occ. eigenvalues --   -0.71410  -0.71095  -0.70725  -0.70244  -0.69303
 Alpha  occ. eigenvalues --   -0.68913  -0.68567  -0.67839  -0.67067  -0.67015
 Alpha  occ. eigenvalues --   -0.66366  -0.66280  -0.65715  -0.64061  -0.63913
 Alpha  occ. eigenvalues --   -0.62401  -0.61790  -0.61270  -0.60531  -0.60381
 Alpha  occ. eigenvalues --   -0.59719  -0.58806  -0.58637  -0.58428  -0.58024
 Alpha  occ. eigenvalues --   -0.57835  -0.57633  -0.57533  -0.56954  -0.56300
 Alpha  occ. eigenvalues --   -0.56048  -0.55540  -0.55234  -0.55085  -0.54545
 Alpha  occ. eigenvalues --   -0.54441  -0.53659  -0.53329  -0.53112  -0.52809
 Alpha  occ. eigenvalues --   -0.52746  -0.52355  -0.52300  -0.51638  -0.51337
 Alpha  occ. eigenvalues --   -0.51174  -0.50922  -0.50605  -0.50526  -0.50170
 Alpha  occ. eigenvalues --   -0.50015  -0.49652  -0.49229  -0.49026  -0.48726
 Alpha  occ. eigenvalues --   -0.48687  -0.48363  -0.48240  -0.47948  -0.47780
 Alpha  occ. eigenvalues --   -0.47415  -0.47124  -0.46518  -0.46040  -0.45947
 Alpha  occ. eigenvalues --   -0.45716  -0.45424  -0.45256  -0.44989  -0.44836
 Alpha  occ. eigenvalues --   -0.44692  -0.44181  -0.43557  -0.43489  -0.42869
 Alpha  occ. eigenvalues --   -0.42587  -0.42403  -0.42327  -0.41944  -0.41310
 Alpha  occ. eigenvalues --   -0.40904  -0.40837  -0.40597  -0.38631  -0.38154
 Alpha  occ. eigenvalues --   -0.37541  -0.37395  -0.37336  -0.36904  -0.36844
 Alpha  occ. eigenvalues --   -0.36774  -0.36022  -0.36011  -0.35782  -0.34375
 Alpha  occ. eigenvalues --   -0.34115  -0.33587  -0.33494  -0.33091  -0.32856
 Alpha virt. eigenvalues --   -0.13673  -0.09574  -0.09149  -0.08793  -0.08121
 Alpha virt. eigenvalues --   -0.07826  -0.06362  -0.05755  -0.04206  -0.02950
 Alpha virt. eigenvalues --   -0.02108  -0.01581  -0.01079  -0.00146  -0.00012

 Mulliken charges:
               1
     1  N   -0.705273
     2  H    0.328368
     3  H    0.321837
     4  C   -0.072149
     5  H    0.144688
     6  C    0.637113
     7  C   -0.367133
     8  H    0.198895
     9  H    0.221134
    10  O   -0.548690
    11  C    0.635976
    12  N   -0.761942
    13  H    0.419403
    14  H    0.439452
    15  O   -0.582298
    16  N   -0.613278
    17  H    0.339929
    18  C   -0.060556
    19  H    0.181183
    20  C    0.628029
    21  C   -0.090765
    22  H    0.141558
    23  O   -0.556682
    24  C   -0.271723
    25  H    0.161440
    26  H    0.152406
    27  C   -0.476283
    28  H    0.189152
    29  H    0.166665
    30  H    0.119617
    31  C   -0.460503
    32  H    0.167196
    33  H    0.138655
    34  H    0.152581
    35  N   -0.603850
    36  H    0.370740
    37  C   -0.073146
    38  H    0.183602
    39  C    0.647343
    40  C   -0.434348
    41  H    0.189064
    42  H    0.149884
    43  H    0.178668
    44  O   -0.511585
    45  N   -0.625787
    46  H    0.345180
    47  C   -0.062710
    48  H    0.191497
    49  C    0.635253
    50  C    0.123258
    51  H    0.154423
    52  O   -0.598645
    53  C   -0.486402
    54  H    0.164710
    55  H    0.166254
    56  H    0.201165
    57  O   -0.693663
    58  H    0.452561
    59  N   -0.591202
    60  H    0.366714
    61  C   -0.074249
    62  H    0.194198
    63  C    0.619590
    64  C   -0.064757
    65  H    0.169475
    66  H    0.163441
    67  O   -0.511287
    68  O   -0.631124
    69  H    0.415153
    70  N   -0.632690
    71  H    0.382182
    72  C   -0.221403
    73  H    0.202997
    74  H    0.192183
    75  C    0.631006
    76  O   -0.565135
    77  N   -0.620166
    78  H    0.368059
    79  C   -0.020927
    80  H    0.202599
    81  C    0.575426
    82  C   -0.271366
    83  H    0.160382
    84  H    0.179143
    85  O   -0.438862
    86  C   -0.285910
    87  H    0.157994
    88  H    0.140224
    89  C   -0.260699
    90  H    0.158620
    91  H    0.140839
    92  C   -0.154764
    93  H    0.164223
    94  H    0.153517
    95  N   -0.771822
    96  H    0.327020
    97  H    0.334022
    98  O   -0.580780
    99  H    0.433290
   100  H    0.483371
 Sum of Mulliken charges =   1.00000

 Dipole moment (field-independent basis, Debye):
    X=              8.3292    Y=             -0.9356    Z=             -5.4395  Tot=              9.9919
 Quadrupole moment (field-independent basis, Debye-Ang):
   XX=           -169.9801   YY=           -237.4453   ZZ=           -251.3102
   XY=             -6.3487   XZ=            -19.3889   YZ=             12.2558

 Normal termination of Gaussian 16 at Fri May 27 02:51:22 2022.
