 Gaussian 16, Revision C.01,
 Gaussian 16:  ES64L-G16RevC.01  3-Jul-2019

 -------------------------------------------------------------------
 # B3LYP/6-31G* guess=read geom=check nosymm integral(ultrafinegrid)
 -------------------------------------------------------------------

 -----------------------------------------------------
 Candidate Structure: Conf:34 Charge calc in gas phase
 -----------------------------------------------------
 Structure from the checkpoint file:  "conf-34.chk"
 Charge =  1 Multiplicity = 1

                          Input orientation:
 ---------------------------------------------------------------------
 Center     Atomic      Atomic             Coordinates (Angstroms)
 Number     Number       Type             X           Y           Z
 ---------------------------------------------------------------------
      1          7           0        0.502304   -0.754548   -0.252875
      2          1           0        1.132261   -0.656101    0.543133
      3          1           0        1.008514   -1.229812   -1.001369
      4          6           0        0.200868    0.600847   -0.752900
      5          1           0        1.111070    1.185949   -0.965411
      6          6           0       -0.461640    1.313535    0.431478
      7          6           0       -0.619485    0.513316   -2.048332
      8          1           0       -1.439532   -0.205211   -1.908710
      9          1           0       -1.057318    1.489290   -2.290854
     10          8           0        0.213534    1.523399    1.443287
     11          6           0        0.232946    0.017013   -3.224532
     12          7           0       -0.086152    0.508349   -4.439974
     13          1           0        0.432474    0.217506   -5.287964
     14          1           0       -0.821037    1.192820   -4.540672
     15          8           0        1.145913   -0.796732   -3.046464
     16          7           0       -1.783697    1.627779    0.368342
     17          1           0       -2.332522    1.279813   -0.406983
     18          6           0       -2.522102    2.074864    1.562336
     19          1           0       -1.796229    2.626849    2.167248
     20          6           0       -2.934507    0.783814    2.314140
     21          6           0       -3.717556    2.982712    1.217122
     22          1           0       -4.448946    2.370664    0.669280
     23          8           0       -4.071595    0.324603    2.297137
     24          6           0       -3.283089    4.162516    0.321654
     25          1           0       -2.702834    3.779924   -0.526874
     26          1           0       -2.595022    4.806260    0.888627
     27          6           0       -4.388320    3.467758    2.513530
     28          1           0       -3.696533    4.082907    3.104071
     29          1           0       -5.267694    4.078951    2.291860
     30          1           0       -4.720334    2.626683    3.126567
     31          6           0       -4.445861    5.003182   -0.219086
     32          1           0       -4.077033    5.775521   -0.902875
     33          1           0       -5.160577    4.382089   -0.773399
     34          1           0       -4.996958    5.511221    0.578750
     35          7           0       -1.888376    0.151686    2.929008
     36          1           0       -0.944719    0.500869    2.752384
     37          6           0       -2.012749   -1.238088    3.330961
     38          1           0       -2.872662   -1.332648    4.004556
     39          6           0       -0.731456   -1.627294    4.052556
     40          6           0       -2.208167   -2.192711    2.126521
     41          1           0       -2.237947   -3.241543    2.446978
     42          1           0       -3.161707   -1.953847    1.651265
     43          1           0       -1.399661   -2.051228    1.400594
     44          8           0        0.371358   -1.173534    3.761967
     45          7           0       -0.848565   -2.588190    5.032383
     46          1           0       -1.728956   -3.053160    5.215266
     47          6           0        0.355103   -3.068286    5.686237
     48          1           0        1.040838   -2.219168    5.759175
     49          6           0        1.025390   -4.118088    4.791153
     50          6           0        0.082770   -3.608901    7.099072
     51          1           0        1.039452   -3.957875    7.513615
     52          8           0        0.808645   -5.395517    4.975050
     53          6           0       -0.539403   -2.583608    8.035327
     54          1           0        0.136019   -1.733031    8.172950
     55          1           0       -0.711335   -3.030446    9.020696
     56          1           0       -1.491852   -2.212947    7.648325
     57          8           0       -0.788284   -4.752319    6.894877
     58          1           0       -1.014196   -5.152845    7.751383
     59          7           0        1.796212   -3.748021    3.811616
     60          1           0        1.936322   -2.742897    3.631795
     61          6           0        2.451802   -4.638976    2.851466
     62          1           0        2.842377   -5.512749    3.379822
     63          6           0        3.568981   -3.805488    2.208285
     64          6           0        1.465390   -5.140382    1.742472
     65          1           0        1.064927   -4.270932    1.204337
     66          1           0        0.636207   -5.658711    2.234734
     67          8           0        3.545962   -2.581089    2.279997
     68          8           0        2.117004   -6.050133    0.897531
     69          1           0        2.493290   -5.555393    0.134311
     70          7           0        4.504750   -4.538998    1.551670
     71          1           0        4.271696   -5.519129    1.424470
     72          6           0        5.321686   -3.935923    0.517777
     73          1           0        5.392337   -2.865521    0.731987
     74          1           0        6.332715   -4.356538    0.543718
     75          6           0        4.681916   -4.146633   -0.870766
     76          8           0        3.525540   -4.562967   -0.995684
     77          7           0        5.474618   -3.846478   -1.917269
     78          1           0        6.414860   -3.506374   -1.759268
     79          6           0        5.032702   -3.974672   -3.308683
     80          1           0        4.247172   -4.732962   -3.327598
     81          6           0        6.172414   -4.476068   -4.184551
     82          6           0        4.462010   -2.642687   -3.857386
     83          1           0        3.755228   -2.269961   -3.107379
     84          1           0        5.274810   -1.906839   -3.927868
     85          8           0        6.031157   -5.110408   -5.200945
     86          6           0        3.729223   -2.774585   -5.199883
     87          1           0        4.398671   -3.168244   -5.973889
     88          1           0        2.923861   -3.513100   -5.082600
     89          6           0        3.121447   -1.430628   -5.626286
     90          1           0        3.923090   -0.737800   -5.924467
     91          1           0        2.609349   -0.989792   -4.765612
     92          6           0        2.103557   -1.556650   -6.760234
     93          1           0        2.592808   -1.905037   -7.684438
     94          1           0        1.353887   -2.310673   -6.491540
     95          7           0        1.383885   -0.276948   -6.944240
     96          1           0        0.734941   -0.359642   -7.726947
     97          1           0        2.049508    0.448463   -7.213745
     98          8           0        7.384987   -4.066972   -3.724849
     99          1           0        8.052128   -4.389948   -4.360470
    100          1           0        0.159289   -5.503864    5.730990
 ---------------------------------------------------------------------

 SCF Done:  E(RB3LYP) =  -2418.44054080     A.U. after    3 cycles

 Alpha  occ. eigenvalues --  -19.35270 -19.32174 -19.28023 -19.24016 -19.23496
 Alpha  occ. eigenvalues --  -19.23301 -19.22204 -19.21884 -19.18291 -19.18234
 Alpha  occ. eigenvalues --  -19.17603 -14.53526 -14.49554 -14.46944 -14.45973
 Alpha  occ. eigenvalues --  -14.43539 -14.42139 -14.40659 -14.39305 -14.37140
 Alpha  occ. eigenvalues --  -10.47472 -10.40794 -10.40322 -10.40099 -10.39933
 Alpha  occ. eigenvalues --  -10.39243 -10.39232 -10.36036 -10.35454 -10.35377
 Alpha  occ. eigenvalues --  -10.35139 -10.34487 -10.33262 -10.32569 -10.32023
 Alpha  occ. eigenvalues --  -10.30920 -10.29450 -10.29037 -10.26912 -10.26719
 Alpha  occ. eigenvalues --  -10.26046 -10.26021 -10.25029 -10.24359 -10.23566
 Alpha  occ. eigenvalues --  -10.23236 -10.22456 -10.22407  -1.25866  -1.18633
 Alpha  occ. eigenvalues --   -1.18622  -1.16270  -1.15593  -1.13694  -1.11411
 Alpha  occ. eigenvalues --   -1.10706  -1.10366  -1.09741  -1.09669  -1.09039
 Alpha  occ. eigenvalues --   -1.05780  -1.03514  -1.02350  -0.99733  -0.99008
 Alpha  occ. eigenvalues --   -0.95939  -0.94986  -0.94525  -0.93287  -0.90137
 Alpha  occ. eigenvalues --   -0.87951  -0.86954  -0.86098  -0.84415  -0.83581
 Alpha  occ. eigenvalues --   -0.82415  -0.81333  -0.80100  -0.79363  -0.76393
 Alpha  occ. eigenvalues --   -0.76263  -0.76004  -0.75325  -0.74298  -0.72337
 Alpha  occ. eigenvalues --   -0.71147  -0.70856  -0.70301  -0.69364  -0.68641
 Alpha  occ. eigenvalues --   -0.68410  -0.68018  -0.67407  -0.66736  -0.65749
 Alpha  occ. eigenvalues --   -0.64731  -0.64595  -0.64441  -0.64136  -0.63253
 Alpha  occ. eigenvalues --   -0.62870  -0.61948  -0.61371  -0.61005  -0.59078
 Alpha  occ. eigenvalues --   -0.59037  -0.58959  -0.58783  -0.57973  -0.57280
 Alpha  occ. eigenvalues --   -0.56825  -0.56311  -0.56124  -0.55849  -0.55562
 Alpha  occ. eigenvalues --   -0.55419  -0.54974  -0.54936  -0.54697  -0.54356
 Alpha  occ. eigenvalues --   -0.53862  -0.53698  -0.53425  -0.53016  -0.52866
 Alpha  occ. eigenvalues --   -0.52692  -0.52211  -0.52119  -0.51584  -0.51294
 Alpha  occ. eigenvalues --   -0.51124  -0.50853  -0.50417  -0.50355  -0.50276
 Alpha  occ. eigenvalues --   -0.49425  -0.48714  -0.48577  -0.48292  -0.48235
 Alpha  occ. eigenvalues --   -0.47899  -0.47870  -0.47637  -0.46946  -0.46453
 Alpha  occ. eigenvalues --   -0.45992  -0.45882  -0.45475  -0.45332  -0.45251
 Alpha  occ. eigenvalues --   -0.44775  -0.44212  -0.44062  -0.43770  -0.43600
 Alpha  occ. eigenvalues --   -0.43449  -0.42943  -0.42514  -0.42258  -0.42036
 Alpha  occ. eigenvalues --   -0.41749  -0.41104  -0.40629  -0.39979  -0.39645
 Alpha  occ. eigenvalues --   -0.39117  -0.38708  -0.38643  -0.38023  -0.37793
 Alpha  occ. eigenvalues --   -0.37715  -0.37549  -0.37401  -0.36927  -0.36402
 Alpha  occ. eigenvalues --   -0.35280  -0.34321  -0.33819  -0.32578  -0.32507
 Alpha  occ. eigenvalues --   -0.32405  -0.32274  -0.31209  -0.30499  -0.29494
 Alpha virt. eigenvalues --   -0.16804  -0.09856  -0.09277  -0.08074  -0.07727
 Alpha virt. eigenvalues --   -0.06789  -0.06129  -0.03773  -0.03147  -0.02984
 Alpha virt. eigenvalues --   -0.01899  -0.01505  -0.01265  -0.00322   0.00279

 Mulliken charges:
               1
     1  N   -0.756173
     2  H    0.316562
     3  H    0.339594
     4  C   -0.043676
     5  H    0.154706
     6  C    0.624237
     7  C   -0.396844
     8  H    0.180770
     9  H    0.149541
    10  O   -0.541966
    11  C    0.620589
    12  N   -0.788446
    13  H    0.420286
    14  H    0.329122
    15  O   -0.534833
    16  N   -0.612842
    17  H    0.341660
    18  C   -0.058110
    19  H    0.184433
    20  C    0.624525
    21  C   -0.086965
    22  H    0.138668
    23  O   -0.530108
    24  C   -0.252878
    25  H    0.127218
    26  H    0.137731
    27  C   -0.471222
    28  H    0.140378
    29  H    0.159240
    30  H    0.172640
    31  C   -0.450106
    32  H    0.150437
    33  H    0.143450
    34  H    0.156100
    35  N   -0.642326
    36  H    0.395214
    37  C   -0.018395
    38  H    0.171686
    39  C    0.621051
    40  C   -0.484786
    41  H    0.125574
    42  H    0.206397
    43  H    0.199821
    44  O   -0.514660
    45  N   -0.613645
    46  H    0.360084
    47  C   -0.059605
    48  H    0.231006
    49  C    0.642025
    50  C    0.072132
    51  H    0.175742
    52  O   -0.566294
    53  C   -0.468593
    54  H    0.191133
    55  H    0.178468
    56  H    0.186778
    57  O   -0.660192
    58  H    0.440538
    59  N   -0.566729
    60  H    0.426763
    61  C   -0.098248
    62  H    0.207307
    63  C    0.605821
    64  C   -0.039506
    65  H    0.176475
    66  H    0.168497
    67  O   -0.510270
    68  O   -0.638941
    69  H    0.453514
    70  N   -0.572767
    71  H    0.352384
    72  C   -0.261500
    73  H    0.232828
    74  H    0.193288
    75  C    0.630097
    76  O   -0.542383
    77  N   -0.605466
    78  H    0.358873
    79  C   -0.049056
    80  H    0.210059
    81  C    0.591903
    82  C   -0.279739
    83  H    0.187186
    84  H    0.144317
    85  O   -0.438840
    86  C   -0.269814
    87  H    0.159043
    88  H    0.145447
    89  C   -0.291219
    90  H    0.123484
    91  H    0.196599
    92  C   -0.138193
    93  H    0.135019
    94  H    0.152162
    95  N   -0.751388
    96  H    0.315651
    97  H    0.312605
    98  O   -0.585678
    99  H    0.427041
   100  H    0.476505
 Sum of Mulliken charges =   1.00000

 Dipole moment (field-independent basis, Debye):
    X=              7.6162    Y=            -14.6234    Z=             12.4940  Tot=             20.6869
 Quadrupole moment (field-independent basis, Debye-Ang):
   XX=           -213.2021   YY=           -214.0779   ZZ=            -82.4537
   XY=            -40.3848   XZ=            -16.6112   YZ=           -101.1060

 Normal termination of Gaussian 16 at Fri May 27 02:50:33 2022.
