 Gaussian 16, Revision C.01,
 Gaussian 16:  ES64L-G16RevC.01  3-Jul-2019

 -------------------------------------------------------------------
 # B3LYP/6-31G* guess=read geom=check nosymm integral(ultrafinegrid)
 -------------------------------------------------------------------

 ------------------------------------------------------
 Candidate Structure: Conf:966 Charge calc in gas phase
 ------------------------------------------------------
 Structure from the checkpoint file:  "conf-966.chk"
 Charge =  1 Multiplicity = 1

                          Input orientation:
 ---------------------------------------------------------------------
 Center     Atomic      Atomic             Coordinates (Angstroms)
 Number     Number       Type             X           Y           Z
 ---------------------------------------------------------------------
      1          7           0       -5.228972   -1.955797    5.026808
      2          1           0       -6.049783   -2.522829    5.235993
      3          1           0       -4.768669   -1.779823    5.920752
      4          6           0       -5.708214   -0.691353    4.457771
      5          1           0       -6.426011   -0.965495    3.673474
      6          6           0       -4.573400    0.049220    3.733386
      7          6           0       -6.435289    0.247662    5.431530
      8          1           0       -5.797406    0.458217    6.302168
      9          1           0       -6.616058    1.212173    4.943541
     10          8           0       -4.662657    1.244899    3.421707
     11          6           0       -7.752542   -0.363499    5.911922
     12          7           0       -8.508229    0.444942    6.705855
     13          1           0       -9.409034    0.105469    7.014289
     14          1           0       -8.281071    1.415582    6.862213
     15          8           0       -8.099561   -1.504126    5.621622
     16          7           0       -3.506623   -0.723148    3.429648
     17          1           0       -3.588737   -1.701429    3.697235
     18          6           0       -2.317234   -0.210691    2.750391
     19          1           0       -2.190496    0.823481    3.092030
     20          6           0       -2.601492   -0.165223    1.228598
     21          6           0       -1.059060   -1.033244    3.093642
     22          1           0       -1.187347   -2.020963    2.631272
     23          8           0       -2.135701   -0.985249    0.430530
     24          6           0       -0.882323   -1.247618    4.615505
     25          1           0        0.009985   -1.872150    4.753881
     26          1           0       -1.719864   -1.840511    5.003299
     27          6           0        0.189824   -0.394645    2.461059
     28          1           0        0.330830    0.640737    2.795183
     29          1           0        1.085791   -0.957704    2.745839
     30          1           0        0.122370   -0.402680    1.370293
     31          6           0       -0.741469    0.024083    5.462356
     32          1           0       -0.592897   -0.235551    6.516226
     33          1           0        0.116714    0.630841    5.153254
     34          1           0       -1.635688    0.655570    5.404854
     35          7           0       -3.426164    0.845739    0.851591
     36          1           0       -3.876313    1.366543    1.608146
     37          6           0       -4.069903    0.870420   -0.469546
     38          1           0       -4.224496   -0.172804   -0.775461
     39          6           0       -3.144359    1.518192   -1.523677
     40          6           0       -5.404512    1.605101   -0.389807
     41          1           0       -5.904224    1.589362   -1.361144
     42          1           0       -6.052768    1.127031    0.350617
     43          1           0       -5.257525    2.652925   -0.112503
     44          8           0       -3.426342    2.551357   -2.122739
     45          7           0       -1.981878    0.837833   -1.757844
     46          1           0       -1.761907    0.003352   -1.206694
     47          6           0       -1.063087    1.322058   -2.756203
     48          1           0       -1.636239    1.649698   -3.631191
     49          6           0       -0.082503    0.223791   -3.146688
     50          6           0       -0.259869    2.569161   -2.268858
     51          1           0       -0.980305    3.389869   -2.220449
     52          8           0        0.357452   -0.607039   -2.364131
     53          6           0        0.457712    2.396412   -0.939056
     54          1           0       -0.268318    2.202807   -0.144931
     55          1           0        1.000639    3.312375   -0.678959
     56          1           0        1.164530    1.561346   -0.965204
     57          8           0        0.691524    2.874286   -3.342927
     58          1           0        1.934899    1.843918   -3.576262
     59          7           0        0.370303    0.298033   -4.444442
     60          1           0        0.123712    1.095744   -5.019370
     61          6           0        1.556512   -0.425690   -4.820898
     62          1           0        1.458012   -1.469503   -4.505377
     63          6           0        2.790629    0.146852   -4.106220
     64          6           0        1.741908   -0.360499   -6.342305
     65          1           0        0.872288   -0.840812   -6.810126
     66          1           0        2.644307   -0.915824   -6.634817
     67          8           0        2.812168    1.322031   -3.566596
     68          8           0        1.835296    1.018000   -6.663972
     69          1           0        1.832245    1.124286   -7.628017
     70          7           0        3.881733   -0.564247   -4.051866
     71          1           0        3.940447   -1.514566   -4.442153
     72          6           0        5.142785   -0.174517   -3.433756
     73          1           0        5.538408    0.730176   -3.907134
     74          1           0        4.994729    0.032969   -2.368329
     75          6           0        6.084567   -1.380280   -3.649658
     76          8           0        5.664687   -2.363649   -4.261021
     77          7           0        7.321537   -1.239228   -3.150328
     78          1           0        7.529125   -0.467496   -2.522215
     79          6           0        8.308114   -2.320559   -3.114643
     80          1           0        7.776872   -3.271516   -3.217886
     81          6           0        8.961427   -2.247293   -1.737565
     82          6           0        9.382548   -2.214032   -4.222839
     83          1           0        9.914408   -1.259204   -4.104831
     84          1           0       10.105727   -3.015302   -4.041786
     85          8           0        8.861436   -1.293404   -0.992988
     86          6           0        8.815778   -2.342474   -5.640924
     87          1           0        8.324345   -3.316107   -5.737314
     88          1           0        8.047227   -1.576003   -5.802971
     89          6           0        9.883279   -2.204016   -6.739323
     90          1           0       10.332260   -1.201354   -6.707128
     91          1           0        9.381623   -2.279422   -7.714785
     92          6           0       11.012834   -3.242497   -6.680946
     93          1           0       11.689188   -3.065804   -7.535525
     94          1           0       11.616228   -3.084814   -5.778358
     95          7           0       10.473076   -4.605552   -6.614351
     96          1           0       11.233245   -5.274731   -6.506230
     97          1           0       10.019431   -4.838934   -7.497429
     98          8           0        9.687591   -3.340489   -1.466891
     99          1           0       10.106022   -3.206147   -0.594421
    100          1           0        0.986268    3.793892   -3.239948
 ---------------------------------------------------------------------

 SCF Done:  E(RB3LYP) =  -2418.43964900     A.U. after    1 cycles

 Alpha  occ. eigenvalues --  -19.34094 -19.29477 -19.29004 -19.28057 -19.23970
 Alpha  occ. eigenvalues --  -19.23618 -19.23395 -19.18818 -19.18741 -19.18078
 Alpha  occ. eigenvalues --  -19.16957 -14.53075 -14.48094 -14.47331 -14.42909
 Alpha  occ. eigenvalues --  -14.42190 -14.42175 -14.41196 -14.37935 -14.37218
 Alpha  occ. eigenvalues --  -10.46944 -10.41586 -10.41302 -10.40213 -10.38156
 Alpha  occ. eigenvalues --  -10.37424 -10.36854 -10.35600 -10.35345 -10.35233
 Alpha  occ. eigenvalues --  -10.34815 -10.34688 -10.33346 -10.33256 -10.29965
 Alpha  occ. eigenvalues --  -10.29607 -10.28586 -10.27210 -10.26936 -10.26767
 Alpha  occ. eigenvalues --  -10.25382 -10.25352 -10.25022 -10.24720 -10.24020
 Alpha  occ. eigenvalues --  -10.23939 -10.23312 -10.23004  -1.24638  -1.20132
 Alpha  occ. eigenvalues --   -1.16125  -1.15985  -1.15482  -1.14934  -1.11290
 Alpha  occ. eigenvalues --   -1.10938  -1.10246  -1.09968  -1.09447  -1.08686
 Alpha  occ. eigenvalues --   -1.05053  -1.03995  -1.00084  -0.99277  -0.98480
 Alpha  occ. eigenvalues --   -0.95875  -0.94838  -0.93942  -0.92076  -0.89293
 Alpha  occ. eigenvalues --   -0.87778  -0.86886  -0.86300  -0.83657  -0.83276
 Alpha  occ. eigenvalues --   -0.81700  -0.81023  -0.79484  -0.79419  -0.77298
 Alpha  occ. eigenvalues --   -0.76622  -0.76580  -0.73344  -0.72886  -0.71995
 Alpha  occ. eigenvalues --   -0.71733  -0.70401  -0.70308  -0.69610  -0.69440
 Alpha  occ. eigenvalues --   -0.68593  -0.67983  -0.65710  -0.65503  -0.64934
 Alpha  occ. eigenvalues --   -0.64207  -0.63816  -0.63398  -0.63284  -0.62535
 Alpha  occ. eigenvalues --   -0.61992  -0.61635  -0.61089  -0.59890  -0.59684
 Alpha  occ. eigenvalues --   -0.59556  -0.58726  -0.58322  -0.57750  -0.57555
 Alpha  occ. eigenvalues --   -0.57314  -0.57099  -0.56488  -0.56155  -0.55894
 Alpha  occ. eigenvalues --   -0.55489  -0.54965  -0.54856  -0.54549  -0.54277
 Alpha  occ. eigenvalues --   -0.53609  -0.53447  -0.53063  -0.52317  -0.52065
 Alpha  occ. eigenvalues --   -0.51961  -0.51458  -0.51371  -0.50725  -0.50382
 Alpha  occ. eigenvalues --   -0.50193  -0.49913  -0.49647  -0.49643  -0.49440
 Alpha  occ. eigenvalues --   -0.49031  -0.48204  -0.47945  -0.47782  -0.47481
 Alpha  occ. eigenvalues --   -0.47322  -0.47100  -0.46742  -0.46345  -0.46217
 Alpha  occ. eigenvalues --   -0.46140  -0.45903  -0.45261  -0.44714  -0.44488
 Alpha  occ. eigenvalues --   -0.44372  -0.44155  -0.44088  -0.43709  -0.43623
 Alpha  occ. eigenvalues --   -0.43569  -0.43254  -0.42464  -0.42047  -0.41778
 Alpha  occ. eigenvalues --   -0.41433  -0.40962  -0.40892  -0.40783  -0.40687
 Alpha  occ. eigenvalues --   -0.39755  -0.39235  -0.38630  -0.38614  -0.38223
 Alpha  occ. eigenvalues --   -0.38124  -0.38070  -0.37156  -0.36795  -0.36393
 Alpha  occ. eigenvalues --   -0.34602  -0.34179  -0.33070  -0.32809  -0.32364
 Alpha  occ. eigenvalues --   -0.31188  -0.30973  -0.30452  -0.29814  -0.29474
 Alpha virt. eigenvalues --   -0.15631  -0.09957  -0.09289  -0.08264  -0.05878
 Alpha virt. eigenvalues --   -0.05680  -0.04877  -0.04226  -0.03618  -0.03285
 Alpha virt. eigenvalues --   -0.02617  -0.01871  -0.00801   0.00240   0.00762

 Mulliken charges:
               1
     1  N   -0.755922
     2  H    0.346717
     3  H    0.303456
     4  C   -0.062990
     5  H    0.191987
     6  C    0.615774
     7  C   -0.388156
     8  H    0.165903
     9  H    0.193576
    10  O   -0.569446
    11  C    0.609878
    12  N   -0.748660
    13  H    0.351327
    14  H    0.343644
    15  O   -0.512110
    16  N   -0.611988
    17  H    0.371996
    18  C   -0.041021
    19  H    0.171625
    20  C    0.623313
    21  C   -0.094956
    22  H    0.153053
    23  O   -0.548942
    24  C   -0.260472
    25  H    0.141946
    26  H    0.133468
    27  C   -0.476464
    28  H    0.139034
    29  H    0.148112
    30  H    0.170648
    31  C   -0.458478
    32  H    0.153612
    33  H    0.149316
    34  H    0.150926
    35  N   -0.623743
    36  H    0.386122
    37  C   -0.057135
    38  H    0.180648
    39  C    0.622453
    40  C   -0.465185
    41  H    0.174482
    42  H    0.161362
    43  H    0.174608
    44  O   -0.524780
    45  N   -0.652839
    46  H    0.399664
    47  C   -0.011810
    48  H    0.184982
    49  C    0.584497
    50  C    0.091217
    51  H    0.200270
    52  O   -0.503891
    53  C   -0.471663
    54  H    0.192255
    55  H    0.154647
    56  H    0.169403
    57  O   -0.674595
    58  H    0.497448
    59  N   -0.615112
    60  H    0.367066
    61  C   -0.069031
    62  H    0.229807
    63  C    0.670214
    64  C   -0.055591
    65  H    0.186975
    66  H    0.164585
    67  O   -0.586164
    68  O   -0.626401
    69  H    0.428271
    70  N   -0.577933
    71  H    0.399617
    72  C   -0.221878
    73  H    0.223567
    74  H    0.226058
    75  C    0.622128
    76  O   -0.521593
    77  N   -0.601694
    78  H    0.358923
    79  C   -0.061070
    80  H    0.212607
    81  C    0.589957
    82  C   -0.269477
    83  H    0.140883
    84  H    0.189374
    85  O   -0.468519
    86  C   -0.242016
    87  H    0.169499
    88  H    0.120496
    89  C   -0.270696
    90  H    0.135032
    91  H    0.135258
    92  C   -0.140744
    93  H    0.129377
    94  H    0.141376
    95  N   -0.720310
    96  H    0.307200
    97  H    0.298110
    98  O   -0.549454
    99  H    0.430045
   100  H    0.433136
 Sum of Mulliken charges =   1.00000

 Dipole moment (field-independent basis, Debye):
    X=             14.3696    Y=              2.0554    Z=            -13.0329  Tot=             19.5081
 Quadrupole moment (field-independent basis, Debye-Ang):
   XX=           -100.8548   YY=           -266.4074   ZZ=           -113.4989
   XY=            -42.6275   XZ=           -121.4701   YZ=             13.6427

 Normal termination of Gaussian 16 at Fri May 27 02:50:49 2022.
