 Gaussian 16, Revision C.01,
 Gaussian 16:  ES64L-G16RevC.01  3-Jul-2019

 -------------------------------------------------------------------
 # B3LYP/6-31G* guess=read geom=check nosymm integral(ultrafinegrid)
 -------------------------------------------------------------------

 ------------------------------------------------------
 Candidate Structure: Conf:217 Charge calc in gas phase
 ------------------------------------------------------
 Structure from the checkpoint file:  "conf-217.chk"
 Charge =  1 Multiplicity = 1

                          Input orientation:
 ---------------------------------------------------------------------
 Center     Atomic      Atomic             Coordinates (Angstroms)
 Number     Number       Type             X           Y           Z
 ---------------------------------------------------------------------
      1          7           0       -7.625894    1.355735    4.854721
      2          1           0       -7.272168    2.278513    4.596853
      3          1           0       -7.784801    1.383719    5.859385
      4          6           0       -6.588296    0.375880    4.533989
      5          1           0       -6.563678   -0.394235    5.313748
      6          6           0       -5.199138    1.035835    4.430243
      7          6           0       -6.914726   -0.344075    3.191926
      8          1           0       -6.162815   -1.105068    2.964949
      9          1           0       -7.883794   -0.836663    3.315810
     10          8           0       -5.086123    2.253565    4.261142
     11          6           0       -6.945421    0.624566    2.011172
     12          7           0       -8.097066    1.337154    1.897084
     13          1           0       -8.128497    2.080160    1.211016
     14          1           0       -8.719233    1.391859    2.695622
     15          8           0       -5.995266    0.739030    1.238838
     16          7           0       -4.123932    0.207194    4.486784
     17          1           0       -4.273881   -0.791788    4.524190
     18          6           0       -2.751494    0.690703    4.300198
     19          1           0       -2.744529    1.699545    4.721676
     20          6           0       -2.486011    0.839593    2.781741
     21          6           0       -1.739716   -0.167327    5.095647
     22          1           0       -2.054804   -0.049301    6.142746
     23          8           0       -1.845153   -0.007570    2.119685
     24          6           0       -0.299411    0.380966    4.994896
     25          1           0        0.078177    0.227483    3.976162
     26          1           0        0.327573   -0.244464    5.642363
     27          6           0       -1.774481   -1.671405    4.769846
     28          1           0       -1.508989   -1.865760    3.728471
     29          1           0       -1.063398   -2.201597    5.412130
     30          1           0       -2.755125   -2.125095    4.961975
     31          6           0       -0.122707    1.848413    5.405621
     32          1           0        0.939287    2.114193    5.431622
     33          1           0       -0.610731    2.543623    4.712169
     34          1           0       -0.531142    2.034486    6.406212
     35          7           0       -3.047211    1.927931    2.235143
     36          1           0       -3.669428    2.459343    2.847427
     37          6           0       -3.214084    2.154770    0.786682
     38          1           0       -3.730215    1.281764    0.372960
     39          6           0       -1.829893    2.330888    0.130617
     40          6           0       -4.069498    3.400267    0.570268
     41          1           0       -4.235468    3.555542   -0.499635
     42          1           0       -5.041955    3.263020    1.048965
     43          1           0       -3.567037    4.285374    0.969860
     44          8           0       -1.181652    3.363062    0.194408
     45          7           0       -1.384258    1.211793   -0.529395
     46          1           0       -1.922324    0.362856   -0.409120
     47          6           0       -0.001893    1.052023   -0.948089
     48          1           0        0.345016    1.982845   -1.403604
     49          6           0        0.052549   -0.140187   -1.903998
     50          6           0        0.957381    0.672456    0.222718
     51          1           0        1.887051    0.288169   -0.205092
     52          8           0       -0.201420   -1.274854   -1.426489
     53          6           0        1.242075    1.716129    1.281147
     54          1           0        1.712512    2.583467    0.809144
     55          1           0        1.935272    1.304992    2.021130
     56          1           0        0.338850    2.068010    1.780774
     57          8           0        0.355194   -0.539578    0.872286
     58          1           0       -0.481246   -0.287019    1.410398
     59          7           0        0.373974    0.054010   -3.180132
     60          1           0        0.683587    0.976353   -3.470788
     61          6           0        0.909195   -1.028595   -3.994632
     62          1           0        0.257071   -1.901657   -3.898331
     63          6           0        2.318784   -1.394411   -3.424502
     64          6           0        0.930902   -0.558739   -5.450575
     65          1           0       -0.102594   -0.431615   -5.802958
     66          1           0        1.414762   -1.314488   -6.083377
     67          8           0        2.755233   -0.856159   -2.409949
     68          8           0        1.641152    0.672352   -5.456843
     69          1           0        1.617906    1.049075   -6.349609
     70          7           0        2.974634   -2.349914   -4.105147
     71          1           0        2.609237   -2.800514   -4.940827
     72          6           0        4.286775   -2.827370   -3.726000
     73          1           0        5.007452   -2.000732   -3.693333
     74          1           0        4.266249   -3.277583   -2.724866
     75          6           0        4.704306   -3.869407   -4.775280
     76          8           0        3.955796   -4.147837   -5.710369
     77          7           0        5.925566   -4.420111   -4.584481
     78          1           0        6.443480   -4.191763   -3.745581
     79          6           0        6.451185   -5.495112   -5.420871
     80          1           0        5.632205   -5.813504   -6.070708
     81          6           0        6.865181   -6.709749   -4.594639
     82          6           0        7.646962   -5.048865   -6.295901
     83          1           0        8.451559   -4.685628   -5.640919
     84          1           0        8.030852   -5.942362   -6.801795
     85          8           0        7.055876   -7.806761   -5.059770
     86          6           0        7.284650   -3.975955   -7.328632
     87          1           0        6.489887   -4.359315   -7.983521
     88          1           0        6.865667   -3.098747   -6.817276
     89          6           0        8.492717   -3.543892   -8.169059
     90          1           0        8.927518   -4.425522   -8.663586
     91          1           0        9.279235   -3.132991   -7.523281
     92          6           0        8.145388   -2.495833   -9.229436
     93          1           0        7.354150   -2.898860   -9.889751
     94          1           0        7.717720   -1.612584   -8.736267
     95          7           0        9.355633   -2.064508   -9.935389
     96          1           0        9.125786   -1.329748  -10.602428
     97          1           0        9.723715   -2.838172  -10.488209
     98          8           0        7.060375   -6.412858   -3.283739
     99          1           0        7.369601   -7.235560   -2.858208
    100          1           0        0.052537   -1.113234    0.030631
 ---------------------------------------------------------------------

 SCF Done:  E(RB3LYP) =  -2418.42753075     A.U. after    1 cycles

 Alpha  occ. eigenvalues --  -19.34775 -19.27192 -19.26317 -19.25795 -19.24226
 Alpha  occ. eigenvalues --  -19.22235 -19.21834 -19.21113 -19.20901 -19.20577
 Alpha  occ. eigenvalues --  -19.19081 -14.48835 -14.47075 -14.46689 -14.46682
 Alpha  occ. eigenvalues --  -14.45142 -14.44718 -14.42710 -14.40388 -14.35464
 Alpha  occ. eigenvalues --  -10.42519 -10.40496 -10.39189 -10.38917 -10.38745
 Alpha  occ. eigenvalues --  -10.38422 -10.38300 -10.37928 -10.36641 -10.36419
 Alpha  occ. eigenvalues --  -10.34818 -10.34537 -10.33433 -10.32864 -10.32461
 Alpha  occ. eigenvalues --  -10.31997 -10.31199 -10.29023 -10.28859 -10.27913
 Alpha  occ. eigenvalues --  -10.26900 -10.26240 -10.26219 -10.25661 -10.25645
 Alpha  occ. eigenvalues --  -10.25359 -10.24188 -10.23038  -1.22145  -1.17784
 Alpha  occ. eigenvalues --   -1.17175  -1.15181  -1.13915  -1.13721  -1.13532
 Alpha  occ. eigenvalues --   -1.12852  -1.12203  -1.10541  -1.08760  -1.05415
 Alpha  occ. eigenvalues --   -1.03753  -1.03464  -1.02446  -1.01658  -1.01168
 Alpha  occ. eigenvalues --   -0.98455  -0.97027  -0.92270  -0.91525  -0.90309
 Alpha  occ. eigenvalues --   -0.88322  -0.87098  -0.86980  -0.84886  -0.83605
 Alpha  occ. eigenvalues --   -0.82783  -0.82050  -0.80377  -0.80128  -0.76298
 Alpha  occ. eigenvalues --   -0.75415  -0.75072  -0.74694  -0.73409  -0.72558
 Alpha  occ. eigenvalues --   -0.71407  -0.70476  -0.69996  -0.69091  -0.68811
 Alpha  occ. eigenvalues --   -0.68719  -0.68060  -0.67223  -0.66950  -0.66506
 Alpha  occ. eigenvalues --   -0.65541  -0.65305  -0.64302  -0.63627  -0.63119
 Alpha  occ. eigenvalues --   -0.62681  -0.62411  -0.61361  -0.61202  -0.59973
 Alpha  occ. eigenvalues --   -0.59703  -0.59533  -0.58529  -0.58021  -0.57751
 Alpha  occ. eigenvalues --   -0.56825  -0.56489  -0.56324  -0.56059  -0.55549
 Alpha  occ. eigenvalues --   -0.55167  -0.54897  -0.54454  -0.54159  -0.54051
 Alpha  occ. eigenvalues --   -0.53542  -0.53379  -0.53048  -0.52778  -0.52458
 Alpha  occ. eigenvalues --   -0.52097  -0.52000  -0.51594  -0.51494  -0.51439
 Alpha  occ. eigenvalues --   -0.51161  -0.50709  -0.50467  -0.50253  -0.49995
 Alpha  occ. eigenvalues --   -0.49684  -0.49438  -0.49212  -0.48781  -0.48546
 Alpha  occ. eigenvalues --   -0.48418  -0.48251  -0.47716  -0.47684  -0.47164
 Alpha  occ. eigenvalues --   -0.46888  -0.46855  -0.46313  -0.45997  -0.45841
 Alpha  occ. eigenvalues --   -0.45769  -0.45678  -0.45462  -0.45139  -0.44946
 Alpha  occ. eigenvalues --   -0.44322  -0.44195  -0.44053  -0.42505  -0.42303
 Alpha  occ. eigenvalues --   -0.41686  -0.41372  -0.41221  -0.40635  -0.39697
 Alpha  occ. eigenvalues --   -0.39342  -0.38941  -0.38825  -0.38552  -0.38384
 Alpha  occ. eigenvalues --   -0.38124  -0.38086  -0.36592  -0.36365  -0.36322
 Alpha  occ. eigenvalues --   -0.35467  -0.34927  -0.34811  -0.34516  -0.34425
 Alpha  occ. eigenvalues --   -0.34333  -0.33283  -0.32504  -0.32466  -0.27700
 Alpha virt. eigenvalues --   -0.11764  -0.10634  -0.08607  -0.07750  -0.07220
 Alpha virt. eigenvalues --   -0.06217  -0.05751  -0.05729  -0.03947  -0.02818
 Alpha virt. eigenvalues --   -0.02265  -0.01771  -0.01396  -0.00495   0.00075

 Mulliken charges:
               1
     1  N   -0.728611
     2  H    0.333914
     3  H    0.323667
     4  C   -0.092801
     5  H    0.161882
     6  C    0.630339
     7  C   -0.339372
     8  H    0.160549
     9  H    0.184680
    10  O   -0.545412
    11  C    0.580087
    12  N   -0.724565
    13  H    0.342918
    14  H    0.363931
    15  O   -0.532232
    16  N   -0.606818
    17  H    0.347092
    18  C   -0.074819
    19  H    0.197103
    20  C    0.659892
    21  C   -0.089499
    22  H    0.149781
    23  O   -0.625367
    24  C   -0.269007
    25  H    0.131719
    26  H    0.154248
    27  C   -0.474431
    28  H    0.171919
    29  H    0.167064
    30  H    0.134028
    31  C   -0.463522
    32  H    0.162171
    33  H    0.146951
    34  H    0.160629
    35  N   -0.595213
    36  H    0.397187
    37  C   -0.040232
    38  H    0.200976
    39  C    0.627882
    40  C   -0.489063
    41  H    0.172134
    42  H    0.182656
    43  H    0.185956
    44  O   -0.506992
    45  N   -0.607684
    46  H    0.348048
    47  C   -0.085621
    48  H    0.206792
    49  C    0.682243
    50  C    0.057730
    51  H    0.236077
    52  O   -0.595753
    53  C   -0.473637
    54  H    0.199275
    55  H    0.186143
    56  H    0.191335
    57  O   -0.671247
    58  H    0.509771
    59  N   -0.575540
    60  H    0.374853
    61  C   -0.105413
    62  H    0.213490
    63  C    0.658844
    64  C   -0.058871
    65  H    0.164590
    66  H    0.163963
    67  O   -0.539337
    68  O   -0.623651
    69  H    0.422447
    70  N   -0.626139
    71  H    0.365819
    72  C   -0.196710
    73  H    0.199532
    74  H    0.194509
    75  C    0.608989
    76  O   -0.523318
    77  N   -0.602656
    78  H    0.349145
    79  C   -0.068647
    80  H    0.215824
    81  C    0.592724
    82  C   -0.268573
    83  H    0.142516
    84  H    0.177170
    85  O   -0.442441
    86  C   -0.262264
    87  H    0.147249
    88  H    0.132376
    89  C   -0.251716
    90  H    0.133363
    91  H    0.150835
    92  C   -0.132452
    93  H    0.114366
    94  H    0.133083
    95  N   -0.715296
    96  H    0.299599
    97  H    0.296556
    98  O   -0.583124
    99  H    0.423697
   100  H    0.483735
 Sum of Mulliken charges =   1.00000

 Dipole moment (field-independent basis, Debye):
    X=             -3.2032    Y=             -1.7789    Z=             -0.3721  Tot=              3.6828
 Quadrupole moment (field-independent basis, Debye-Ang):
   XX=           -174.4228   YY=           -275.6770   ZZ=           -154.3534
   XY=            -33.9484   XZ=            -72.3352   YZ=              0.6691

 Normal termination of Gaussian 16 at Fri May 27 02:49:55 2022.
