 Gaussian 16, Revision C.01,
 Gaussian 16:  ES64L-G16RevC.01  3-Jul-2019

 -------------------------------------------------------------------
 # B3LYP/6-31G* guess=read geom=check nosymm integral(ultrafinegrid)
 -------------------------------------------------------------------

 ------------------------------------------------------
 Candidate Structure: Conf:684 Charge calc in gas phase
 ------------------------------------------------------
 Structure from the checkpoint file:  "conf-684.chk"
 Charge =  1 Multiplicity = 1

                          Input orientation:
 ---------------------------------------------------------------------
 Center     Atomic      Atomic             Coordinates (Angstroms)
 Number     Number       Type             X           Y           Z
 ---------------------------------------------------------------------
      1          7           0       -7.855736    1.781375    3.848031
      2          1           0       -7.366326    2.674947    3.915101
      3          1           0       -7.727693    1.320559    4.747944
      4          6           0       -7.231637    0.995455    2.782274
      5          1           0       -7.566846   -0.043667    2.887687
      6          6           0       -5.697505    1.053084    2.851062
      7          6           0       -7.665273    1.522762    1.392938
      8          1           0       -7.470377    2.603673    1.359043
      9          1           0       -7.067004    1.059082    0.603629
     10          8           0       -5.118567    2.085133    3.218641
     11          6           0       -9.131463    1.268483    0.999918
     12          7           0      -10.038111    1.473130    1.987943
     13          1           0      -11.017241    1.338219    1.777469
     14          1           0       -9.726646    1.743869    2.917289
     15          8           0       -9.415277    0.930233   -0.140502
     16          7           0       -5.022421   -0.051588    2.444885
     17          1           0       -5.544172   -0.853472    2.116598
     18          6           0       -3.559830   -0.166026    2.507314
     19          1           0       -3.261606    0.405013    3.393428
     20          6           0       -2.922966    0.555640    1.299317
     21          6           0       -3.119405   -1.636549    2.701013
     22          1           0       -3.607001   -1.943565    3.638474
     23          8           0       -2.351525   -0.013942    0.364889
     24          6           0       -1.594488   -1.768040    2.916581
     25          1           0       -1.070824   -1.511987    1.988580
     26          1           0       -1.390848   -2.830664    3.097665
     27          6           0       -3.590960   -2.589950    1.587986
     28          1           0       -3.137530   -2.334224    0.628084
     29          1           0       -3.306454   -3.616219    1.842474
     30          1           0       -4.681254   -2.597458    1.459451
     31          6           0       -1.024826   -0.955904    4.086803
     32          1           0        0.027780   -1.210063    4.251096
     33          1           0       -1.070257    0.126471    3.911195
     34          1           0       -1.561314   -1.162152    5.021026
     35          7           0       -3.022031    1.915828    1.347673
     36          1           0       -3.618948    2.313960    2.081693
     37          6           0       -2.740352    2.715992    0.155522
     38          1           0       -3.012454    2.117502   -0.722915
     39          6           0       -1.229204    2.952135    0.054637
     40          6           0       -3.536064    4.019911    0.174804
     41          1           0       -3.338771    4.611189   -0.722825
     42          1           0       -4.602641    3.781706    0.203002
     43          1           0       -3.287480    4.629488    1.047703
     44          8           0       -0.805838    4.165705    0.225837
     45          7           0       -0.440913    1.936148   -0.207178
     46          1           0       -0.894489    1.000640   -0.195302
     47          6           0        1.000407    1.959694   -0.530396
     48          1           0        1.166104    2.696881   -1.325649
     49          6           0        1.321349    0.527942   -1.024073
     50          6           0        1.884404    2.359488    0.674184
     51          1           0        1.505231    1.840535    1.563260
     52          8           0        0.784755   -0.429998   -0.477789
     53          6           0        3.371684    2.084238    0.492665
     54          1           0        3.572448    1.009798    0.467430
     55          1           0        3.925997    2.500632    1.340990
     56          1           0        3.759345    2.541895   -0.422734
     57          8           0        1.665394    3.787944    0.812126
     58          1           0        0.194106    4.196009    0.397061
     59          7           0        2.195756    0.458531   -2.042431
     60          1           0        2.659783    1.279164   -2.430974
     61          6           0        2.756063   -0.785645   -2.547637
     62          1           0        2.860713   -1.502853   -1.726696
     63          6           0        4.119365   -0.401683   -3.156695
     64          6           0        1.830447   -1.401414   -3.620652
     65          1           0        1.751141   -0.702818   -4.464500
     66          1           0        0.835836   -1.534337   -3.175441
     67          8           0        4.343130    0.772525   -3.452110
     68          8           0        2.376540   -2.649737   -4.026804
     69          1           0        2.066483   -2.835534   -4.932534
     70          7           0        4.983028   -1.422230   -3.358534
     71          1           0        4.666726   -2.353867   -3.118842
     72          6           0        6.164774   -1.289292   -4.200950
     73          1           0        6.420326   -0.229971   -4.256671
     74          1           0        7.008747   -1.814742   -3.744428
     75          6           0        6.019719   -1.816858   -5.641401
     76          8           0        6.956481   -1.707772   -6.416896
     77          7           0        4.823738   -2.399838   -5.947900
     78          1           0        4.108648   -2.475325   -5.233846
     79          6           0        4.587629   -3.022051   -7.241657
     80          1           0        5.364824   -2.650621   -7.912837
     81          6           0        3.254080   -2.602817   -7.840396
     82          6           0        4.648187   -4.572086   -7.199848
     83          1           0        3.829878   -4.947392   -6.568561
     84          1           0        4.453292   -4.936721   -8.217028
     85          8           0        3.033280   -2.420556   -9.009080
     86          6           0        5.989362   -5.109848   -6.689164
     87          1           0        6.806695   -4.675571   -7.279929
     88          1           0        6.151151   -4.792509   -5.653899
     89          6           0        6.073482   -6.640235   -6.743211
     90          1           0        6.061182   -6.982802   -7.786810
     91          1           0        5.183366   -7.079874   -6.266560
     92          6           0        7.326889   -7.192765   -6.053073
     93          1           0        7.426662   -8.265094   -6.294099
     94          1           0        8.214016   -6.695424   -6.464942
     95          7           0        7.293189   -6.916080   -4.608182
     96          1           0        8.196308   -7.143683   -4.195438
     97          1           0        6.620772   -7.540845   -4.163244
     98          8           0        2.237905   -2.522992   -6.906875
     99          1           0        1.435329   -2.314657   -7.423513
    100          1           0        2.074488    4.115056    1.630543
 ---------------------------------------------------------------------

 SCF Done:  E(RB3LYP) =  -2418.42716393     A.U. after    1 cycles

 Alpha  occ. eigenvalues --  -19.34760 -19.32149 -19.28715 -19.25034 -19.24437
 Alpha  occ. eigenvalues --  -19.24212 -19.22909 -19.22111 -19.21987 -19.17633
 Alpha  occ. eigenvalues --  -19.16375 -14.53275 -14.48178 -14.47817 -14.47459
 Alpha  occ. eigenvalues --  -14.46087 -14.42843 -14.41534 -14.40305 -14.36200
 Alpha  occ. eigenvalues --  -10.47320 -10.41898 -10.40829 -10.40034 -10.39640
 Alpha  occ. eigenvalues --  -10.39310 -10.39047 -10.38853 -10.37651 -10.35593
 Alpha  occ. eigenvalues --  -10.34553 -10.34304 -10.34157 -10.33974 -10.32504
 Alpha  occ. eigenvalues --  -10.30717 -10.30709 -10.30584 -10.30116 -10.29094
 Alpha  occ. eigenvalues --  -10.27512 -10.26615 -10.26178 -10.26035 -10.25458
 Alpha  occ. eigenvalues --  -10.25445 -10.23123 -10.23079  -1.25499  -1.18707
 Alpha  occ. eigenvalues --   -1.18571  -1.16597  -1.16158  -1.14401  -1.13988
 Alpha  occ. eigenvalues --   -1.12190  -1.10132  -1.09879  -1.09769  -1.08266
 Alpha  occ. eigenvalues --   -1.04751  -1.04683  -1.03422  -1.02387  -0.99284
 Alpha  occ. eigenvalues --   -0.98823  -0.95165  -0.94000  -0.92741  -0.91092
 Alpha  occ. eigenvalues --   -0.89935  -0.87779  -0.86240  -0.85442  -0.84838
 Alpha  occ. eigenvalues --   -0.82486  -0.82169  -0.80661  -0.80139  -0.79612
 Alpha  occ. eigenvalues --   -0.77108  -0.76075  -0.75295  -0.74901  -0.74357
 Alpha  occ. eigenvalues --   -0.72504  -0.71963  -0.70703  -0.70433  -0.69373
 Alpha  occ. eigenvalues --   -0.68914  -0.68518  -0.67513  -0.67273  -0.66770
 Alpha  occ. eigenvalues --   -0.66280  -0.65835  -0.64480  -0.63757  -0.63369
 Alpha  occ. eigenvalues --   -0.63271  -0.63130  -0.62410  -0.61518  -0.60951
 Alpha  occ. eigenvalues --   -0.60338  -0.59770  -0.59257  -0.58865  -0.58656
 Alpha  occ. eigenvalues --   -0.57824  -0.57380  -0.57192  -0.56463  -0.56358
 Alpha  occ. eigenvalues --   -0.55968  -0.55315  -0.54955  -0.54406  -0.54310
 Alpha  occ. eigenvalues --   -0.53796  -0.53738  -0.53334  -0.53081  -0.53022
 Alpha  occ. eigenvalues --   -0.52766  -0.52653  -0.52398  -0.52084  -0.51868
 Alpha  occ. eigenvalues --   -0.51302  -0.51180  -0.51133  -0.51055  -0.50933
 Alpha  occ. eigenvalues --   -0.50459  -0.50345  -0.49921  -0.49674  -0.49369
 Alpha  occ. eigenvalues --   -0.49232  -0.48966  -0.48828  -0.48489  -0.48452
 Alpha  occ. eigenvalues --   -0.47644  -0.47540  -0.47290  -0.47080  -0.46088
 Alpha  occ. eigenvalues --   -0.45642  -0.45441  -0.45118  -0.44839  -0.44585
 Alpha  occ. eigenvalues --   -0.44222  -0.44190  -0.43430  -0.42879  -0.42648
 Alpha  occ. eigenvalues --   -0.42495  -0.42419  -0.41875  -0.41524  -0.41284
 Alpha  occ. eigenvalues --   -0.40264  -0.39217  -0.38939  -0.38876  -0.38654
 Alpha  occ. eigenvalues --   -0.38315  -0.38215  -0.38064  -0.37339  -0.37253
 Alpha  occ. eigenvalues --   -0.36554  -0.36066  -0.35707  -0.35445  -0.34093
 Alpha  occ. eigenvalues --   -0.31767  -0.31754  -0.30980  -0.30256  -0.28415
 Alpha virt. eigenvalues --   -0.16805  -0.11067  -0.10367  -0.08670  -0.07880
 Alpha virt. eigenvalues --   -0.07367  -0.07225  -0.03724  -0.03512  -0.03111
 Alpha virt. eigenvalues --   -0.02728  -0.02329  -0.01885  -0.01571  -0.00849

 Mulliken charges:
               1
     1  N   -0.717330
     2  H    0.329629
     3  H    0.322388
     4  C   -0.087481
     5  H    0.161019
     6  C    0.613660
     7  C   -0.356312
     8  H    0.173735
     9  H    0.165677
    10  O   -0.557348
    11  C    0.578068
    12  N   -0.749050
    13  H    0.343957
    14  H    0.376325
    15  O   -0.502407
    16  N   -0.612256
    17  H    0.353214
    18  C   -0.062165
    19  H    0.192485
    20  C    0.634488
    21  C   -0.096692
    22  H    0.143609
    23  O   -0.534346
    24  C   -0.275599
    25  H    0.171867
    26  H    0.152112
    27  C   -0.478588
    28  H    0.192916
    29  H    0.167144
    30  H    0.132445
    31  C   -0.459415
    32  H    0.159036
    33  H    0.126891
    34  H    0.158132
    35  N   -0.626084
    36  H    0.400042
    37  C   -0.054594
    38  H    0.210401
    39  C    0.631515
    40  C   -0.474088
    41  H    0.188248
    42  H    0.190807
    43  H    0.187864
    44  O   -0.559666
    45  N   -0.608004
    46  H    0.450760
    47  C   -0.077431
    48  H    0.201584
    49  C    0.601052
    50  C    0.136570
    51  H    0.179185
    52  O   -0.509577
    53  C   -0.478985
    54  H    0.190285
    55  H    0.175849
    56  H    0.189669
    57  O   -0.666031
    58  H    0.482759
    59  N   -0.616075
    60  H    0.368032
    61  C   -0.073548
    62  H    0.194938
    63  C    0.611891
    64  C   -0.032334
    65  H    0.152493
    66  H    0.170226
    67  O   -0.527165
    68  O   -0.646360
    69  H    0.439566
    70  N   -0.602471
    71  H    0.356551
    72  C   -0.245886
    73  H    0.228554
    74  H    0.204652
    75  C    0.611987
    76  O   -0.499318
    77  N   -0.643578
    78  H    0.354791
    79  C   -0.051306
    80  H    0.219414
    81  C    0.597701
    82  C   -0.275912
    83  H    0.132896
    84  H    0.164904
    85  O   -0.429734
    86  C   -0.253245
    87  H    0.155161
    88  H    0.156524
    89  C   -0.253823
    90  H    0.139039
    91  H    0.122581
    92  C   -0.146156
    93  H    0.125577
    94  H    0.147430
    95  N   -0.720249
    96  H    0.303104
    97  H    0.292683
    98  O   -0.616977
    99  H    0.422112
   100  H    0.439388
 Sum of Mulliken charges =   1.00000

 Dipole moment (field-independent basis, Debye):
    X=             -1.8119    Y=              2.9145    Z=              5.7971  Tot=              6.7367
 Quadrupole moment (field-independent basis, Debye-Ang):
   XX=           -235.4747   YY=           -209.9315   ZZ=           -261.4167
   XY=            -30.4033   XZ=            -32.2379   YZ=             34.7166

 Normal termination of Gaussian 16 at Fri May 27 02:51:08 2022.
