 Gaussian 16, Revision C.01,
 Gaussian 16:  ES64L-G16RevC.01  3-Jul-2019

 -------------------------------------------------------------------
 # B3LYP/6-31G* guess=read geom=check nosymm integral(ultrafinegrid)
 -------------------------------------------------------------------

 ------------------------------------------------------
 Candidate Structure: Conf:231 Charge calc in gas phase
 ------------------------------------------------------
 Structure from the checkpoint file:  "conf-231.chk"
 Charge =  1 Multiplicity = 1

                          Input orientation:
 ---------------------------------------------------------------------
 Center     Atomic      Atomic             Coordinates (Angstroms)
 Number     Number       Type             X           Y           Z
 ---------------------------------------------------------------------
      1          7           0       -4.804505   -1.863544   -0.872578
      2          1           0       -5.453464   -1.191920   -0.455547
      3          1           0       -4.959552   -2.739978   -0.375727
      4          6           0       -3.447444   -1.373562   -0.600636
      5          1           0       -2.746072   -2.213556   -0.666995
      6          6           0       -3.355440   -0.719275    0.789446
      7          6           0       -3.041870   -0.292639   -1.638030
      8          1           0       -3.802748    0.498940   -1.616631
      9          1           0       -2.096721    0.172594   -1.352233
     10          8           0       -4.329603   -0.154819    1.276600
     11          6           0       -2.898498   -0.788727   -3.074894
     12          7           0       -3.919805   -1.532082   -3.539436
     13          1           0       -3.862814   -1.903667   -4.478179
     14          1           0       -4.632249   -1.845916   -2.876142
     15          8           0       -1.915896   -0.492567   -3.770949
     16          7           0       -2.135418   -0.779583    1.407675
     17          1           0       -1.351664   -1.127015    0.859112
     18          6           0       -1.844748    0.148669    2.488025
     19          1           0       -2.822300    0.396543    2.916067
     20          6           0       -1.311961    1.456022    1.856996
     21          6           0       -0.970921   -0.525544    3.586239
     22          1           0       -1.449744   -1.504953    3.713396
     23          8           0       -1.303966    1.621841    0.638866
     24          6           0       -1.000048    0.148013    4.978071
     25          1           0       -0.376318    1.056199    4.986675
     26          1           0       -0.483507   -0.535707    5.663817
     27          6           0        0.473967   -0.769161    3.126681
     28          1           0        1.015945    0.176860    2.993592
     29          1           0        1.014326   -1.358521    3.875910
     30          1           0        0.515682   -1.319018    2.181089
     31          6           0       -2.391652    0.452793    5.546058
     32          1           0       -2.317871    0.788883    6.585414
     33          1           0       -2.917187    1.237105    4.988043
     34          1           0       -3.027260   -0.439737    5.531078
     35          7           0       -0.878186    2.460927    2.681224
     36          1           0       -0.912056    2.358214    3.686217
     37          6           0       -0.543534    3.773108    2.124978
     38          1           0       -1.270909    3.996388    1.338466
     39          6           0        0.833998    3.670458    1.458852
     40          6           0       -0.580838    4.854597    3.203246
     41          1           0       -0.343600    5.833083    2.776640
     42          1           0       -1.587900    4.903870    3.626955
     43          1           0        0.137566    4.651088    4.002248
     44          8           0        1.865466    3.981650    2.180376
     45          7           0        0.900375    3.249083    0.221645
     46          1           0        0.021636    2.874105   -0.184094
     47          6           0        2.031968    3.131650   -0.718156
     48          1           0        2.506314    4.114720   -0.834251
     49          6           0        1.327349    2.667170   -2.036634
     50          6           0        3.088532    2.082781   -0.276892
     51          1           0        2.602800    1.104990   -0.243201
     52          8           0        0.138121    2.374769   -2.003521
     53          6           0        4.352110    2.000746   -1.137319
     54          1           0        4.203316    1.398898   -2.036682
     55          1           0        5.119715    1.494378   -0.546038
     56          1           0        4.741281    2.994088   -1.393014
     57          8           0        3.495295    2.423818    1.069008
     58          1           0        2.686989    3.505929    1.797989
     59          7           0        2.094557    2.521498   -3.141081
     60          1           0        3.081910    2.727128   -3.068699
     61          6           0        1.723181    1.528528   -4.167695
     62          1           0        0.685407    1.701101   -4.457556
     63          6           0        1.888350    0.127465   -3.538184
     64          6           0        2.654495    1.674735   -5.384876
     65          1           0        3.693017    1.790973   -5.037418
     66          1           0        2.381306    2.574069   -5.943823
     67          8           0        3.024277   -0.362996   -3.396190
     68          8           0        2.521465    0.579109   -6.260423
     69          1           0        2.997852   -0.164986   -5.856620
     70          7           0        0.768642   -0.469786   -3.107201
     71          1           0       -0.168043   -0.100789   -3.316364
     72          6           0        0.786070   -1.819505   -2.563581
     73          1           0       -0.228152   -2.208628   -2.643432
     74          1           0        1.457516   -2.443401   -3.163713
     75          6           0        1.193344   -1.926925   -1.080495
     76          8           0        0.361866   -2.081575   -0.184355
     77          7           0        2.539048   -1.921530   -0.853085
     78          1           0        3.130343   -1.713369   -1.654822
     79          6           0        3.130203   -2.519419    0.331514
     80          1           0        2.388027   -3.199821    0.762094
     81          6           0        3.473429   -1.515812    1.430106
     82          6           0        4.402424   -3.327933   -0.033428
     83          1           0        5.133701   -2.647247   -0.493464
     84          1           0        4.851382   -3.685211    0.899924
     85          8           0        3.621111   -0.313000    1.299759
     86          6           0        4.119311   -4.519944   -0.955816
     87          1           0        3.367163   -5.174848   -0.501327
     88          1           0        3.693405   -4.168573   -1.905500
     89          6           0        5.376747   -5.348073   -1.249581
     90          1           0        5.839989   -5.660830   -0.301525
     91          1           0        6.124868   -4.732132   -1.767576
     92          6           0        5.088776   -6.593221   -2.098369
     93          1           0        4.614811   -6.285710   -3.039534
     94          1           0        6.048445   -7.065601   -2.370587
     95          7           0        4.156882   -7.492436   -1.406391
     96          1           0        4.637718   -7.956436   -0.636110
     97          1           0        3.859064   -8.235065   -2.036315
     98          8           0        3.648319   -2.139655    2.604896
     99          1           0        3.920505   -1.473459    3.264110
    100          1           0        3.687667    1.572504    1.513848
 ---------------------------------------------------------------------

 SCF Done:  E(RB3LYP) =  -2418.44376097     A.U. after    2 cycles

 Alpha  occ. eigenvalues --  -19.33009 -19.31239 -19.29345 -19.26511 -19.24532
 Alpha  occ. eigenvalues --  -19.23239 -19.22552 -19.22277 -19.21753 -19.19470
 Alpha  occ. eigenvalues --  -19.18741 -14.52025 -14.48319 -14.48115 -14.45846
 Alpha  occ. eigenvalues --  -14.45163 -14.43522 -14.41444 -14.40135 -14.37457
 Alpha  occ. eigenvalues --  -10.46092 -10.43991 -10.41761 -10.39996 -10.39025
 Alpha  occ. eigenvalues --  -10.38370 -10.38089 -10.37454 -10.37176 -10.36106
 Alpha  occ. eigenvalues --  -10.36067 -10.34178 -10.33102 -10.32454 -10.32433
 Alpha  occ. eigenvalues --  -10.31797 -10.30719 -10.30111 -10.29011 -10.28999
 Alpha  occ. eigenvalues --  -10.28579 -10.28019 -10.27179 -10.26730 -10.26509
 Alpha  occ. eigenvalues --  -10.26226 -10.25895 -10.25264  -1.24000  -1.22509
 Alpha  occ. eigenvalues --   -1.17009  -1.16107  -1.15445  -1.13760  -1.13358
 Alpha  occ. eigenvalues --   -1.13001  -1.11305  -1.10110  -1.09937  -1.08925
 Alpha  occ. eigenvalues --   -1.04496  -1.04377  -1.02595  -1.01364  -1.00454
 Alpha  occ. eigenvalues --   -0.97829  -0.95920  -0.94222  -0.92686  -0.90598
 Alpha  occ. eigenvalues --   -0.89463  -0.89073  -0.86077  -0.84711  -0.84258
 Alpha  occ. eigenvalues --   -0.83964  -0.82350  -0.81441  -0.80110  -0.78456
 Alpha  occ. eigenvalues --   -0.77848  -0.75487  -0.74533  -0.73702  -0.73110
 Alpha  occ. eigenvalues --   -0.72638  -0.72361  -0.71643  -0.70690  -0.70163
 Alpha  occ. eigenvalues --   -0.69623  -0.68492  -0.67202  -0.67073  -0.66384
 Alpha  occ. eigenvalues --   -0.66007  -0.65716  -0.65225  -0.64618  -0.63451
 Alpha  occ. eigenvalues --   -0.62505  -0.62133  -0.61603  -0.61117  -0.60711
 Alpha  occ. eigenvalues --   -0.60029  -0.59716  -0.59498  -0.58933  -0.58592
 Alpha  occ. eigenvalues --   -0.58214  -0.57682  -0.57395  -0.57078  -0.56550
 Alpha  occ. eigenvalues --   -0.56383  -0.55596  -0.55427  -0.55242  -0.54779
 Alpha  occ. eigenvalues --   -0.54390  -0.53698  -0.53320  -0.53211  -0.53112
 Alpha  occ. eigenvalues --   -0.52709  -0.52574  -0.52420  -0.52188  -0.51817
 Alpha  occ. eigenvalues --   -0.51570  -0.51440  -0.51304  -0.50916  -0.50554
 Alpha  occ. eigenvalues --   -0.50348  -0.50124  -0.49882  -0.49771  -0.49390
 Alpha  occ. eigenvalues --   -0.49197  -0.48648  -0.48604  -0.48490  -0.48243
 Alpha  occ. eigenvalues --   -0.47892  -0.47834  -0.47611  -0.47150  -0.46628
 Alpha  occ. eigenvalues --   -0.46530  -0.46071  -0.45776  -0.45675  -0.44939
 Alpha  occ. eigenvalues --   -0.44823  -0.44350  -0.44079  -0.43405  -0.43096
 Alpha  occ. eigenvalues --   -0.42474  -0.42205  -0.41840  -0.41710  -0.41648
 Alpha  occ. eigenvalues --   -0.41484  -0.41371  -0.40721  -0.40258  -0.39391
 Alpha  occ. eigenvalues --   -0.39141  -0.38622  -0.37977  -0.37431  -0.36721
 Alpha  occ. eigenvalues --   -0.35786  -0.35617  -0.34916  -0.34689  -0.33938
 Alpha  occ. eigenvalues --   -0.33754  -0.33304  -0.33027  -0.31837  -0.29709
 Alpha virt. eigenvalues --   -0.15659  -0.11049  -0.10943  -0.09044  -0.08870
 Alpha virt. eigenvalues --   -0.07930  -0.06033  -0.04423  -0.04077  -0.03292
 Alpha virt. eigenvalues --   -0.02813  -0.02774  -0.01020  -0.00561   0.00174

 Mulliken charges:
               1
     1  N   -0.734246
     2  H    0.335211
     3  H    0.321751
     4  C   -0.100963
     5  H    0.161723
     6  C    0.608357
     7  C   -0.365651
     8  H    0.186693
     9  H    0.197903
    10  O   -0.521491
    11  C    0.587939
    12  N   -0.728870
    13  H    0.342617
    14  H    0.388002
    15  O   -0.559727
    16  N   -0.617479
    17  H    0.379808
    18  C   -0.101365
    19  H    0.217586
    20  C    0.628828
    21  C   -0.083132
    22  H    0.168173
    23  O   -0.517870
    24  C   -0.282016
    25  H    0.114214
    26  H    0.160286
    27  C   -0.498128
    28  H    0.121961
    29  H    0.153508
    30  H    0.183856
    31  C   -0.462454
    32  H    0.166422
    33  H    0.145663
    34  H    0.171659
    35  N   -0.621601
    36  H    0.361639
    37  C   -0.037627
    38  H    0.210482
    39  C    0.630483
    40  C   -0.485408
    41  H    0.190377
    42  H    0.191258
    43  H    0.186295
    44  O   -0.567708
    45  N   -0.596417
    46  H    0.456483
    47  C   -0.112806
    48  H    0.204102
    49  C    0.626732
    50  C    0.151689
    51  H    0.195193
    52  O   -0.493774
    53  C   -0.512310
    54  H    0.193731
    55  H    0.187212
    56  H    0.161571
    57  O   -0.702990
    58  H    0.482924
    59  N   -0.605156
    60  H    0.348308
    61  C   -0.069309
    62  H    0.209192
    63  C    0.605365
    64  C   -0.043303
    65  H    0.133713
    66  H    0.179180
    67  O   -0.578176
    68  O   -0.603193
    69  H    0.411770
    70  N   -0.591791
    71  H    0.417324
    72  C   -0.236431
    73  H    0.199283
    74  H    0.187106
    75  C    0.588608
    76  O   -0.515127
    77  N   -0.590208
    78  H    0.371201
    79  C   -0.042271
    80  H    0.206457
    81  C    0.618055
    82  C   -0.304474
    83  H    0.149845
    84  H    0.174506
    85  O   -0.509649
    86  C   -0.252905
    87  H    0.176158
    88  H    0.129921
    89  C   -0.258087
    90  H    0.133742
    91  H    0.136228
    92  C   -0.142632
    93  H    0.141115
    94  H    0.130715
    95  N   -0.718738
    96  H    0.298900
    97  H    0.307778
    98  O   -0.539843
    99  H    0.422313
   100  H    0.456207
 Sum of Mulliken charges =   1.00000

 Dipole moment (field-independent basis, Debye):
    X=              9.2136    Y=              2.3012    Z=              4.8810  Tot=             10.6775
 Quadrupole moment (field-independent basis, Debye-Ang):
   XX=           -224.1013   YY=           -199.4282   ZZ=           -244.7634
   XY=             -4.8056   XZ=             -1.6294   YZ=             20.2728

 Normal termination of Gaussian 16 at Fri May 27 02:50:31 2022.
