 Gaussian 16, Revision C.01,
 Gaussian 16:  ES64L-G16RevC.01  3-Jul-2019

 -------------------------------------------------------------------
 # B3LYP/6-31G* guess=read geom=check nosymm integral(ultrafinegrid)
 -------------------------------------------------------------------

 ------------------------------------------------------
 Candidate Structure: Conf:446 Charge calc in gas phase
 ------------------------------------------------------
 Structure from the checkpoint file:  "conf-446.chk"
 Charge =  1 Multiplicity = 1

                          Input orientation:
 ---------------------------------------------------------------------
 Center     Atomic      Atomic             Coordinates (Angstroms)
 Number     Number       Type             X           Y           Z
 ---------------------------------------------------------------------
      1          7           0       -4.626233    5.355001    3.446716
      2          1           0       -3.720991    5.236218    3.901460
      3          1           0       -5.095489    6.118620    3.931253
      4          6           0       -5.395405    4.116795    3.633458
      5          1           0       -5.824510    4.041639    4.648360
      6          6           0       -4.419535    2.928042    3.576807
      7          6           0       -6.579801    4.070925    2.643994
      8          1           0       -7.261836    3.255534    2.898795
      9          1           0       -7.138144    5.007473    2.751585
     10          8           0       -3.331464    3.016250    4.165078
     11          6           0       -6.149519    3.873692    1.192841
     12          7           0       -5.614260    4.964511    0.591273
     13          1           0       -5.208303    4.833410   -0.326723
     14          1           0       -5.226093    5.688092    1.189007
     15          8           0       -6.272751    2.778795    0.637274
     16          7           0       -4.821831    1.791059    2.955694
     17          1           0       -5.555353    1.838725    2.244410
     18          6           0       -4.045827    0.549336    3.049882
     19          1           0       -3.571533    0.560223    4.036540
     20          6           0       -2.917198    0.613301    1.991367
     21          6           0       -4.946915   -0.697292    2.918087
     22          1           0       -5.279498   -0.749074    1.872987
     23          8           0       -2.970228   -0.013672    0.905097
     24          6           0       -6.214701   -0.607380    3.801656
     25          1           0       -6.800797   -1.515621    3.612678
     26          1           0       -6.840041    0.223867    3.456406
     27          6           0       -4.146962   -1.974891    3.224119
     28          1           0       -3.719314   -1.956646    4.232853
     29          1           0       -4.798611   -2.852145    3.156810
     30          1           0       -3.327770   -2.125523    2.515506
     31          6           0       -5.978353   -0.465701    5.310752
     32          1           0       -6.936408   -0.433630    5.839828
     33          1           0       -5.410681   -1.307291    5.721837
     34          1           0       -5.439648    0.456102    5.560185
     35          7           0       -1.916184    1.451303    2.301490
     36          1           0       -2.065474    2.006339    3.152655
     37          6           0       -0.887950    1.946059    1.364236
     38          1           0       -1.399926    2.310612    0.463977
     39          6           0        0.062371    0.792649    0.961577
     40          6           0       -0.109039    3.080470    2.024543
     41          1           0        0.592113    3.520407    1.310267
     42          1           0       -0.792579    3.863398    2.366623
     43          1           0        0.466299    2.701656    2.873195
     44          8           0        1.060858    0.488658    1.588461
     45          7           0       -0.344433    0.134279   -0.179607
     46          1           0       -1.294537    0.336584   -0.471299
     47          6           0        0.161323   -1.186441   -0.520111
     48          1           0        1.226789   -1.216918   -0.277467
     49          6           0       -0.101688   -1.389883   -2.018458
     50          6           0       -0.560369   -2.326248    0.251177
     51          1           0       -0.295103   -3.288130   -0.196489
     52          8           0       -1.282708   -1.687466   -2.367221
     53          6           0       -0.368666   -2.380479    1.751584
     54          1           0        0.693513   -2.520561    1.972043
     55          1           0       -0.924833   -3.227050    2.163813
     56          1           0       -0.687093   -1.462855    2.248853
     57          8           0       -2.022323   -2.207450   -0.065710
     58          1           0       -2.447803   -1.392246    0.401961
     59          7           0        0.897743   -1.229129   -2.863498
     60          1           0        1.823983   -0.929711   -2.539934
     61          6           0        0.856055   -1.355664   -4.324240
     62          1           0        0.599383   -2.388068   -4.592833
     63          6           0        2.311812   -1.056640   -4.761649
     64          6           0       -0.202592   -0.437043   -5.003470
     65          1           0        0.129646   -0.198014   -6.018029
     66          1           0       -0.246785    0.512337   -4.446350
     67          8           0        3.132608   -0.660677   -3.936095
     68          8           0       -1.452376   -1.059407   -5.140166
     69          1           0       -1.767339   -1.284254   -4.246832
     70          7           0        2.590719   -1.278325   -6.066914
     71          1           0        1.843049   -1.572214   -6.683323
     72          6           0        3.881288   -0.953237   -6.671678
     73          1           0        3.764319   -0.167938   -7.424061
     74          1           0        4.519904   -0.562418   -5.875582
     75          6           0        4.606177   -2.121249   -7.358395
     76          8           0        5.474335   -1.885163   -8.184994
     77          7           0        4.226899   -3.371461   -6.980182
     78          1           0        3.573157   -3.490994   -6.219637
     79          6           0        4.892978   -4.562167   -7.501573
     80          1           0        5.218599   -4.330876   -8.518240
     81          6           0        3.911717   -5.720118   -7.592533
     82          6           0        6.133376   -4.950770   -6.655430
     83          1           0        6.754217   -4.048953   -6.595788
     84          1           0        5.805483   -5.184869   -5.633232
     85          8           0        3.958460   -6.611094   -8.404602
     86          6           0        6.958244   -6.111106   -7.226077
     87          1           0        6.335490   -7.010601   -7.291414
     88          1           0        7.263807   -5.865533   -8.253488
     89          6           0        8.199839   -6.412287   -6.375780
     90          1           0        7.888664   -6.671651   -5.355214
     91          1           0        8.824149   -5.510125   -6.307035
     92          6           0        9.054981   -7.560846   -6.923364
     93          1           0        9.451175   -7.276292   -7.915577
     94          1           0        9.923420   -7.689815   -6.266947
     95          7           0        8.309884   -8.827400   -6.924015
     96          1           0        8.954607   -9.602903   -7.065212
     97          1           0        7.671461   -8.855151   -7.717228
     98          8           0        2.979824   -5.685199   -6.595927
     99          1           0        2.435804   -6.487910   -6.710349
    100          1           0       -2.002852   -2.031538   -1.110467
 ---------------------------------------------------------------------

 SCF Done:  E(RB3LYP) =  -2418.41685480     A.U. after    2 cycles

 Alpha  occ. eigenvalues --  -19.37063 -19.29306 -19.27403 -19.26214 -19.24216
 Alpha  occ. eigenvalues --  -19.24145 -19.23691 -19.23004 -19.21200 -19.20386
 Alpha  occ. eigenvalues --  -19.18526 -14.51299 -14.49029 -14.48660 -14.48297
 Alpha  occ. eigenvalues --  -14.46731 -14.43777 -14.43712 -14.41654 -14.34990
 Alpha  occ. eigenvalues --  -10.45120 -10.42327 -10.41340 -10.41179 -10.41011
 Alpha  occ. eigenvalues --  -10.39768 -10.39301 -10.38742 -10.37794 -10.36486
 Alpha  occ. eigenvalues --  -10.36249 -10.35716 -10.34834 -10.34323 -10.33236
 Alpha  occ. eigenvalues --  -10.31924 -10.31248 -10.30745 -10.29168 -10.28762
 Alpha  occ. eigenvalues --  -10.28558 -10.27178 -10.26846 -10.25438 -10.25177
 Alpha  occ. eigenvalues --  -10.24626 -10.23239 -10.22324  -1.24415  -1.19553
 Alpha  occ. eigenvalues --   -1.17927  -1.17090  -1.16191  -1.16059  -1.14569
 Alpha  occ. eigenvalues --   -1.11903  -1.11764  -1.10798  -1.08921  -1.07698
 Alpha  occ. eigenvalues --   -1.05948  -1.05174  -1.04217  -1.03073  -1.00052
 Alpha  occ. eigenvalues --   -0.99509  -0.98152  -0.93750  -0.91714  -0.90946
 Alpha  occ. eigenvalues --   -0.89819  -0.89013  -0.86490  -0.85770  -0.85328
 Alpha  occ. eigenvalues --   -0.82729  -0.82552  -0.80275  -0.80087  -0.78745
 Alpha  occ. eigenvalues --   -0.77949  -0.76151  -0.74950  -0.74816  -0.73815
 Alpha  occ. eigenvalues --   -0.73414  -0.72023  -0.71566  -0.70260  -0.69931
 Alpha  occ. eigenvalues --   -0.69591  -0.68897  -0.68113  -0.67425  -0.66767
 Alpha  occ. eigenvalues --   -0.66308  -0.66247  -0.65138  -0.64410  -0.63901
 Alpha  occ. eigenvalues --   -0.63027  -0.62882  -0.62223  -0.62167  -0.62042
 Alpha  occ. eigenvalues --   -0.61268  -0.60943  -0.60292  -0.59742  -0.59103
 Alpha  occ. eigenvalues --   -0.58539  -0.57826  -0.57663  -0.56927  -0.56125
 Alpha  occ. eigenvalues --   -0.55826  -0.55237  -0.55159  -0.55132  -0.54765
 Alpha  occ. eigenvalues --   -0.54594  -0.54265  -0.53805  -0.53635  -0.53291
 Alpha  occ. eigenvalues --   -0.53099  -0.52781  -0.52419  -0.52352  -0.52240
 Alpha  occ. eigenvalues --   -0.51923  -0.51680  -0.51536  -0.51228  -0.50911
 Alpha  occ. eigenvalues --   -0.50868  -0.50544  -0.50496  -0.49725  -0.49159
 Alpha  occ. eigenvalues --   -0.49067  -0.48788  -0.48609  -0.48513  -0.48429
 Alpha  occ. eigenvalues --   -0.48096  -0.47515  -0.47341  -0.47268  -0.47176
 Alpha  occ. eigenvalues --   -0.46977  -0.46846  -0.46091  -0.45458  -0.45156
 Alpha  occ. eigenvalues --   -0.45022  -0.44599  -0.43830  -0.42927  -0.42576
 Alpha  occ. eigenvalues --   -0.41810  -0.41616  -0.41390  -0.41221  -0.40928
 Alpha  occ. eigenvalues --   -0.40701  -0.40543  -0.39444  -0.38915  -0.38580
 Alpha  occ. eigenvalues --   -0.38571  -0.37992  -0.37726  -0.37471  -0.37354
 Alpha  occ. eigenvalues --   -0.36454  -0.36331  -0.36255  -0.35557  -0.35253
 Alpha  occ. eigenvalues --   -0.34724  -0.33387  -0.32633  -0.31752  -0.27313
 Alpha virt. eigenvalues --   -0.14135  -0.12545  -0.10897  -0.09766  -0.09342
 Alpha virt. eigenvalues --   -0.06628  -0.06596  -0.06184  -0.04849  -0.03345
 Alpha virt. eigenvalues --   -0.02886  -0.02546  -0.01774  -0.01134  -0.00762

 Mulliken charges:
               1
     1  N   -0.747139
     2  H    0.335975
     3  H    0.320551
     4  C   -0.061265
     5  H    0.181936
     6  C    0.618049
     7  C   -0.382838
     8  H    0.183105
     9  H    0.183647
    10  O   -0.556136
    11  C    0.573935
    12  N   -0.716309
    13  H    0.341064
    14  H    0.366746
    15  O   -0.520473
    16  N   -0.632729
    17  H    0.389470
    18  C   -0.057621
    19  H    0.191080
    20  C    0.649198
    21  C   -0.105060
    22  H    0.157708
    23  O   -0.627361
    24  C   -0.261421
    25  H    0.153740
    26  H    0.143230
    27  C   -0.472561
    28  H    0.160660
    29  H    0.171921
    30  H    0.126404
    31  C   -0.462728
    32  H    0.166524
    33  H    0.156839
    34  H    0.147545
    35  N   -0.602362
    36  H    0.405497
    37  C   -0.050509
    38  H    0.175085
    39  C    0.627961
    40  C   -0.485069
    41  H    0.182988
    42  H    0.175708
    43  H    0.200710
    44  O   -0.489891
    45  N   -0.606699
    46  H    0.350419
    47  C   -0.098519
    48  H    0.221194
    49  C    0.687093
    50  C    0.067191
    51  H    0.207124
    52  O   -0.626666
    53  C   -0.477411
    54  H    0.207381
    55  H    0.197958
    56  H    0.188370
    57  O   -0.667039
    58  H    0.509784
    59  N   -0.615775
    60  H    0.391794
    61  C   -0.074380
    62  H    0.205339
    63  C    0.603634
    64  C   -0.032890
    65  H    0.168149
    66  H    0.149409
    67  O   -0.513709
    68  O   -0.615727
    69  H    0.425846
    70  N   -0.620438
    71  H    0.354697
    72  C   -0.236881
    73  H    0.207387
    74  H    0.232992
    75  C    0.603188
    76  O   -0.499099
    77  N   -0.614849
    78  H    0.338585
    79  C   -0.038047
    80  H    0.211017
    81  C    0.589397
    82  C   -0.270167
    83  H    0.170445
    84  H    0.137391
    85  O   -0.442718
    86  C   -0.277826
    87  H    0.159134
    88  H    0.143701
    89  C   -0.237722
    90  H    0.139361
    91  H    0.129229
    92  C   -0.146829
    93  H    0.120038
    94  H    0.143105
    95  N   -0.720804
    96  H    0.302692
    97  H    0.300646
    98  O   -0.594140
    99  H    0.419555
   100  H    0.489286
 Sum of Mulliken charges =   1.00000

 Dipole moment (field-independent basis, Debye):
    X=             -8.1343    Y=             -0.2339    Z=              1.4584  Tot=              8.2673
 Quadrupole moment (field-independent basis, Debye-Ang):
   XX=           -233.8374   YY=           -208.4257   ZZ=           -240.9648
   XY=            -48.4454   XZ=            -54.4500   YZ=             37.0570

 Normal termination of Gaussian 16 at Fri May 27 02:51:32 2022.
