 Gaussian 16, Revision C.01,
 Gaussian 16:  ES64L-G16RevC.01  3-Jul-2019

 -------------------------------------------------------------------
 # B3LYP/6-31G* guess=read geom=check nosymm integral(ultrafinegrid)
 -------------------------------------------------------------------

 ------------------------------------------------------
 Candidate Structure: Conf:472 Charge calc in gas phase
 ------------------------------------------------------
 Structure from the checkpoint file:  "conf-472.chk"
 Charge =  1 Multiplicity = 1

                          Input orientation:
 ---------------------------------------------------------------------
 Center     Atomic      Atomic             Coordinates (Angstroms)
 Number     Number       Type             X           Y           Z
 ---------------------------------------------------------------------
      1          7           0       -6.748006    5.054993    2.023695
      2          1           0       -6.142279    5.550683    1.365979
      3          1           0       -6.522629    5.441389    2.939922
      4          6           0       -6.361587    3.640141    1.981598
      5          1           0       -6.742205    3.153894    2.888559
      6          6           0       -4.830686    3.478959    1.911774
      7          6           0       -6.979465    2.942271    0.745337
      8          1           0       -6.695028    3.513226   -0.149334
      9          1           0       -6.566510    1.936550    0.631646
     10          8           0       -4.122319    4.341103    1.395592
     11          6           0       -8.506036    2.767943    0.760065
     12          7           0       -9.203484    3.857425    1.172007
     13          1           0      -10.210886    3.794466    1.214094
     14          1           0       -8.701250    4.671471    1.522095
     15          8           0       -9.022344    1.720374    0.391136
     16          7           0       -4.330309    2.317831    2.414383
     17          1           0       -4.942466    1.592157    2.769922
     18          6           0       -2.937114    1.937434    2.233312
     19          1           0       -2.601043    2.386902    1.293666
     20          6           0       -2.919775    0.409494    2.122226
     21          6           0       -2.032057    2.487203    3.383359
     22          1           0       -2.271424    3.558406    3.407216
     23          8           0       -3.770873   -0.292260    2.665965
     24          6           0       -0.520645    2.362708    3.100874
     25          1           0       -0.233740    1.302415    3.051308
     26          1           0        0.004268    2.766923    3.976103
     27          6           0       -2.392687    1.880506    4.746005
     28          1           0       -2.141761    0.814176    4.797021
     29          1           0       -1.843888    2.391090    5.544864
     30          1           0       -3.461448    1.980444    4.958932
     31          6           0       -0.019525    3.101633    1.852413
     32          1           0        1.074335    3.076921    1.800698
     33          1           0       -0.393580    2.666522    0.916944
     34          1           0       -0.332420    4.151712    1.863227
     35          7           0       -1.908943   -0.134861    1.387538
     36          1           0       -1.197875    0.438724    0.950866
     37          6           0       -1.782045   -1.572277    1.252519
     38          1           0       -2.014710   -2.025698    2.223823
     39          6           0       -0.335478   -1.878326    0.877297
     40          6           0       -2.758258   -2.149603    0.203004
     41          1           0       -2.689604   -3.241992    0.140294
     42          1           0       -3.775770   -1.890142    0.502575
     43          1           0       -2.559153   -1.725270   -0.786217
     44          8           0        0.442618   -1.029243    0.448591
     45          7           0        0.062905   -3.184467    1.018977
     46          1           0       -0.593500   -3.912460    1.271707
     47          6           0        1.423320   -3.557279    0.674705
     48          1           0        2.076070   -2.726637    0.957033
     49          6           0        1.549249   -3.732606   -0.842215
     50          6           0        1.887677   -4.821281    1.417928
     51          1           0        2.904106   -5.052398    1.070162
     52          8           0        1.366100   -4.897349   -1.400824
     53          6           0        1.876382   -4.680346    2.932884
     54          1           0        2.567744   -3.892031    3.247887
     55          1           0        2.208718   -5.614281    3.399089
     56          1           0        0.878164   -4.440523    3.308309
     57          8           0        0.981378   -5.861941    0.966275
     58          1           0        1.216372   -6.707874    1.383778
     59          7           0        1.790718   -2.703861   -1.599016
     60          1           0        1.937854   -1.795204   -1.150610
     61          6           0        2.147412   -2.765252   -3.014871
     62          1           0        1.472887   -3.451673   -3.537350
     63          6           0        3.613297   -3.288761   -3.080899
     64          6           0        2.020604   -1.318367   -3.554688
     65          1           0        0.973046   -1.007582   -3.483289
     66          1           0        2.298809   -1.285946   -4.616127
     67          8           0        4.206431   -3.640119   -2.073389
     68          8           0        2.782434   -0.444418   -2.764321
     69          1           0        3.714595   -0.494625   -3.071176
     70          7           0        4.158907   -3.307491   -4.331240
     71          1           0        3.627975   -2.871216   -5.074174
     72          6           0        5.599241   -3.228478   -4.472620
     73          1           0        6.049535   -3.827479   -3.676750
     74          1           0        5.900442   -3.655134   -5.434614
     75          6           0        6.073597   -1.762242   -4.345466
     76          8           0        5.315802   -0.874729   -3.945316
     77          7           0        7.358543   -1.548691   -4.691803
     78          1           0        7.891339   -2.309234   -5.095495
     79          6           0        7.985097   -0.226852   -4.699898
     80          1           0        7.191396    0.496459   -4.500581
     81          6           0        8.568507    0.111326   -6.069992
     82          6           0        9.091355   -0.077759   -3.629271
     83          1           0        9.879852   -0.818583   -3.823488
     84          1           0        9.545271    0.909433   -3.773538
     85          8           0        8.841767    1.230633   -6.425183
     86          6           0        8.581778   -0.214835   -2.190076
     87          1           0        7.774410    0.511575   -2.021806
     88          1           0        8.137254   -1.209653   -2.048179
     89          6           0        9.694573    0.005222   -1.157491
     90          1           0       10.129385    1.005339   -1.274617
     91          1           0       10.510431   -0.710511   -1.341145
     92          6           0        9.214861   -0.142943    0.288945
     93          1           0        8.414116    0.584091    0.477685
     94          1           0        8.763569   -1.146219    0.419270
     95          7           0       10.307061    0.151662    1.218888
     96          1           0       11.022140   -0.571973    1.156401
     97          1           0        9.967634    0.133048    2.178688
     98          8           0        8.808415   -0.994118   -6.821022
     99          1           0        9.228762   -0.685277   -7.646828
    100          1           0        1.163945   -5.567908   -0.684750
 ---------------------------------------------------------------------

 SCF Done:  E(RB3LYP) =  -2418.42166462     A.U. after    2 cycles

 Alpha  occ. eigenvalues --  -19.35786 -19.32771 -19.28665 -19.25652 -19.24970
 Alpha  occ. eigenvalues --  -19.24464 -19.23476 -19.22402 -19.19901 -19.17116
 Alpha  occ. eigenvalues --  -19.13357 -14.53952 -14.50715 -14.48509 -14.47190
 Alpha  occ. eigenvalues --  -14.44944 -14.41746 -14.37711 -14.37233 -14.36807
 Alpha  occ. eigenvalues --  -10.48080 -10.42374 -10.41693 -10.40713 -10.40501
 Alpha  occ. eigenvalues --  -10.40483 -10.40058 -10.37444 -10.36972 -10.36033
 Alpha  occ. eigenvalues --  -10.34664 -10.34438 -10.33909 -10.33035 -10.31613
 Alpha  occ. eigenvalues --  -10.31410 -10.29920 -10.28305 -10.28263 -10.27329
 Alpha  occ. eigenvalues --  -10.26831 -10.25850 -10.25726 -10.24813 -10.24471
 Alpha  occ. eigenvalues --  -10.23923 -10.23767 -10.23265  -1.26508  -1.19260
 Alpha  occ. eigenvalues --   -1.19233  -1.17694  -1.16857  -1.14877  -1.13300
 Alpha  occ. eigenvalues --   -1.12046  -1.10854  -1.10295  -1.08937  -1.06987
 Alpha  occ. eigenvalues --   -1.05156  -1.04883  -1.03594  -1.01596  -0.98298
 Alpha  occ. eigenvalues --   -0.94930  -0.94281  -0.93664  -0.92002  -0.91159
 Alpha  occ. eigenvalues --   -0.89047  -0.88313  -0.86870  -0.85525  -0.84650
 Alpha  occ. eigenvalues --   -0.82506  -0.81329  -0.80264  -0.79477  -0.77873
 Alpha  occ. eigenvalues --   -0.77679  -0.76859  -0.76704  -0.75383  -0.73026
 Alpha  occ. eigenvalues --   -0.71973  -0.70712  -0.70314  -0.69901  -0.69848
 Alpha  occ. eigenvalues --   -0.69559  -0.68819  -0.68654  -0.67707  -0.67553
 Alpha  occ. eigenvalues --   -0.65902  -0.65464  -0.65086  -0.64528  -0.63485
 Alpha  occ. eigenvalues --   -0.62516  -0.62213  -0.61145  -0.61008  -0.60778
 Alpha  occ. eigenvalues --   -0.60399  -0.59270  -0.58970  -0.58336  -0.57719
 Alpha  occ. eigenvalues --   -0.57360  -0.57169  -0.56772  -0.56420  -0.55973
 Alpha  occ. eigenvalues --   -0.55781  -0.55715  -0.55583  -0.54990  -0.54888
 Alpha  occ. eigenvalues --   -0.54583  -0.54345  -0.54020  -0.53754  -0.53493
 Alpha  occ. eigenvalues --   -0.53059  -0.52760  -0.52333  -0.52161  -0.51674
 Alpha  occ. eigenvalues --   -0.51538  -0.51326  -0.51105  -0.50691  -0.49799
 Alpha  occ. eigenvalues --   -0.49673  -0.49466  -0.49224  -0.49160  -0.48884
 Alpha  occ. eigenvalues --   -0.48759  -0.48741  -0.48096  -0.47619  -0.47397
 Alpha  occ. eigenvalues --   -0.47361  -0.46892  -0.46161  -0.45625  -0.45273
 Alpha  occ. eigenvalues --   -0.44791  -0.44734  -0.44693  -0.44623  -0.44142
 Alpha  occ. eigenvalues --   -0.43110  -0.42879  -0.42619  -0.42113  -0.41932
 Alpha  occ. eigenvalues --   -0.41499  -0.41234  -0.40640  -0.40385  -0.40004
 Alpha  occ. eigenvalues --   -0.39681  -0.39620  -0.39447  -0.39212  -0.39136
 Alpha  occ. eigenvalues --   -0.38647  -0.38592  -0.38552  -0.38195  -0.38078
 Alpha  occ. eigenvalues --   -0.36814  -0.34581  -0.34411  -0.33875  -0.32095
 Alpha  occ. eigenvalues --   -0.30988  -0.30059  -0.28988  -0.28767  -0.27137
 Alpha virt. eigenvalues --   -0.17320  -0.11225  -0.10638  -0.08777  -0.08682
 Alpha virt. eigenvalues --   -0.07594  -0.06050  -0.04515  -0.04208  -0.03051
 Alpha virt. eigenvalues --   -0.02473  -0.02211  -0.02035  -0.00889  -0.00217

 Mulliken charges:
               1
     1  N   -0.722775
     2  H    0.328129
     3  H    0.314780
     4  C   -0.092610
     5  H    0.152464
     6  C    0.600911
     7  C   -0.348432
     8  H    0.174248
     9  H    0.163183
    10  O   -0.533617
    11  C    0.572403
    12  N   -0.749803
    13  H    0.333973
    14  H    0.375449
    15  O   -0.514936
    16  N   -0.615277
    17  H    0.353854
    18  C   -0.051688
    19  H    0.177018
    20  C    0.627597
    21  C   -0.073515
    22  H    0.164201
    23  O   -0.538590
    24  C   -0.268861
    25  H    0.118787
    26  H    0.149000
    27  C   -0.458877
    28  H    0.142939
    29  H    0.152941
    30  H    0.157104
    31  C   -0.456444
    32  H    0.151643
    33  H    0.132419
    34  H    0.172179
    35  N   -0.629588
    36  H    0.364663
    37  C   -0.036527
    38  H    0.192261
    39  C    0.627510
    40  C   -0.453331
    41  H    0.138411
    42  H    0.220198
    43  H    0.164342
    44  O   -0.525687
    45  N   -0.614657
    46  H    0.362893
    47  C   -0.064497
    48  H    0.228230
    49  C    0.667413
    50  C    0.068351
    51  H    0.190388
    52  O   -0.564144
    53  C   -0.469167
    54  H    0.190049
    55  H    0.180896
    56  H    0.183116
    57  O   -0.661088
    58  H    0.441242
    59  N   -0.537188
    60  H    0.416358
    61  C   -0.109377
    62  H    0.210802
    63  C    0.624124
    64  C   -0.073859
    65  H    0.185772
    66  H    0.157459
    67  O   -0.506257
    68  O   -0.637565
    69  H    0.459644
    70  N   -0.565181
    71  H    0.343481
    72  C   -0.264440
    73  H    0.230524
    74  H    0.194461
    75  C    0.629039
    76  O   -0.543024
    77  N   -0.588057
    78  H    0.353863
    79  C   -0.071234
    80  H    0.216044
    81  C    0.594195
    82  C   -0.271670
    83  H    0.144645
    84  H    0.184277
    85  O   -0.435529
    86  C   -0.264227
    87  H    0.147280
    88  H    0.129252
    89  C   -0.250704
    90  H    0.162263
    91  H    0.128318
    92  C   -0.132385
    93  H    0.140425
    94  H    0.102959
    95  N   -0.711648
    96  H    0.295935
    97  H    0.300295
    98  O   -0.584317
    99  H    0.428018
   100  H    0.476152
 Sum of Mulliken charges =   1.00000

 Dipole moment (field-independent basis, Debye):
    X=             17.0367    Y=            -19.8155    Z=             -4.3306  Tot=             26.4888
 Quadrupole moment (field-independent basis, Debye-Ang):
   XX=           -219.1937   YY=           -185.8812   ZZ=           -197.0481
   XY=            -83.1378   XZ=            -64.9450   YZ=             28.3398

 Normal termination of Gaussian 16 at Fri May 27 02:51:29 2022.
