 Gaussian 16, Revision C.01,
 Gaussian 16:  ES64L-G16RevC.01  3-Jul-2019

 -------------------------------------------------------------------
 # B3LYP/6-31G* guess=read geom=check nosymm integral(ultrafinegrid)
 -------------------------------------------------------------------

 ------------------------------------------------------
 Candidate Structure: Conf:156 Charge calc in gas phase
 ------------------------------------------------------
 Structure from the checkpoint file:  "conf-156.chk"
 Charge =  1 Multiplicity = 1

                          Input orientation:
 ---------------------------------------------------------------------
 Center     Atomic      Atomic             Coordinates (Angstroms)
 Number     Number       Type             X           Y           Z
 ---------------------------------------------------------------------
      1          7           0       -4.825714   -2.495161    3.580734
      2          1           0       -5.689527   -2.087651    3.221245
      3          1           0       -4.811213   -2.304740    4.581585
      4          6           0       -3.695593   -1.846715    2.923633
      5          1           0       -2.782378   -2.143995    3.455060
      6          6           0       -3.823863   -0.314142    2.917892
      7          6           0       -3.622656   -2.373262    1.466514
      8          1           0       -3.555540   -3.463811    1.512644
      9          1           0       -4.557315   -2.105745    0.963670
     10          8           0       -4.846745    0.230855    2.490553
     11          6           0       -2.486701   -1.752997    0.670564
     12          7           0       -1.381509   -2.497466    0.478026
     13          1           0       -0.598923   -2.088145   -0.029442
     14          1           0       -1.332053   -3.459700    0.778255
     15          8           0       -2.577112   -0.584091    0.261944
     16          7           0       -2.777745    0.392425    3.423355
     17          1           0       -1.927696   -0.095002    3.670974
     18          6           0       -2.766122    1.858818    3.451906
     19          1           0       -3.812137    2.147835    3.584537
     20          6           0       -2.334669    2.371869    2.053717
     21          6           0       -1.967840    2.403504    4.659647
     22          1           0       -2.501933    1.998301    5.531758
     23          8           0       -1.186611    2.831565    1.868023
     24          6           0       -2.037671    3.943862    4.759558
     25          1           0       -1.484478    4.388175    3.923829
     26          1           0       -1.495153    4.230110    5.669187
     27          6           0       -0.510662    1.916299    4.747030
     28          1           0        0.088666    2.287439    3.912979
     29          1           0       -0.061136    2.277352    5.677947
     30          1           0       -0.426951    0.821788    4.771618
     31          6           0       -3.452497    4.533116    4.824485
     32          1           0       -3.408507    5.608907    5.022780
     33          1           0       -4.006164    4.404594    3.886726
     34          1           0       -4.042420    4.074228    5.627316
     35          7           0       -3.298291    2.232292    1.132381
     36          1           0       -4.117876    1.715579    1.466908
     37          6           0       -3.292876    2.441710   -0.331035
     38          1           0       -3.706148    1.515581   -0.744261
     39          6           0       -1.871075    2.594603   -0.879195
     40          6           0       -4.172545    3.632274   -0.715323
     41          1           0       -4.244485    3.715347   -1.803773
     42          1           0       -5.180008    3.493996   -0.311845
     43          1           0       -3.755490    4.564045   -0.327326
     44          8           0       -1.443691    3.712612   -1.245528
     45          7           0       -1.111451    1.487463   -0.920077
     46          1           0       -1.473705    0.598960   -0.532854
     47          6           0        0.268367    1.554285   -1.393892
     48          1           0        0.290974    2.188449   -2.287425
     49          6           0        0.745893    0.127397   -1.723710
     50          6           0        1.209083    2.168950   -0.326986
     51          1           0        1.242815    1.512965    0.545950
     52          8           0        0.567827   -0.783833   -0.913739
     53          6           0        2.593289    2.520631   -0.828305
     54          1           0        3.109374    1.615781   -1.165954
     55          1           0        3.175976    2.979916   -0.025388
     56          1           0        2.538663    3.228385   -1.663672
     57          8           0        0.571496    3.425313    0.183487
     58          1           0       -0.055360    3.792178   -0.555223
     59          7           0        1.342576   -0.024782   -2.917386
     60          1           0        1.559875    0.773652   -3.505307
     61          6           0        2.016798   -1.246148   -3.314240
     62          1           0        1.422611   -2.097894   -2.966999
     63          6           0        3.413681   -1.319767   -2.644868
     64          6           0        2.095597   -1.239289   -4.852612
     65          1           0        1.080715   -1.402743   -5.251229
     66          1           0        2.720738   -2.076856   -5.197483
     67          8           0        3.855898   -0.417195   -1.934259
     68          8           0        2.616335    0.008755   -5.226403
     69          1           0        3.043023   -0.046112   -6.137656
     70          7           0        4.097015   -2.466032   -2.873238
     71          1           0        3.708683   -3.162686   -3.493419
     72          6           0        5.366352   -2.774287   -2.216273
     73          1           0        5.313870   -2.400479   -1.188346
     74          1           0        5.489582   -3.857453   -2.197913
     75          6           0        6.618296   -2.198482   -2.905706
     76          8           0        7.463219   -2.938010   -3.392714
     77          7           0        6.703446   -0.835515   -2.898015
     78          1           0        5.982852   -0.328881   -2.392300
     79          6           0        7.945864   -0.159792   -3.244224
     80          1           0        8.644796   -0.967701   -3.496215
     81          6           0        8.563992    0.567758   -2.047281
     82          6           0        7.851284    0.787653   -4.455796
     83          1           0        7.188153    1.628649   -4.211544
     84          1           0        8.846347    1.220110   -4.589340
     85          8           0        9.413079    1.424286   -2.138365
     86          6           0        7.375453    0.089705   -5.749441
     87          1           0        8.000064    0.419145   -6.589279
     88          1           0        7.529807   -0.993950   -5.661893
     89          6           0        5.905284    0.375763   -6.082610
     90          1           0        5.783904    1.454174   -6.267576
     91          1           0        5.266059    0.136969   -5.225447
     92          6           0        5.405225   -0.399000   -7.301783
     93          1           0        6.058072   -0.210577   -8.167421
     94          1           0        5.447086   -1.475935   -7.100292
     95          7           0        3.991622   -0.057307   -7.596031
     96          1           0        3.643341   -0.636637   -8.359746
     97          1           0        3.941505    0.904509   -7.934793
     98          8           0        8.082996    0.135966   -0.856123
     99          1           0        8.579218    0.631301   -0.176299
    100          1           0       -0.140582    3.190711    0.918881
 ---------------------------------------------------------------------

 SCF Done:  E(RB3LYP) =  -2418.45540373     A.U. after    1 cycles

 Alpha  occ. eigenvalues --  -19.34553 -19.26365 -19.25351 -19.24887 -19.23730
 Alpha  occ. eigenvalues --  -19.22274 -19.22114 -19.22009 -19.21558 -19.20342
 Alpha  occ. eigenvalues --  -19.18615 -14.47911 -14.47574 -14.47473 -14.47005
 Alpha  occ. eigenvalues --  -14.46596 -14.45623 -14.42675 -14.42433 -14.40755
 Alpha  occ. eigenvalues --  -10.41551 -10.41407 -10.41127 -10.39595 -10.39054
 Alpha  occ. eigenvalues --  -10.38754 -10.38623 -10.38518 -10.36352 -10.35929
 Alpha  occ. eigenvalues --  -10.34712 -10.33878 -10.33596 -10.33402 -10.32944
 Alpha  occ. eigenvalues --  -10.31355 -10.30327 -10.29149 -10.29112 -10.28770
 Alpha  occ. eigenvalues --  -10.28582 -10.27236 -10.26344 -10.26240 -10.25195
 Alpha  occ. eigenvalues --  -10.25146 -10.25138 -10.24859  -1.22144  -1.17134
 Alpha  occ. eigenvalues --   -1.16221  -1.15867  -1.15521  -1.13946  -1.13752
 Alpha  occ. eigenvalues --   -1.13372  -1.10433  -1.09645  -1.08017  -1.05008
 Alpha  occ. eigenvalues --   -1.04145  -1.03706  -1.02765  -1.02316  -1.00561
 Alpha  occ. eigenvalues --   -0.99307  -0.98324  -0.97856  -0.92030  -0.90235
 Alpha  occ. eigenvalues --   -0.88242  -0.87495  -0.86626  -0.85706  -0.83627
 Alpha  occ. eigenvalues --   -0.82740  -0.82156  -0.80370  -0.80299  -0.76376
 Alpha  occ. eigenvalues --   -0.76071  -0.75284  -0.74753  -0.73401  -0.72610
 Alpha  occ. eigenvalues --   -0.71803  -0.71177  -0.70322  -0.70086  -0.69537
 Alpha  occ. eigenvalues --   -0.69198  -0.68980  -0.68387  -0.66708  -0.66518
 Alpha  occ. eigenvalues --   -0.65919  -0.65649  -0.65405  -0.64510  -0.64152
 Alpha  occ. eigenvalues --   -0.63182  -0.62461  -0.61023  -0.60603  -0.60294
 Alpha  occ. eigenvalues --   -0.59788  -0.59548  -0.59045  -0.58741  -0.58331
 Alpha  occ. eigenvalues --   -0.57870  -0.57329  -0.56635  -0.56232  -0.55825
 Alpha  occ. eigenvalues --   -0.55630  -0.55546  -0.55140  -0.54818  -0.54587
 Alpha  occ. eigenvalues --   -0.54111  -0.53890  -0.53574  -0.53009  -0.52822
 Alpha  occ. eigenvalues --   -0.52746  -0.52415  -0.51930  -0.51794  -0.51414
 Alpha  occ. eigenvalues --   -0.51010  -0.50780  -0.50496  -0.50176  -0.50118
 Alpha  occ. eigenvalues --   -0.49739  -0.49573  -0.49446  -0.49360  -0.49162
 Alpha  occ. eigenvalues --   -0.48938  -0.48785  -0.48357  -0.48011  -0.47793
 Alpha  occ. eigenvalues --   -0.47696  -0.47258  -0.47043  -0.46705  -0.46393
 Alpha  occ. eigenvalues --   -0.46238  -0.46044  -0.45851  -0.45335  -0.44802
 Alpha  occ. eigenvalues --   -0.44660  -0.44426  -0.44130  -0.42775  -0.42284
 Alpha  occ. eigenvalues --   -0.42157  -0.41340  -0.41138  -0.40323  -0.40235
 Alpha  occ. eigenvalues --   -0.39555  -0.39392  -0.39213  -0.38555  -0.38219
 Alpha  occ. eigenvalues --   -0.37879  -0.37777  -0.37413  -0.37033  -0.37024
 Alpha  occ. eigenvalues --   -0.36847  -0.36084  -0.35774  -0.35395  -0.35274
 Alpha  occ. eigenvalues --   -0.34655  -0.34494  -0.32764  -0.31765  -0.31350
 Alpha virt. eigenvalues --   -0.12029  -0.10544  -0.10292  -0.08256  -0.08013
 Alpha virt. eigenvalues --   -0.07705  -0.05936  -0.05285  -0.03237  -0.02701
 Alpha virt. eigenvalues --   -0.02333  -0.01925  -0.01142  -0.00901   0.00005

 Mulliken charges:
               1
     1  N   -0.693785
     2  H    0.325336
     3  H    0.316024
     4  C   -0.074307
     5  H    0.142432
     6  C    0.639491
     7  C   -0.336101
     8  H    0.173853
     9  H    0.195938
    10  O   -0.554574
    11  C    0.589464
    12  N   -0.763979
    13  H    0.402386
    14  H    0.351246
    15  O   -0.549720
    16  N   -0.611866
    17  H    0.342806
    18  C   -0.085289
    19  H    0.200782
    20  C    0.677024
    21  C   -0.085593
    22  H    0.147253
    23  O   -0.617303
    24  C   -0.268471
    25  H    0.154188
    26  H    0.151669
    27  C   -0.472570
    28  H    0.168413
    29  H    0.169685
    30  H    0.127056
    31  C   -0.460832
    32  H    0.166886
    33  H    0.141575
    34  H    0.155532
    35  N   -0.601398
    36  H    0.401642
    37  C   -0.038514
    38  H    0.202732
    39  C    0.581945
    40  C   -0.434872
    41  H    0.175366
    42  H    0.167807
    43  H    0.183311
    44  O   -0.581322
    45  N   -0.623404
    46  H    0.417505
    47  C   -0.084426
    48  H    0.190483
    49  C    0.636462
    50  C    0.092547
    51  H    0.201568
    52  O   -0.550022
    53  C   -0.493036
    54  H    0.234308
    55  H    0.188847
    56  H    0.166705
    57  O   -0.658818
    58  H    0.480286
    59  N   -0.583335
    60  H    0.372116
    61  C   -0.087167
    62  H    0.184727
    63  C    0.654061
    64  C   -0.035237
    65  H    0.145524
    66  H    0.128198
    67  O   -0.534530
    68  O   -0.682309
    69  H    0.469448
    70  N   -0.590535
    71  H    0.344715
    72  C   -0.242371
    73  H    0.199495
    74  H    0.192194
    75  C    0.599843
    76  O   -0.498446
    77  N   -0.596640
    78  H    0.359052
    79  C   -0.076831
    80  H    0.224060
    81  C    0.588126
    82  C   -0.264817
    83  H    0.137818
    84  H    0.181685
    85  O   -0.452416
    86  C   -0.274816
    87  H    0.146899
    88  H    0.160892
    89  C   -0.272541
    90  H    0.132762
    91  H    0.156216
    92  C   -0.144472
    93  H    0.149897
    94  H    0.154818
    95  N   -0.775879
    96  H    0.328428
    97  H    0.328508
    98  O   -0.571305
    99  H    0.416962
   100  H    0.506852
 Sum of Mulliken charges =   1.00000

 Dipole moment (field-independent basis, Debye):
    X=             -0.7873    Y=              0.5810    Z=             -4.0456  Tot=              4.1623
 Quadrupole moment (field-independent basis, Debye-Ang):
   XX=           -267.1019   YY=           -254.3277   ZZ=           -169.4040
   XY=             -3.3129   XZ=            -40.7226   YZ=             10.4564

 Normal termination of Gaussian 16 at Fri May 27 02:49:59 2022.
