 Gaussian 16, Revision C.01,
 Gaussian 16:  ES64L-G16RevC.01  3-Jul-2019

 -------------------------------------------------------------------
 # B3LYP/6-31G* guess=read geom=check nosymm integral(ultrafinegrid)
 -------------------------------------------------------------------

 -----------------------------------------------------
 Candidate Structure: Conf:81 Charge calc in gas phase
 -----------------------------------------------------
 Structure from the checkpoint file:  "conf-81.chk"
 Charge =  1 Multiplicity = 1

                          Input orientation:
 ---------------------------------------------------------------------
 Center     Atomic      Atomic             Coordinates (Angstroms)
 Number     Number       Type             X           Y           Z
 ---------------------------------------------------------------------
      1          7           0       -3.563601    0.205323    4.839869
      2          1           0       -3.971896   -0.655198    4.482944
      3          1           0       -2.630273   -0.013875    5.180914
      4          6           0       -3.528912    1.243925    3.831180
      5          1           0       -4.540185    1.358274    3.431326
      6          6           0       -2.605418    0.940280    2.646179
      7          6           0       -3.107422    2.579764    4.499027
      8          1           0       -3.808344    2.728801    5.325911
      9          1           0       -2.114050    2.452003    4.945851
     10          8           0       -1.554806    0.231895    2.942191
     11          6           0       -3.060743    3.834479    3.594935
     12          1           0       -2.285140    3.724896    2.827320
     13          1           0       -2.804017    4.700335    4.209197
     14          6           0       -4.370007    4.097573    2.884179
     15          8           0       -4.828353    3.394488    1.988844
     16          8           0       -5.011890    5.176475    3.333934
     17          7           0       -2.928962    1.381408    1.457967
     18          1           0       -3.739340    2.024734    1.453544
     19          6           0       -2.207652    1.212546    0.185142
     20          1           0       -2.201585    0.143760   -0.054709
     21          6           0       -0.762369    1.709429    0.370233
     22          6           0       -2.972807    1.972290   -0.932880
     23          1           0       -2.826576    3.048747   -0.785391
     24          1           0       -4.043479    1.772274   -0.781816
     25          8           0       -0.501033    2.607135    1.179545
     26          6           0       -2.559666    1.551135   -2.307502
     27          6           0       -1.880972    2.302574   -3.243446
     28          1           0       -1.513785    3.318062   -3.167839
     29          6           0       -2.830978    0.278265   -2.930490
     30          6           0       -2.281365    0.342781   -4.242337
     31          6           0       -3.492240   -0.896691   -2.524924
     32          1           0       -3.949752   -0.970224   -1.539958
     33          7           0       -1.715438    1.589620   -4.401040
     34          1           0       -1.210925    1.935045   -5.231802
     35          6           0       -3.020999   -1.879843   -4.703984
     36          1           0       -3.109228   -2.728202   -5.376393
     37          6           0       -2.372013   -0.730570   -5.136500
     38          1           0       -1.958947   -0.663194   -6.139062
     39          6           0       -3.578621   -1.962420   -3.410925
     40          1           0       -4.090504   -2.872222   -3.110585
     41          7           0        0.165091    1.039518   -0.338038
     42          1           0       -0.089072    0.347427   -1.039497
     43          6           0        1.587275    1.139737   -0.052638
     44          1           0        1.842336    2.188131    0.137569
     45          6           0        2.319438    0.594679   -1.293856
     46          6           0        1.928286    0.282520    1.210950
     47          1           0        1.788206   -0.771674    0.952441
     48          8           0        1.776898   -0.261023   -1.985959
     49          6           0        3.331298    0.521039    1.757792
     50          1           0        4.108325    0.247977    1.038087
     51          1           0        3.475937   -0.079307    2.659993
     52          1           0        3.471133    1.576163    2.027618
     53          8           0        0.955452    0.527228    2.250120
     54          1           0        0.933922    1.489468    2.409778
     55          7           0        3.552516    1.105913   -1.540794
     56          1           0        3.993288    1.693092   -0.842406
     57          6           0        4.449186    0.508336   -2.524168
     58          1           0        3.982832   -0.426265   -2.850524
     59          6           0        5.766341    0.187499   -1.823241
     60          6           0        4.690933    1.398867   -3.767658
     61          1           0        5.285167    0.807371   -4.474079
     62          1           0        5.306715    2.264617   -3.488158
     63          8           0        6.049242    0.545733   -0.698660
     64          6           0        3.385060    1.868819   -4.420448
     65          1           0        2.670128    1.040308   -4.473513
     66          1           0        2.923344    2.646010   -3.798587
     67          6           0        3.601796    2.423773   -5.838263
     68          1           0        4.371726    3.203147   -5.839609
     69          1           0        3.975120    1.630658   -6.496281
     70          7           0        2.400967    3.026800   -6.431937
     71          1           0        2.248279    3.985045   -6.142427
     72          7           0        1.369284    0.976180   -6.858769
     73          1           0        0.497538    0.546909   -7.144407
     74          1           0        2.127687    0.759630   -7.494748
     75          7           0        0.020415    2.805301   -6.416631
     76          1           0        0.052559    3.778811   -6.110819
     77          6           0        1.211627    2.320736   -6.559509
     78          8           0        6.591434   -0.514791   -2.615354
     79          1           0       -0.725319    0.261451    2.369144
     80          1           0        7.419291   -0.663366   -2.118221
     81          1           0       -5.844901    5.265160    2.829044
 ---------------------------------------------------------------------

 SCF Done:  E(RB3LYP) =  -2053.93550344     A.U. after    1 cycles

 Alpha  occ. eigenvalues --  -19.33593 -19.31157 -19.29571 -19.28331 -19.26182
 Alpha  occ. eigenvalues --  -19.24190 -19.23814 -19.22739 -14.52002 -14.47736
 Alpha  occ. eigenvalues --  -14.47063 -14.43517 -14.43212 -14.42913 -14.42483
 Alpha  occ. eigenvalues --  -14.37291 -10.45627 -10.44120 -10.42150 -10.41048
 Alpha  occ. eigenvalues --  -10.40135 -10.36862 -10.36280 -10.36161 -10.35453
 Alpha  occ. eigenvalues --  -10.35086 -10.33880 -10.31263 -10.31068 -10.31021
 Alpha  occ. eigenvalues --  -10.30267 -10.29071 -10.28733 -10.28121 -10.27941
 Alpha  occ. eigenvalues --  -10.27141 -10.25769 -10.25378 -10.25234 -10.25191
 Alpha  occ. eigenvalues --  -10.24648 -10.24500  -1.23561  -1.22398  -1.20653
 Alpha  occ. eigenvalues --   -1.16374  -1.14710  -1.14512  -1.13212  -1.11737
 Alpha  occ. eigenvalues --   -1.09176  -1.06127  -1.04271  -1.04001  -1.03505
 Alpha  occ. eigenvalues --   -1.01031  -0.97027  -0.92848  -0.92480  -0.90623
 Alpha  occ. eigenvalues --   -0.90247  -0.89820  -0.88121  -0.85763  -0.83958
 Alpha  occ. eigenvalues --   -0.83102  -0.81660  -0.79937  -0.79485  -0.78533
 Alpha  occ. eigenvalues --   -0.76354  -0.76005  -0.74187  -0.73551  -0.72590
 Alpha  occ. eigenvalues --   -0.71609  -0.70614  -0.70208  -0.69837  -0.69068
 Alpha  occ. eigenvalues --   -0.68615  -0.67899  -0.66145  -0.65561  -0.63365
 Alpha  occ. eigenvalues --   -0.63262  -0.62947  -0.62563  -0.62072  -0.61487
 Alpha  occ. eigenvalues --   -0.60986  -0.60209  -0.59977  -0.59862  -0.59236
 Alpha  occ. eigenvalues --   -0.58579  -0.57981  -0.57367  -0.57171  -0.56498
 Alpha  occ. eigenvalues --   -0.55868  -0.55631  -0.55605  -0.55223  -0.54912
 Alpha  occ. eigenvalues --   -0.54597  -0.54207  -0.54072  -0.53553  -0.53294
 Alpha  occ. eigenvalues --   -0.53007  -0.52637  -0.52525  -0.51868  -0.51380
 Alpha  occ. eigenvalues --   -0.50686  -0.50556  -0.49994  -0.49780  -0.49598
 Alpha  occ. eigenvalues --   -0.49372  -0.48978  -0.48640  -0.48398  -0.47955
 Alpha  occ. eigenvalues --   -0.47939  -0.47494  -0.47314  -0.47208  -0.46906
 Alpha  occ. eigenvalues --   -0.46212  -0.46091  -0.45307  -0.45085  -0.44930
 Alpha  occ. eigenvalues --   -0.44393  -0.43440  -0.43134  -0.42543  -0.41957
 Alpha  occ. eigenvalues --   -0.41709  -0.41193  -0.40196  -0.39677  -0.39526
 Alpha  occ. eigenvalues --   -0.38363  -0.37888  -0.37251  -0.36438  -0.36020
 Alpha  occ. eigenvalues --   -0.35696  -0.35550  -0.34076  -0.34038  -0.30880
 Alpha  occ. eigenvalues --   -0.28665  -0.27091
 Alpha virt. eigenvalues --   -0.15195  -0.11221  -0.10827  -0.09159  -0.08959
 Alpha virt. eigenvalues --   -0.07721  -0.04213  -0.03852  -0.03675  -0.02387
 Alpha virt. eigenvalues --   -0.02271  -0.02206  -0.01478  -0.01174  -0.01030

 Mulliken charges:
               1
     1  N   -0.687362
     2  H    0.325391
     3  H    0.327694
     4  C   -0.088690
     5  H    0.193890
     6  C    0.619437
     7  C   -0.279178
     8  H    0.205681
     9  H    0.173214
    10  O   -0.591743
    11  C   -0.392242
    12  H    0.209433
    13  H    0.203906
    14  C    0.609425
    15  O   -0.496862
    16  O   -0.527484
    17  N   -0.596380
    18  H    0.435629
    19  C   -0.047119
    20  H    0.197406
    21  C    0.600994
    22  C   -0.406905
    23  H    0.177249
    24  H    0.181908
    25  O   -0.554463
    26  C    0.038306
    27  C    0.001613
    28  H    0.144863
    29  C    0.077412
    30  C    0.311684
    31  C   -0.221915
    32  H    0.105931
    33  N   -0.704806
    34  H    0.393962
    35  C   -0.149939
    36  H    0.137482
    37  C   -0.155853
    38  H    0.130513
    39  C   -0.136713
    40  H    0.131756
    41  N   -0.595349
    42  H    0.379625
    43  C   -0.089388
    44  H    0.179063
    45  C    0.619214
    46  C    0.140206
    47  H    0.176110
    48  O   -0.513681
    49  C   -0.491312
    50  H    0.191222
    51  H    0.189814
    52  H    0.152238
    53  O   -0.650057
    54  H    0.424096
    55  N   -0.595454
    56  H    0.350923
    57  C   -0.068624
    58  H    0.220118
    59  C    0.591928
    60  C   -0.278813
    61  H    0.176806
    62  H    0.150433
    63  O   -0.464392
    64  C   -0.272395
    65  H    0.191859
    66  H    0.136116
    67  C   -0.152851
    68  H    0.162955
    69  H    0.158125
    70  N   -0.578465
    71  H    0.321397
    72  N   -0.733246
    73  H    0.349327
    74  H    0.339958
    75  N   -0.690183
    76  H    0.278580
    77  C    0.603276
    78  O   -0.551385
    79  H    0.482313
    80  H    0.430798
    81  H    0.431966
 Sum of Mulliken charges =   1.00000

 Dipole moment (field-independent basis, Debye):
    X=              1.7774    Y=              8.7859    Z=             -0.2770  Tot=              8.9681
 Quadrupole moment (field-independent basis, Debye-Ang):
   XX=           -160.5045   YY=           -201.1641   ZZ=           -173.2969
   XY=            -10.7820   XZ=            -58.9082   YZ=              2.4812

 Normal termination of Gaussian 16 at Thu May 26 18:18:28 2022.
