 Gaussian 16, Revision C.01,
 Gaussian 16:  ES64L-G16RevC.01  3-Jul-2019

 -------------------------------------------------------------------
 # B3LYP/6-31G* guess=read geom=check nosymm integral(ultrafinegrid)
 -------------------------------------------------------------------

 -----------------------------------------------------
 Candidate Structure: Conf:34 Charge calc in gas phase
 -----------------------------------------------------
 Structure from the checkpoint file:  "conf-34.chk"
 Charge =  1 Multiplicity = 1

                          Input orientation:
 ---------------------------------------------------------------------
 Center     Atomic      Atomic             Coordinates (Angstroms)
 Number     Number       Type             X           Y           Z
 ---------------------------------------------------------------------
      1          7           0       -3.977605   -1.651319    3.366434
      2          1           0       -4.560150   -2.143855    2.691643
      3          1           0       -3.065879   -2.108897    3.348977
      4          6           0       -3.804528   -0.256632    2.975930
      5          1           0       -4.796396    0.161495    2.758260
      6          6           0       -2.888989   -0.098200    1.754776
      7          6           0       -3.150911    0.540665    4.125887
      8          1           0       -2.167173    0.102587    4.328786
      9          1           0       -2.964951    1.572918    3.803070
     10          8           0       -1.848560   -0.746567    1.636187
     11          6           0       -3.977879    0.535264    5.409705
     12          1           0       -4.244951   -0.494500    5.676228
     13          1           0       -4.925004    1.075306    5.292861
     14          6           0       -3.209740    1.145809    6.562641
     15          8           0       -2.028815    1.424074    6.556270
     16          8           0       -4.006692    1.344599    7.634814
     17          7           0       -3.229111    0.839908    0.821750
     18          1           0       -4.032734    1.436228    0.969180
     19          6           0       -2.331167    1.155503   -0.279145
     20          1           0       -2.293553    0.316329   -0.983021
     21          6           0       -0.926080    1.358700    0.268021
     22          6           0       -2.850359    2.418495   -1.017892
     23          1           0       -2.897589    3.241216   -0.294690
     24          1           0       -3.883348    2.190683   -1.308436
     25          8           0       -0.810414    2.249002    1.204227
     26          6           0       -2.061866    2.838691   -2.223917
     27          6           0       -2.224731    2.368752   -3.506978
     28          1           0       -2.904318    1.617118   -3.886522
     29          6           0       -1.051428    3.868496   -2.291375
     30          6           0       -0.653795    3.972321   -3.653317
     31          6           0       -0.469647    4.737283   -1.348513
     32          1           0       -0.750922    4.688835   -0.299927
     33          7           0       -1.373010    3.031058   -4.361183
     34          1           0       -1.343816    2.903613   -5.361751
     35          6           0        0.821877    5.774069   -3.141856
     36          1           0        1.527619    6.539682   -3.452176
     37          6           0        0.279480    4.917720   -4.093286
     38          1           0        0.551092    4.996878   -5.142439
     39          6           0        0.456141    5.680337   -1.780661
     40          1           0        0.890731    6.372079   -1.064956
     41          7           0        0.080966    0.690013   -0.227237
     42          1           0       -0.111248   -0.104752   -0.848553
     43          6           0        1.516918    0.754279    0.102082
     44          1           0        1.895045    1.776880   -0.017428
     45          6           0        2.153859   -0.188980   -0.957057
     46          6           0        1.787629    0.301039    1.560098
     47          1           0        1.197695   -0.604580    1.745874
     48          8           0        1.466189   -1.079772   -1.456395
     49          6           0        3.252498    0.087602    1.910546
     50          1           0        3.683002   -0.746935    1.352669
     51          1           0        3.335354   -0.142305    2.978977
     52          1           0        3.825435    0.998274    1.711845
     53          8           0        1.263342    1.385648    2.376415
     54          1           0        0.047503    2.093571    1.736672
     55          7           0        3.436374    0.057998   -1.270755
     56          1           0        3.873872    0.890577   -0.870853
     57          6           0        4.160134   -0.749858   -2.246786
     58          1           0        3.444775   -1.059935   -3.016533
     59          6           0        4.721826   -2.063409   -1.687437
     60          6           0        5.296382    0.060243   -2.907586
     61          1           0        5.915432   -0.648205   -3.463445
     62          1           0        5.932388    0.467403   -2.109076
     63          8           0        5.260933   -2.885265   -2.388552
     64          6           0        4.786651    1.187419   -3.834300
     65          1           0        4.854895    0.866701   -4.880416
     66          1           0        3.727348    1.382010   -3.637291
     67          6           0        5.544635    2.520988   -3.693006
     68          1           0        6.597561    2.404794   -3.967963
     69          1           0        5.128031    3.252372   -4.395676
     70          7           0        5.539423    3.085485   -2.331067
     71          1           0        6.333124    2.804837   -1.769846
     72          7           0        3.252256    3.540245   -2.306491
     73          1           0        2.487114    3.882260   -1.736828
     74          1           0        3.402546    4.113636   -3.125772
     75          7           0        4.248813    2.930014   -0.316106
     76          1           0        5.147785    2.656883    0.086269
     77          6           0        4.372510    3.186386   -1.585979
     78          8           0        4.573030   -2.209981   -0.351248
     79          1           0        1.196457    1.098029    3.302352
     80          1           0        4.957115   -3.081249   -0.131411
     81          1           0       -3.443810    1.715961    8.340518
 ---------------------------------------------------------------------

 SCF Done:  E(RB3LYP) =  -2053.92223550     A.U. after    1 cycles

 Alpha  occ. eigenvalues --  -19.32591 -19.30065 -19.29225 -19.25971 -19.23681
 Alpha  occ. eigenvalues --  -19.22862 -19.22721 -19.20556 -14.52033 -14.47917
 Alpha  occ. eigenvalues --  -14.47687 -14.47104 -14.44845 -14.43812 -14.40261
 Alpha  occ. eigenvalues --  -14.38800 -10.45905 -10.41224 -10.40850 -10.39156
 Alpha  occ. eigenvalues --  -10.38775 -10.38477 -10.37467 -10.37025 -10.36801
 Alpha  occ. eigenvalues --  -10.34128 -10.32068 -10.31946 -10.31911 -10.31677
 Alpha  occ. eigenvalues --  -10.31402 -10.29282 -10.28474 -10.28283 -10.28232
 Alpha  occ. eigenvalues --  -10.28163 -10.28070 -10.28026 -10.27734 -10.27528
 Alpha  occ. eigenvalues --  -10.27356 -10.27046  -1.23648  -1.19864  -1.16954
 Alpha  occ. eigenvalues --   -1.16476  -1.15744  -1.14672  -1.10756  -1.08848
 Alpha  occ. eigenvalues --   -1.07987  -1.07663  -1.07616  -1.04285  -1.03963
 Alpha  occ. eigenvalues --   -0.98339  -0.97908  -0.94248  -0.93334  -0.92683
 Alpha  occ. eigenvalues --   -0.91071  -0.89090  -0.87510  -0.86732  -0.84567
 Alpha  occ. eigenvalues --   -0.83646  -0.82865  -0.81683  -0.79837  -0.78528
 Alpha  occ. eigenvalues --   -0.77183  -0.75745  -0.74486  -0.72463  -0.72385
 Alpha  occ. eigenvalues --   -0.71758  -0.71638  -0.70135  -0.69616  -0.69366
 Alpha  occ. eigenvalues --   -0.68581  -0.68511  -0.65578  -0.65503  -0.65272
 Alpha  occ. eigenvalues --   -0.64982  -0.64501  -0.63323  -0.62530  -0.61505
 Alpha  occ. eigenvalues --   -0.60467  -0.59847  -0.59568  -0.58922  -0.58339
 Alpha  occ. eigenvalues --   -0.57875  -0.57768  -0.57416  -0.56669  -0.56585
 Alpha  occ. eigenvalues --   -0.56359  -0.56126  -0.55875  -0.55088  -0.54732
 Alpha  occ. eigenvalues --   -0.54394  -0.54268  -0.53977  -0.53563  -0.53039
 Alpha  occ. eigenvalues --   -0.52674  -0.52628  -0.52198  -0.51890  -0.51747
 Alpha  occ. eigenvalues --   -0.51655  -0.51283  -0.50458  -0.50395  -0.50082
 Alpha  occ. eigenvalues --   -0.49926  -0.49412  -0.49142  -0.48905  -0.48722
 Alpha  occ. eigenvalues --   -0.48339  -0.47518  -0.47387  -0.46995  -0.46252
 Alpha  occ. eigenvalues --   -0.46060  -0.44953  -0.44671  -0.44526  -0.44489
 Alpha  occ. eigenvalues --   -0.43451  -0.43146  -0.43072  -0.42755  -0.42737
 Alpha  occ. eigenvalues --   -0.42651  -0.41455  -0.40727  -0.38908  -0.38326
 Alpha  occ. eigenvalues --   -0.38030  -0.37636  -0.37434  -0.37109  -0.36822
 Alpha  occ. eigenvalues --   -0.35525  -0.35015  -0.34244  -0.32575  -0.32272
 Alpha  occ. eigenvalues --   -0.31742  -0.30054
 Alpha virt. eigenvalues --   -0.14916  -0.10702  -0.09619  -0.08645  -0.08323
 Alpha virt. eigenvalues --   -0.07026  -0.05863  -0.05478  -0.05418  -0.04579
 Alpha virt. eigenvalues --   -0.03965  -0.02252  -0.01818  -0.01412  -0.00948

 Mulliken charges:
               1
     1  N   -0.693374
     2  H    0.314175
     3  H    0.319487
     4  C   -0.085599
     5  H    0.141272
     6  C    0.622292
     7  C   -0.257165
     8  H    0.163560
     9  H    0.145518
    10  O   -0.549482
    11  C   -0.357682
    12  H    0.220046
    13  H    0.175528
    14  C    0.584259
    15  O   -0.474222
    16  O   -0.560087
    17  N   -0.618474
    18  H    0.349501
    19  C    0.013507
    20  H    0.184980
    21  C    0.672667
    22  C   -0.416083
    23  H    0.188700
    24  H    0.184016
    25  O   -0.586043
    26  C    0.049889
    27  C    0.008938
    28  H    0.170227
    29  C    0.080091
    30  C    0.318138
    31  C   -0.225353
    32  H    0.141096
    33  N   -0.682665
    34  H    0.345288
    35  C   -0.168416
    36  H    0.146603
    37  C   -0.161756
    38  H    0.144459
    39  C   -0.161405
    40  H    0.148324
    41  N   -0.577234
    42  H    0.400703
    43  C   -0.113303
    44  H    0.234874
    45  C    0.618847
    46  C    0.137865
    47  H    0.190046
    48  O   -0.527440
    49  C   -0.503852
    50  H    0.206072
    51  H    0.164808
    52  H    0.187092
    53  O   -0.666817
    54  H    0.485136
    55  N   -0.621647
    56  H    0.372456
    57  C   -0.048146
    58  H    0.214698
    59  C    0.600959
    60  C   -0.302302
    61  H    0.201458
    62  H    0.130636
    63  O   -0.442054
    64  C   -0.285935
    65  H    0.164878
    66  H    0.175258
    67  C   -0.163972
    68  H    0.174870
    69  H    0.161258
    70  N   -0.571453
    71  H    0.327539
    72  N   -0.736089
    73  H    0.357985
    74  H    0.341586
    75  N   -0.686180
    76  H    0.278830
    77  C    0.566072
    78  O   -0.565841
    79  H    0.440988
    80  H    0.426180
    81  H    0.416419
 Sum of Mulliken charges =   1.00000

 Dipole moment (field-independent basis, Debye):
    X=              2.6984    Y=              8.2142    Z=             -3.7051  Tot=              9.4065
 Quadrupole moment (field-independent basis, Debye-Ang):
   XX=           -156.9386   YY=           -223.0964   ZZ=           -178.0661
   XY=              8.9411   XZ=            -15.9463   YZ=            -27.9091

 Normal termination of Gaussian 16 at Thu May 26 18:18:46 2022.
