 Gaussian 16, Revision C.01,
 Gaussian 16:  ES64L-G16RevC.01  3-Jul-2019

 -------------------------------------------------------------------
 # B3LYP/6-31G* guess=read geom=check nosymm integral(ultrafinegrid)
 -------------------------------------------------------------------

 ------------------------------------------------------
 Candidate Structure: Conf:549 Charge calc in gas phase
 ------------------------------------------------------
 Structure from the checkpoint file:  "conf-549.chk"
 Charge =  1 Multiplicity = 1

                          Input orientation:
 ---------------------------------------------------------------------
 Center     Atomic      Atomic             Coordinates (Angstroms)
 Number     Number       Type             X           Y           Z
 ---------------------------------------------------------------------
      1          7           0       -3.983506    4.633868    1.959572
      2          1           0       -4.299266    5.358153    2.602748
      3          1           0       -3.234755    5.042515    1.403654
      4          6           0       -3.491821    3.477956    2.726565
      5          1           0       -2.551266    3.685558    3.274583
      6          6           0       -3.209753    2.361650    1.705707
      7          6           0       -4.560876    3.047688    3.735793
      8          1           0       -4.795005    3.915684    4.366308
      9          1           0       -5.469414    2.783592    3.190124
     10          8           0       -3.989168    1.451268    1.451515
     11          6           0       -4.116059    1.873224    4.621120
     12          1           0       -3.145590    2.063329    5.090311
     13          1           0       -4.019131    0.975473    3.998101
     14          6           0       -5.076006    1.541807    5.744705
     15          8           0       -4.756991    1.295807    6.886175
     16          8           0       -6.365552    1.524148    5.325833
     17          7           0       -2.012944    2.478708    1.041678
     18          1           0       -1.289022    3.107049    1.368209
     19          6           0       -1.622904    1.467844    0.082391
     20          1           0       -2.067124    0.523022    0.414899
     21          6           0       -0.103383    1.310985    0.130282
     22          6           0       -2.202533    1.776871   -1.340081
     23          1           0       -1.921589    2.801762   -1.607055
     24          1           0       -3.289956    1.768266   -1.203511
     25          8           0        0.650763    2.130025    0.662915
     26          6           0       -1.765621    0.834464   -2.424266
     27          6           0       -1.052993    1.184514   -3.546762
     28          1           0       -0.773167    2.167230   -3.902602
     29          6           0       -1.861779   -0.608407   -2.451373
     30          6           0       -1.145093   -1.050461   -3.608038
     31          6           0       -2.449717   -1.573469   -1.604367
     32          1           0       -3.048186   -1.268525   -0.749270
     33          7           0       -0.680359    0.065546   -4.262272
     34          1           0       -0.215989    0.109352   -5.178665
     35          6           0       -1.541147   -3.338837   -3.024346
     36          1           0       -1.435631   -4.399696   -3.231629
     37          6           0       -0.969807   -2.413510   -3.895789
     38          1           0       -0.434055   -2.736226   -4.784488
     39          6           0       -2.282962   -2.923180   -1.896866
     40          1           0       -2.745375   -3.671472   -1.260113
     41          7           0        0.375675    0.156957   -0.420519
     42          1           0       -0.258170   -0.418177   -0.968599
     43          6           0        1.754347   -0.249008   -0.264485
     44          1           0        2.067539    0.017166    0.752151
     45          6           0        2.683447    0.531110   -1.215013
     46          6           0        1.942648   -1.781341   -0.438664
     47          1           0        2.979183   -2.004207   -0.164276
     48          8           0        3.171447   -0.026546   -2.283802
     49          6           0        1.004183   -2.620427    0.415025
     50          1           0        1.082913   -2.335331    1.469009
     51          1           0        1.279288   -3.674371    0.321548
     52          1           0       -0.040561   -2.507996    0.107022
     53          8           0        1.874903   -2.144191   -1.838975
     54          1           0        0.955959   -2.298220   -2.140993
     55          7           0        3.009236    1.759863   -0.922469
     56          1           0        2.555301    2.170549   -0.093189
     57          6           0        4.018869    2.588299   -1.604927
     58          1           0        4.811584    1.926607   -1.967280
     59          6           0        4.591882    3.495152   -0.509578
     60          6           0        3.483320    3.433968   -2.786979
     61          1           0        4.291169    4.126464   -3.051046
     62          1           0        2.641739    4.044774   -2.437117
     63          8           0        4.077998    3.644911    0.574756
     64          6           0        3.087603    2.610758   -4.019770
     65          1           0        3.879532    1.881976   -4.239395
     66          1           0        2.177663    2.033641   -3.817585
     67          6           0        2.857457    3.472413   -5.275249
     68          1           0        2.080912    4.219310   -5.091176
     69          1           0        3.770615    4.016749   -5.539645
     70          7           0        2.466281    2.664818   -6.441778
     71          1           0        3.192764    2.007087   -6.707165
     72          7           0        0.163583    2.942793   -6.198835
     73          1           0       -0.737526    2.539467   -6.432103
     74          1           0        0.286535    3.856914   -6.621407
     75          7           0        0.948645    0.806589   -6.634609
     76          1           0        1.807497    0.258825   -6.697737
     77          6           0        1.206173    2.057379   -6.447923
     78          8           0        5.707924    4.104496   -0.927517
     79          1           0        2.743606   -0.946706   -2.384317
     80          1           0        6.019902    4.688676   -0.208448
     81          1           0       -6.901427    1.288697    6.107023
 ---------------------------------------------------------------------

 SCF Done:  E(RB3LYP) =  -2053.91270048     A.U. after    1 cycles

 Alpha  occ. eigenvalues --  -19.35764 -19.32759 -19.31657 -19.27384 -19.25457
 Alpha  occ. eigenvalues --  -19.24148 -19.19335 -19.18336 -14.54377 -14.49548
 Alpha  occ. eigenvalues --  -14.46372 -14.45508 -14.44872 -14.44430 -14.40031
 Alpha  occ. eigenvalues --  -14.38816 -10.48423 -10.45627 -10.41930 -10.39875
 Alpha  occ. eigenvalues --  -10.39783 -10.39162 -10.39045 -10.36708 -10.36256
 Alpha  occ. eigenvalues --  -10.33665 -10.33335 -10.32664 -10.31874 -10.31001
 Alpha  occ. eigenvalues --  -10.30797 -10.30735 -10.29600 -10.28995 -10.28948
 Alpha  occ. eigenvalues --  -10.28601 -10.28478 -10.28456 -10.27886 -10.27841
 Alpha  occ. eigenvalues --  -10.25325 -10.24942  -1.26556  -1.23927  -1.18081
 Alpha  occ. eigenvalues --   -1.17173  -1.15345  -1.14961  -1.11589  -1.11315
 Alpha  occ. eigenvalues --   -1.08396  -1.07037  -1.06460  -1.05891  -1.01045
 Alpha  occ. eigenvalues --   -0.99398  -0.95983  -0.95410  -0.94858  -0.93631
 Alpha  occ. eigenvalues --   -0.92444  -0.89802  -0.88072  -0.86115  -0.85121
 Alpha  occ. eigenvalues --   -0.84576  -0.83044  -0.81600  -0.80767  -0.78933
 Alpha  occ. eigenvalues --   -0.77431  -0.77124  -0.76387  -0.74517  -0.72942
 Alpha  occ. eigenvalues --   -0.72423  -0.71726  -0.70746  -0.69960  -0.69297
 Alpha  occ. eigenvalues --   -0.68765  -0.68502  -0.67262  -0.66041  -0.65470
 Alpha  occ. eigenvalues --   -0.65188  -0.65007  -0.64232  -0.62805  -0.62190
 Alpha  occ. eigenvalues --   -0.61976  -0.61383  -0.60346  -0.59861  -0.59160
 Alpha  occ. eigenvalues --   -0.58961  -0.58500  -0.58049  -0.57910  -0.57215
 Alpha  occ. eigenvalues --   -0.57006  -0.56743  -0.56436  -0.55766  -0.55546
 Alpha  occ. eigenvalues --   -0.54980  -0.54574  -0.54533  -0.54268  -0.53863
 Alpha  occ. eigenvalues --   -0.53418  -0.52880  -0.52689  -0.52597  -0.52056
 Alpha  occ. eigenvalues --   -0.51714  -0.51533  -0.51282  -0.50939  -0.50599
 Alpha  occ. eigenvalues --   -0.50096  -0.49792  -0.49779  -0.48986  -0.48312
 Alpha  occ. eigenvalues --   -0.48193  -0.48128  -0.47835  -0.47492  -0.47057
 Alpha  occ. eigenvalues --   -0.46091  -0.46038  -0.45124  -0.44824  -0.44680
 Alpha  occ. eigenvalues --   -0.44569  -0.44158  -0.43698  -0.43173  -0.42612
 Alpha  occ. eigenvalues --   -0.42134  -0.41888  -0.41145  -0.40472  -0.39695
 Alpha  occ. eigenvalues --   -0.39056  -0.38583  -0.37349  -0.36267  -0.36210
 Alpha  occ. eigenvalues --   -0.34205  -0.33599  -0.33514  -0.32230  -0.31801
 Alpha  occ. eigenvalues --   -0.30444  -0.29866
 Alpha virt. eigenvalues --   -0.17748  -0.12258  -0.11702  -0.10730  -0.07848
 Alpha virt. eigenvalues --   -0.07024  -0.06779  -0.05719  -0.04280  -0.04032
 Alpha virt. eigenvalues --   -0.03707  -0.03595  -0.03183  -0.01699  -0.01270

 Mulliken charges:
               1
     1  N   -0.711382
     2  H    0.313671
     3  H    0.295723
     4  C   -0.071434
     5  H    0.115323
     6  C    0.642536
     7  C   -0.260821
     8  H    0.141715
     9  H    0.200273
    10  O   -0.516982
    11  C   -0.358933
    12  H    0.162881
    13  H    0.192531
    14  C    0.566775
    15  O   -0.458030
    16  O   -0.556999
    17  N   -0.625590
    18  H    0.346284
    19  C   -0.056791
    20  H    0.195099
    21  C    0.619855
    22  C   -0.335734
    23  H    0.152479
    24  H    0.208078
    25  O   -0.543661
    26  C    0.065620
    27  C   -0.029662
    28  H    0.176184
    29  C   -0.017859
    30  C    0.318870
    31  C   -0.234799
    32  H    0.173928
    33  N   -0.706163
    34  H    0.386901
    35  C   -0.162036
    36  H    0.155823
    37  C   -0.212253
    38  H    0.155630
    39  C   -0.144155
    40  H    0.154363
    41  N   -0.622533
    42  H    0.374583
    43  C   -0.062270
    44  H    0.219336
    45  C    0.647744
    46  C    0.066918
    47  H    0.192479
    48  O   -0.569592
    49  C   -0.483560
    50  H    0.185329
    51  H    0.200834
    52  H    0.179974
    53  O   -0.668161
    54  H    0.439643
    55  N   -0.569801
    56  H    0.426817
    57  C   -0.069696
    58  H    0.215939
    59  C    0.596816
    60  C   -0.281891
    61  H    0.192362
    62  H    0.174072
    63  O   -0.437016
    64  C   -0.280177
    65  H    0.147618
    66  H    0.160089
    67  C   -0.158629
    68  H    0.172928
    69  H    0.172721
    70  N   -0.568466
    71  H    0.322127
    72  N   -0.738100
    73  H    0.354852
    74  H    0.349122
    75  N   -0.663565
    76  H    0.283148
    77  C    0.570106
    78  O   -0.552093
    79  H    0.486602
    80  H    0.442260
    81  H    0.413868
 Sum of Mulliken charges =   1.00000

 Dipole moment (field-independent basis, Debye):
    X=             12.7966    Y=              6.7176    Z=            -11.3365  Tot=             18.3684
 Quadrupole moment (field-independent basis, Debye-Ang):
   XX=           -193.1912   YY=           -177.4513   ZZ=           -205.6262
   XY=             22.2711   XZ=            -28.6868   YZ=            -20.1219

 Normal termination of Gaussian 16 at Thu May 26 18:18:22 2022.
