 Gaussian 16, Revision C.01,
 Gaussian 16:  ES64L-G16RevC.01  3-Jul-2019

 -------------------------------------------------------------------
 # B3LYP/6-31G* guess=read geom=check nosymm integral(ultrafinegrid)
 -------------------------------------------------------------------

 ------------------------------------------------------
 Candidate Structure: Conf:772 Charge calc in gas phase
 ------------------------------------------------------
 Structure from the checkpoint file:  "conf-772.chk"
 Charge =  1 Multiplicity = 1

                          Input orientation:
 ---------------------------------------------------------------------
 Center     Atomic      Atomic             Coordinates (Angstroms)
 Number     Number       Type             X           Y           Z
 ---------------------------------------------------------------------
      1          7           0       -3.974639   -1.127998    3.213511
      2          1           0       -4.474606   -1.515740    2.415035
      3          1           0       -3.120950   -1.674451    3.320800
      4          6           0       -3.631767    0.273117    2.984972
      5          1           0       -4.562895    0.803870    2.749519
      6          6           0       -2.657294    0.414360    1.801567
      7          6           0       -3.034523    0.870033    4.273179
      8          1           0       -3.652320    0.505964    5.099822
      9          1           0       -2.024104    0.472306    4.423391
     10          8           0       -1.602272   -0.260078    1.778840
     11          6           0       -3.002647    2.410320    4.283903
     12          1           0       -4.016129    2.815311    4.220105
     13          1           0       -2.423903    2.790567    3.433574
     14          6           0       -2.390336    2.945488    5.562035
     15          8           0       -2.991310    3.473825    6.465009
     16          8           0       -1.044373    2.734142    5.599783
     17          7           0       -3.018299    1.248895    0.804621
     18          1           0       -3.953650    1.646116    0.855404
     19          6           0       -2.448022    1.299972   -0.556151
     20          1           0       -2.386653    0.268614   -0.926236
     21          6           0       -1.014737    1.894524   -0.557018
     22          6           0       -3.373209    2.137841   -1.467450
     23          1           0       -3.006902    2.017771   -2.493965
     24          1           0       -3.229628    3.193954   -1.217966
     25          8           0       -0.745773    3.027826   -0.914276
     26          6           0       -4.823307    1.765629   -1.364804
     27          6           0       -5.827936    2.563624   -0.861473
     28          1           0       -5.778814    3.580352   -0.493983
     29          6           0       -5.448769    0.525612   -1.764953
     30          6           0       -6.834476    0.645355   -1.473645
     31          6           0       -4.980113   -0.665907   -2.348574
     32          1           0       -3.930030   -0.785270   -2.605073
     33          7           0       -7.031230    1.896294   -0.920313
     34          1           0       -7.924883    2.286810   -0.662482
     35          6           0       -7.252512   -1.545404   -2.310551
     36          1           0       -7.934306   -2.360707   -2.533006
     37          6           0       -7.747868   -0.380684   -1.738229
     38          1           0       -8.804303   -0.270817   -1.510305
     39          6           0       -5.882640   -1.686648   -2.615110
     40          1           0       -5.533414   -2.608258   -3.071311
     41          7           0       -0.069660    0.983365   -0.135858
     42          1           0       -0.468920    0.194943    0.381066
     43          6           0        1.255032    1.419062    0.275097
     44          1           0        1.441956    2.391645   -0.189867
     45          6           0        2.242137    0.382584   -0.240436
     46          6           0        1.391246    1.517939    1.823110
     47          1           0        2.443943    1.698398    2.067074
     48          8           0        2.443479   -0.696926    0.446889
     49          6           0        0.530922    2.606923    2.439132
     50          1           0        0.877633    3.592604    2.113418
     51          1           0        0.583814    2.556887    3.529494
     52          1           0       -0.516195    2.507105    2.140225
     53          8           0        1.117095    0.205116    2.374751
     54          1           0        0.143851    0.041822    2.395235
     55          7           0        2.872375    0.541171   -1.376756
     56          1           0        2.730472    1.417041   -1.869060
     57          6           0        3.853096   -0.399786   -1.943097
     58          1           0        3.578446   -1.398948   -1.594802
     59          6           0        5.276985   -0.142209   -1.422921
     60          6           0        3.827520   -0.368963   -3.484021
     61          1           0        2.865502   -0.768515   -3.826092
     62          1           0        4.600772   -1.075246   -3.804093
     63          8           0        6.213028   -0.815971   -1.768456
     64          6           0        4.094793    1.012471   -4.100255
     65          1           0        3.236184    1.684541   -3.948327
     66          1           0        4.967361    1.482419   -3.631222
     67          6           0        4.374301    0.927231   -5.614380
     68          1           0        5.245861    0.283902   -5.774644
     69          1           0        3.536112    0.446626   -6.131482
     70          7           0        4.595475    2.216721   -6.259792
     71          1           0        3.745236    2.709007   -6.504191
     72          7           0        6.777636    2.421301   -5.433630
     73          1           0        7.515942    3.100550   -5.278414
     74          1           0        7.086755    1.693346   -6.071323
     75          7           0        5.577908    4.365432   -5.826639
     76          1           0        4.642374    4.719079   -6.036142
     77          6           0        5.617721    3.085455   -5.853214
     78          8           0        5.349300    0.895544   -0.565104
     79          1           0        1.911263   -0.614674    1.327316
     80          1           0        6.286418    0.980313   -0.299998
     81          1           0       -0.740317    3.076514    6.462164
 ---------------------------------------------------------------------

 SCF Done:  E(RB3LYP) =  -2053.90525891     A.U. after    1 cycles

 Alpha  occ. eigenvalues --  -19.35290 -19.32022 -19.30344 -19.27848 -19.25850
 Alpha  occ. eigenvalues --  -19.25271 -19.24565 -19.21872 -14.55200 -14.49096
 Alpha  occ. eigenvalues --  -14.48515 -14.46597 -14.42630 -14.41453 -14.40785
 Alpha  occ. eigenvalues --  -14.35190 -10.48360 -10.44410 -10.41355 -10.41314
 Alpha  occ. eigenvalues --  -10.40181 -10.38906 -10.38690 -10.38298 -10.35609
 Alpha  occ. eigenvalues --  -10.34763 -10.33182 -10.31557 -10.31526 -10.31108
 Alpha  occ. eigenvalues --  -10.30204 -10.29733 -10.29728 -10.29594 -10.29229
 Alpha  occ. eigenvalues --  -10.28844 -10.27617 -10.26910 -10.26833 -10.26759
 Alpha  occ. eigenvalues --  -10.26214 -10.25963  -1.26385  -1.22761  -1.18416
 Alpha  occ. eigenvalues --   -1.17338  -1.16391  -1.15854  -1.13899  -1.12136
 Alpha  occ. eigenvalues --   -1.09495  -1.06569  -1.05907  -1.05019  -1.04545
 Alpha  occ. eigenvalues --   -0.99008  -0.96115  -0.94377  -0.92106  -0.91740
 Alpha  occ. eigenvalues --   -0.90965  -0.90228  -0.88752  -0.86852  -0.86082
 Alpha  occ. eigenvalues --   -0.84257  -0.81652  -0.81018  -0.80757  -0.80116
 Alpha  occ. eigenvalues --   -0.78128  -0.77040  -0.75527  -0.74702  -0.73161
 Alpha  occ. eigenvalues --   -0.71428  -0.70940  -0.70434  -0.70003  -0.69271
 Alpha  occ. eigenvalues --   -0.68412  -0.67961  -0.67597  -0.66997  -0.66098
 Alpha  occ. eigenvalues --   -0.65215  -0.65063  -0.62776  -0.62491  -0.62329
 Alpha  occ. eigenvalues --   -0.61817  -0.61436  -0.60439  -0.59971  -0.59758
 Alpha  occ. eigenvalues --   -0.58897  -0.58398  -0.58089  -0.58002  -0.57201
 Alpha  occ. eigenvalues --   -0.56979  -0.56613  -0.56331  -0.56221  -0.55196
 Alpha  occ. eigenvalues --   -0.55110  -0.54877  -0.54066  -0.53738  -0.53481
 Alpha  occ. eigenvalues --   -0.53347  -0.52963  -0.52448  -0.52078  -0.51890
 Alpha  occ. eigenvalues --   -0.51806  -0.51315  -0.51064  -0.50847  -0.50738
 Alpha  occ. eigenvalues --   -0.50131  -0.49950  -0.49694  -0.49472  -0.49189
 Alpha  occ. eigenvalues --   -0.48898  -0.48092  -0.47896  -0.47651  -0.47029
 Alpha  occ. eigenvalues --   -0.46721  -0.46109  -0.45908  -0.45505  -0.44883
 Alpha  occ. eigenvalues --   -0.44609  -0.44530  -0.43840  -0.43711  -0.43553
 Alpha  occ. eigenvalues --   -0.43358  -0.41607  -0.41436  -0.40683  -0.40197
 Alpha  occ. eigenvalues --   -0.39825  -0.39134  -0.38077  -0.36743  -0.35784
 Alpha  occ. eigenvalues --   -0.35320  -0.33628  -0.33493  -0.32592  -0.30529
 Alpha  occ. eigenvalues --   -0.29546  -0.29026
 Alpha virt. eigenvalues --   -0.17386  -0.11523  -0.11181  -0.10883  -0.09365
 Alpha virt. eigenvalues --   -0.07288  -0.07181  -0.05644  -0.03684  -0.03549
 Alpha virt. eigenvalues --   -0.02617  -0.01975  -0.01855  -0.01528  -0.01448

 Mulliken charges:
               1
     1  N   -0.688259
     2  H    0.316891
     3  H    0.318171
     4  C   -0.062329
     5  H    0.151949
     6  C    0.619748
     7  C   -0.283460
     8  H    0.197455
     9  H    0.164247
    10  O   -0.602841
    11  C   -0.349674
    12  H    0.183367
    13  H    0.161316
    14  C    0.566504
    15  O   -0.430029
    16  O   -0.572130
    17  N   -0.597058
    18  H    0.352324
    19  C   -0.061500
    20  H    0.186605
    21  C    0.626384
    22  C   -0.383490
    23  H    0.179836
    24  H    0.188506
    25  O   -0.490258
    26  C    0.018851
    27  C   -0.009259
    28  H    0.168812
    29  C    0.093983
    30  C    0.309008
    31  C   -0.214746
    32  H    0.115909
    33  N   -0.681233
    34  H    0.344013
    35  C   -0.149132
    36  H    0.147390
    37  C   -0.157457
    38  H    0.144816
    39  C   -0.137340
    40  H    0.137679
    41  N   -0.626408
    42  H    0.368387
    43  C   -0.109535
    44  H    0.215119
    45  C    0.686072
    46  C    0.101347
    47  H    0.185797
    48  O   -0.563606
    49  C   -0.495332
    50  H    0.184366
    51  H    0.212986
    52  H    0.166464
    53  O   -0.683764
    54  H    0.462459
    55  N   -0.566696
    56  H    0.388830
    57  C   -0.084878
    58  H    0.232437
    59  C    0.617001
    60  C   -0.297473
    61  H    0.168069
    62  H    0.205349
    63  O   -0.420342
    64  C   -0.303734
    65  H    0.124029
    66  H    0.192310
    67  C   -0.137837
    68  H    0.167415
    69  H    0.158405
    70  N   -0.581487
    71  H    0.316579
    72  N   -0.744258
    73  H    0.345731
    74  H    0.329928
    75  N   -0.619213
    76  H    0.266926
    77  C    0.543356
    78  O   -0.574811
    79  H    0.487093
    80  H    0.438786
    81  H    0.420566
 Sum of Mulliken charges =   1.00000

 Dipole moment (field-independent basis, Debye):
    X=             -0.7182    Y=              3.0946    Z=             -2.8185  Tot=              4.2469
 Quadrupole moment (field-independent basis, Debye-Ang):
   XX=           -147.2583   YY=           -245.0114   ZZ=           -218.7246
   XY=            -11.0767   XZ=             -0.0244   YZ=             12.3844

 Normal termination of Gaussian 16 at Thu May 26 18:18:23 2022.
