 Gaussian 16, Revision C.01,
 Gaussian 16:  ES64L-G16RevC.01  3-Jul-2019

 -------------------------------------------------------------------
 # B3LYP/6-31G* guess=read geom=check nosymm integral(ultrafinegrid)
 -------------------------------------------------------------------

 ------------------------------------------------------
 Candidate Structure: Conf:602 Charge calc in gas phase
 ------------------------------------------------------
 Structure from the checkpoint file:  "conf-602.chk"
 Charge =  1 Multiplicity = 1

                          Input orientation:
 ---------------------------------------------------------------------
 Center     Atomic      Atomic             Coordinates (Angstroms)
 Number     Number       Type             X           Y           Z
 ---------------------------------------------------------------------
      1          7           0       -4.571008   -0.251183    3.176655
      2          1           0       -5.019360   -1.076492    2.781117
      3          1           0       -5.128999    0.036809    3.975284
      4          6           0       -3.184940   -0.545571    3.567612
      5          1           0       -2.937421    0.101705    4.420473
      6          6           0       -2.217881   -0.103192    2.456763
      7          6           0       -2.901645   -2.006640    3.967407
      8          1           0       -3.198459   -2.669231    3.144441
      9          1           0       -1.821860   -2.127187    4.098601
     10          8           0       -1.006780   -0.373864    2.482059
     11          6           0       -3.637130   -2.417818    5.254680
     12          1           0       -4.719102   -2.288869    5.127263
     13          1           0       -3.313699   -1.805120    6.100885
     14          6           0       -3.373708   -3.864796    5.622897
     15          8           0       -2.780869   -4.244943    6.604220
     16          8           0       -3.883052   -4.709186    4.689851
     17          7           0       -2.770188    0.635096    1.471246
     18          1           0       -3.766834    0.824862    1.573656
     19          6           0       -2.004308    1.139865    0.346301
     20          1           0       -1.858263    0.349330   -0.401520
     21          6           0       -0.634021    1.555649    0.832582
     22          6           0       -2.734966    2.331387   -0.342113
     23          1           0       -2.909906    3.106571    0.412377
     24          1           0       -3.718231    1.954222   -0.648201
     25          8           0       -0.591741    2.397528    1.826074
     26          6           0       -1.988693    2.885908   -1.519967
     27          6           0       -2.064905    2.442810   -2.823583
     28          1           0       -2.679993    1.659045   -3.247164
     29          6           0       -1.030220    3.965711   -1.514196
     30          6           0       -0.577469    4.118139   -2.855161
     31          6           0       -0.520014    4.827994   -0.523594
     32          1           0       -0.862265    4.757510    0.505349
     33          7           0       -1.225660    3.174307   -3.626643
     34          1           0       -1.047021    2.999198   -4.623035
     35          6           0        0.845851    5.926887   -2.219839
     36          1           0        1.558060    6.706771   -2.473287
     37          6           0        0.352995    5.100062   -3.222600
     38          1           0        0.654848    5.230369   -4.258012
     39          6           0        0.414199    5.791501   -0.883171
     40          1           0        0.802868    6.470078   -0.129090
     41          7           0        0.438975    1.135817    0.216257
     42          1           0        0.368236    0.438251   -0.530791
     43          6           0        1.829125    1.518505    0.482668
     44          1           0        1.882128    2.609973    0.577334
     45          6           0        2.592703    1.023151   -0.771616
     46          6           0        2.339812    0.850437    1.797653
     47          1           0        2.374663   -0.233636    1.638256
     48          8           0        2.117157    0.095110   -1.427985
     49          6           0        3.696452    1.371710    2.249940
     50          1           0        4.481276    1.153974    1.520722
     51          1           0        3.964982    0.893625    3.195264
     52          1           0        3.659549    2.453924    2.418949
     53          8           0        1.389429    1.136771    2.843365
     54          1           0        0.268509    2.243872    2.336369
     55          7           0        3.745891    1.646182   -1.056870
     56          1           0        4.109997    2.387264   -0.464940
     57          6           0        4.648008    1.212012   -2.124287
     58          1           0        4.777315    0.125295   -2.054466
     59          6           0        5.992316    1.867848   -1.820622
     60          6           0        4.131776    1.535495   -3.545699
     61          1           0        3.205326    0.972440   -3.686775
     62          1           0        4.859102    1.133126   -4.259518
     63          8           0        6.172688    2.650168   -0.909988
     64          6           0        3.900422    3.028447   -3.810547
     65          1           0        3.250656    3.455608   -3.034195
     66          1           0        4.849407    3.576790   -3.755080
     67          6           0        3.276556    3.314880   -5.180164
     68          1           0        3.200706    4.406085   -5.312863
     69          1           0        3.927449    2.937876   -5.978948
     70          7           0        1.972564    2.670469   -5.307706
     71          1           0        1.447373    2.622818   -4.440658
     72          7           0       -0.114667    2.342191   -6.291824
     73          1           0       -0.615585    2.496673   -7.164639
     74          1           0       -0.047801    1.340180   -6.117056
     75          7           0        1.451862    3.590710   -7.477037
     76          1           0        2.358157    4.055669   -7.422595
     77          6           0        1.177402    2.929186   -6.420553
     78          8           0        6.940397    1.481239   -2.683030
     79          1           0        0.747328    0.396932    2.918974
     80          1           0        7.769683    1.934751   -2.435490
     81          1           0       -3.672489   -5.613844    4.990564
 ---------------------------------------------------------------------

 SCF Done:  E(RB3LYP) =  -2053.93434200     A.U. after    1 cycles

 Alpha  occ. eigenvalues --  -19.33405 -19.30840 -19.29218 -19.26777 -19.25555
 Alpha  occ. eigenvalues --  -19.25098 -19.24410 -19.21039 -14.53319 -14.48946
 Alpha  occ. eigenvalues --  -14.48246 -14.45834 -14.43774 -14.43564 -14.43191
 Alpha  occ. eigenvalues --  -14.36979 -10.47042 -10.43530 -10.42442 -10.40855
 Alpha  occ. eigenvalues --  -10.39387 -10.38167 -10.38110 -10.37716 -10.36170
 Alpha  occ. eigenvalues --  -10.35468 -10.33924 -10.31668 -10.31156 -10.31083
 Alpha  occ. eigenvalues --  -10.30507 -10.29349 -10.29076 -10.29069 -10.28709
 Alpha  occ. eigenvalues --  -10.28655 -10.27867 -10.27469 -10.27438 -10.27328
 Alpha  occ. eigenvalues --  -10.26926 -10.26672  -1.24674  -1.22025  -1.17551
 Alpha  occ. eigenvalues --   -1.17302  -1.16030  -1.15748  -1.13211  -1.10188
 Alpha  occ. eigenvalues --   -1.08633  -1.06445  -1.05847  -1.05462  -1.05355
 Alpha  occ. eigenvalues --   -1.00516  -0.97489  -0.93767  -0.92613  -0.92325
 Alpha  occ. eigenvalues --   -0.91392  -0.89828  -0.88522  -0.87312  -0.85324
 Alpha  occ. eigenvalues --   -0.84295  -0.82191  -0.81790  -0.80721  -0.78700
 Alpha  occ. eigenvalues --   -0.77501  -0.76447  -0.74788  -0.74067  -0.73042
 Alpha  occ. eigenvalues --   -0.72031  -0.71876  -0.70777  -0.69985  -0.68553
 Alpha  occ. eigenvalues --   -0.67929  -0.67703  -0.67404  -0.66549  -0.66026
 Alpha  occ. eigenvalues --   -0.64883  -0.63769  -0.62939  -0.62707  -0.62306
 Alpha  occ. eigenvalues --   -0.61355  -0.60623  -0.60074  -0.59947  -0.59484
 Alpha  occ. eigenvalues --   -0.59054  -0.58497  -0.58084  -0.57474  -0.57129
 Alpha  occ. eigenvalues --   -0.56832  -0.56553  -0.55923  -0.55675  -0.55345
 Alpha  occ. eigenvalues --   -0.55069  -0.54725  -0.54342  -0.53987  -0.53403
 Alpha  occ. eigenvalues --   -0.53172  -0.52920  -0.52233  -0.52159  -0.52008
 Alpha  occ. eigenvalues --   -0.51873  -0.51512  -0.51194  -0.50842  -0.50626
 Alpha  occ. eigenvalues --   -0.50366  -0.49999  -0.49431  -0.49379  -0.49259
 Alpha  occ. eigenvalues --   -0.48986  -0.48772  -0.47372  -0.46949  -0.46206
 Alpha  occ. eigenvalues --   -0.46187  -0.45770  -0.45291  -0.45219  -0.45018
 Alpha  occ. eigenvalues --   -0.44435  -0.44208  -0.44000  -0.43578  -0.42974
 Alpha  occ. eigenvalues --   -0.42235  -0.41963  -0.41624  -0.39508  -0.39207
 Alpha  occ. eigenvalues --   -0.38930  -0.38849  -0.38491  -0.38113  -0.36406
 Alpha  occ. eigenvalues --   -0.35626  -0.35553  -0.34371  -0.34269  -0.31521
 Alpha  occ. eigenvalues --   -0.30984  -0.29304
 Alpha virt. eigenvalues --   -0.16057  -0.11356  -0.10508  -0.10057  -0.09960
 Alpha virt. eigenvalues --   -0.06351  -0.06097  -0.04387  -0.03735  -0.03434
 Alpha virt. eigenvalues --   -0.03120  -0.02800  -0.02379  -0.01918  -0.01165

 Mulliken charges:
               1
     1  N   -0.758278
     2  H    0.328023
     3  H    0.337790
     4  C   -0.072857
     5  H    0.186397
     6  C    0.648840
     7  C   -0.291112
     8  H    0.167304
     9  H    0.185504
    10  O   -0.588578
    11  C   -0.339297
    12  H    0.162815
    13  H    0.181379
    14  C    0.564599
    15  O   -0.437932
    16  O   -0.564494
    17  N   -0.615687
    18  H    0.380423
    19  C    0.021041
    20  H    0.180559
    21  C    0.664159
    22  C   -0.401035
    23  H    0.193544
    24  H    0.182389
    25  O   -0.581297
    26  C    0.034819
    27  C   -0.000869
    28  H    0.159613
    29  C    0.076733
    30  C    0.287763
    31  C   -0.233611
    32  H    0.136037
    33  N   -0.702732
    34  H    0.390611
    35  C   -0.155083
    36  H    0.143732
    37  C   -0.181507
    38  H    0.156320
    39  C   -0.147037
    40  H    0.138624
    41  N   -0.565748
    42  H    0.395398
    43  C   -0.112995
    44  H    0.203418
    45  C    0.632013
    46  C    0.131832
    47  H    0.178379
    48  O   -0.528639
    49  C   -0.467343
    50  H    0.171592
    51  H    0.198508
    52  H    0.171056
    53  O   -0.670338
    54  H    0.469185
    55  N   -0.620432
    56  H    0.370501
    57  C   -0.043692
    58  H    0.210383
    59  C    0.592431
    60  C   -0.274166
    61  H    0.187191
    62  H    0.179827
    63  O   -0.465759
    64  C   -0.321662
    65  H    0.152677
    66  H    0.161697
    67  C   -0.126470
    68  H    0.152551
    69  H    0.170587
    70  N   -0.604015
    71  H    0.326330
    72  N   -0.790993
    73  H    0.354377
    74  H    0.334184
    75  N   -0.615880
    76  H    0.294345
    77  C    0.567726
    78  O   -0.552742
    79  H    0.461314
    80  H    0.435504
    81  H    0.420257
 Sum of Mulliken charges =   1.00000

 Dipole moment (field-independent basis, Debye):
    X=              1.5882    Y=              4.6319    Z=             -0.4681  Tot=              4.9189
 Quadrupole moment (field-independent basis, Debye-Ang):
   XX=           -147.1690   YY=           -225.6858   ZZ=           -222.9081
   XY=             29.5201   XZ=            -36.1055   YZ=             -2.5913

 Normal termination of Gaussian 16 at Thu May 26 18:18:21 2022.
