 Gaussian 16, Revision C.01,
 Gaussian 16:  ES64L-G16RevC.01  3-Jul-2019

 -------------------------------------------------------------------
 # B3LYP/6-31G* guess=read geom=check nosymm integral(ultrafinegrid)
 -------------------------------------------------------------------

 ------------------------------------------------------
 Candidate Structure: Conf:966 Charge calc in gas phase
 ------------------------------------------------------
 Structure from the checkpoint file:  "conf-966.chk"
 Charge =  1 Multiplicity = 1

                          Input orientation:
 ---------------------------------------------------------------------
 Center     Atomic      Atomic             Coordinates (Angstroms)
 Number     Number       Type             X           Y           Z
 ---------------------------------------------------------------------
      1          7           0       -3.637519   -1.201186    3.299204
      2          1           0       -4.265482   -1.472229    2.545067
      3          1           0       -2.871850   -1.874046    3.294752
      4          6           0       -3.108423    0.135778    3.075552
      5          1           0       -3.945675    0.793564    2.821058
      6          6           0       -2.079799    0.191393    1.934510
      7          6           0       -2.452376    0.666947    4.373338
      8          1           0       -1.708499   -0.070877    4.701238
      9          1           0       -1.916497    1.599915    4.166005
     10          8           0       -1.314772   -0.774358    1.722251
     11          6           0       -3.465476    0.878641    5.502531
     12          1           0       -2.951625    0.981888    6.465435
     13          1           0       -4.106681   -0.005065    5.594438
     14          6           0       -4.379748    2.083672    5.387397
     15          8           0       -5.215874    2.388399    6.202177
     16          8           0       -4.172483    2.826475    4.257013
     17          7           0       -2.032453    1.341680    1.224676
     18          1           0       -2.776252    2.010643    1.405752
     19          6           0       -1.349982    1.551877   -0.065082
     20          1           0       -1.531930    0.660001   -0.680221
     21          6           0        0.188743    1.685574    0.088129
     22          6           0       -1.936989    2.796602   -0.766381
     23          1           0       -1.478449    2.851267   -1.760401
     24          1           0       -1.596240    3.689874   -0.231482
     25          8           0        0.825296    2.660337   -0.311700
     26          6           0       -3.434027    2.785035   -0.860595
     27          6           0       -4.289802    3.666921   -0.238814
     28          1           0       -4.062184    4.522996    0.383014
     29          6           0       -4.263445    1.870088   -1.610667
     30          6           0       -5.613222    2.258935   -1.393687
     31          6           0       -4.002864    0.772997   -2.452546
     32          1           0       -2.982388    0.458971   -2.659531
     33          7           0       -5.594853    3.352666   -0.549198
     34          1           0       -6.404020    3.884724   -0.266768
     35          6           0       -6.399605    0.504815   -2.801119
     36          1           0       -7.212171   -0.037939   -3.274770
     37          6           0       -6.690923    1.586377   -1.979495
     38          1           0       -7.716415    1.899127   -1.803910
     39          6           0       -5.068627    0.102689   -3.037634
     40          1           0       -4.878626   -0.742095   -3.693241
     41          7           0        0.747693    0.595371    0.669080
     42          1           0        0.084646   -0.138671    0.953510
     43          6           0        2.145733    0.442803    1.023230
     44          1           0        2.606578    1.425729    1.141701
     45          6           0        2.847834   -0.297987   -0.109749
     46          6           0        2.266314   -0.383802    2.334961
     47          1           0        3.320155   -0.646104    2.474553
     48          8           0        2.651726   -1.581814   -0.240815
     49          6           0        1.752046    0.348474    3.564844
     50          1           0        2.339529    1.254298    3.746260
     51          1           0        1.846783   -0.300512    4.439983
     52          1           0        0.702479    0.636689    3.451641
     53          8           0        1.598653   -1.650809    2.133121
     54          1           0        0.638160   -1.555147    2.297487
     55          7           0        3.584054    0.335728   -0.975001
     56          1           0        3.765353    1.349963   -0.781703
     57          6           0        4.331824   -0.343082   -2.046638
     58          1           0        3.738291   -1.206280   -2.365716
     59          6           0        5.624338   -0.899152   -1.419340
     60          6           0        4.579849    0.577837   -3.257114
     61          1           0        5.219801    0.011859   -3.938179
     62          1           0        5.170236    1.440490   -2.930766
     63          8           0        5.883812   -0.853296   -0.240463
     64          6           0        3.288655    1.031894   -3.994834
     65          1           0        3.306130    0.661321   -5.026743
     66          1           0        2.404127    0.574454   -3.529780
     67          6           0        3.077800    2.558504   -4.035609
     68          1           0        3.916559    3.044909   -4.542576
     69          1           0        2.186277    2.789614   -4.628186
     70          7           0        2.921883    3.158409   -2.714921
     71          1           0        2.093017    2.870970   -2.204947
     72          7           0        3.783736    3.228546   -0.547891
     73          1           0        4.475889    3.725368    0.008834
     74          1           0        2.834001    3.446847   -0.245433
     75          7           0        5.164524    3.935887   -2.265327
     76          1           0        5.242448    4.081359   -3.271838
     77          6           0        4.008804    3.505497   -1.927168
     78          8           0        6.401148   -1.465894   -2.354644
     79          1           0        2.135694   -1.911013    0.559989
     80          1           0        7.195070   -1.817363   -1.906289
     81          1           0       -4.805737    3.567295    4.322151
 ---------------------------------------------------------------------

 SCF Done:  E(RB3LYP) =  -2053.92750996     A.U. after    1 cycles

 Alpha  occ. eigenvalues --  -19.34583 -19.30909 -19.30339 -19.27866 -19.25382
 Alpha  occ. eigenvalues --  -19.25378 -19.25225 -19.21283 -14.52729 -14.48756
 Alpha  occ. eigenvalues --  -14.48636 -14.46571 -14.44808 -14.44296 -14.41071
 Alpha  occ. eigenvalues --  -14.37761 -10.46939 -10.43725 -10.42151 -10.40984
 Alpha  occ. eigenvalues --  -10.39825 -10.38774 -10.38696 -10.37630 -10.37139
 Alpha  occ. eigenvalues --  -10.35766 -10.32599 -10.32078 -10.31074 -10.30436
 Alpha  occ. eigenvalues --  -10.30347 -10.30174 -10.29971 -10.29469 -10.28888
 Alpha  occ. eigenvalues --  -10.28118 -10.27582 -10.26882 -10.26820 -10.26736
 Alpha  occ. eigenvalues --  -10.26186 -10.25935  -1.25292  -1.21970  -1.18209
 Alpha  occ. eigenvalues --   -1.17365  -1.16669  -1.15931  -1.13301  -1.10255
 Alpha  occ. eigenvalues --   -1.09100  -1.07142  -1.06522  -1.06138  -1.04765
 Alpha  occ. eigenvalues --   -0.98747  -0.98448  -0.93729  -0.93672  -0.92028
 Alpha  occ. eigenvalues --   -0.91406  -0.90328  -0.88015  -0.86738  -0.85983
 Alpha  occ. eigenvalues --   -0.84308  -0.81628  -0.80970  -0.79946  -0.79262
 Alpha  occ. eigenvalues --   -0.78395  -0.77200  -0.75434  -0.74477  -0.72803
 Alpha  occ. eigenvalues --   -0.71432  -0.71061  -0.70414  -0.70082  -0.68223
 Alpha  occ. eigenvalues --   -0.67832  -0.67777  -0.67566  -0.67423  -0.66202
 Alpha  occ. eigenvalues --   -0.65361  -0.64271  -0.63209  -0.62887  -0.62317
 Alpha  occ. eigenvalues --   -0.61818  -0.61317  -0.61013  -0.60429  -0.59546
 Alpha  occ. eigenvalues --   -0.59070  -0.58664  -0.58606  -0.57550  -0.56866
 Alpha  occ. eigenvalues --   -0.56775  -0.56714  -0.56370  -0.56187  -0.55822
 Alpha  occ. eigenvalues --   -0.55373  -0.55088  -0.54747  -0.54163  -0.53772
 Alpha  occ. eigenvalues --   -0.53413  -0.52823  -0.52723  -0.52187  -0.51938
 Alpha  occ. eigenvalues --   -0.51725  -0.51437  -0.51095  -0.50997  -0.50821
 Alpha  occ. eigenvalues --   -0.50264  -0.50193  -0.49585  -0.49418  -0.48849
 Alpha  occ. eigenvalues --   -0.48462  -0.48265  -0.47947  -0.47349  -0.46788
 Alpha  occ. eigenvalues --   -0.46593  -0.46287  -0.46017  -0.45507  -0.45086
 Alpha  occ. eigenvalues --   -0.44798  -0.44087  -0.43394  -0.43334  -0.43232
 Alpha  occ. eigenvalues --   -0.42889  -0.41575  -0.41399  -0.40938  -0.39644
 Alpha  occ. eigenvalues --   -0.39263  -0.38925  -0.38510  -0.37269  -0.37125
 Alpha  occ. eigenvalues --   -0.35732  -0.35209  -0.34915  -0.33624  -0.31806
 Alpha  occ. eigenvalues --   -0.30478  -0.28961
 Alpha virt. eigenvalues --   -0.16222  -0.11421  -0.10745  -0.10469  -0.09325
 Alpha virt. eigenvalues --   -0.06614  -0.05612  -0.05203  -0.04630  -0.02838
 Alpha virt. eigenvalues --   -0.02690  -0.02465  -0.01965  -0.01205  -0.01052

 Mulliken charges:
               1
     1  N   -0.691755
     2  H    0.319223
     3  H    0.314146
     4  C   -0.084677
     5  H    0.170857
     6  C    0.615534
     7  C   -0.261158
     8  H    0.146976
     9  H    0.155828
    10  O   -0.591820
    11  C   -0.367869
    12  H    0.194884
    13  H    0.224431
    14  C    0.582790
    15  O   -0.439175
    16  O   -0.590239
    17  N   -0.595381
    18  H    0.357009
    19  C   -0.070692
    20  H    0.195043
    21  C    0.638198
    22  C   -0.381958
    23  H    0.177807
    24  H    0.175846
    25  O   -0.532470
    26  C    0.034511
    27  C   -0.008592
    28  H    0.163082
    29  C    0.092680
    30  C    0.309420
    31  C   -0.213948
    32  H    0.113323
    33  N   -0.683364
    34  H    0.342134
    35  C   -0.149074
    36  H    0.147019
    37  C   -0.157574
    38  H    0.143941
    39  C   -0.136784
    40  H    0.137451
    41  N   -0.635174
    42  H    0.386419
    43  C   -0.091709
    44  H    0.205858
    45  C    0.677417
    46  C    0.087025
    47  H    0.201793
    48  O   -0.572348
    49  C   -0.486220
    50  H    0.180762
    51  H    0.199462
    52  H    0.169894
    53  O   -0.662887
    54  H    0.446841
    55  N   -0.580461
    56  H    0.444780
    57  C   -0.100112
    58  H    0.221646
    59  C    0.615329
    60  C   -0.315550
    61  H    0.201454
    62  H    0.193496
    63  O   -0.450832
    64  C   -0.274332
    65  H    0.170880
    66  H    0.135569
    67  C   -0.162286
    68  H    0.169654
    69  H    0.172446
    70  N   -0.588852
    71  H    0.339912
    72  N   -0.817981
    73  H    0.354911
    74  H    0.367364
    75  N   -0.616004
    76  H    0.293565
    77  C    0.543968
    78  O   -0.551278
    79  H    0.479251
    80  H    0.437554
    81  H    0.413179
 Sum of Mulliken charges =   1.00000

 Dipole moment (field-independent basis, Debye):
    X=              2.2196    Y=              3.6962    Z=             -1.3968  Tot=              4.5321
 Quadrupole moment (field-independent basis, Debye-Ang):
   XX=           -168.2907   YY=           -221.7961   ZZ=           -217.7580
   XY=            -31.1508   XZ=             -5.3964   YZ=              5.0188

 Normal termination of Gaussian 16 at Thu May 26 18:19:34 2022.
