 Gaussian 16, Revision C.01,
 Gaussian 16:  ES64L-G16RevC.01  3-Jul-2019

 -------------------------------------------------------------------
 # B3LYP/6-31G* guess=read geom=check nosymm integral(ultrafinegrid)
 -------------------------------------------------------------------

 ------------------------------------------------------
 Candidate Structure: Conf:302 Charge calc in gas phase
 ------------------------------------------------------
 Structure from the checkpoint file:  "conf-302.chk"
 Charge =  1 Multiplicity = 1

                          Input orientation:
 ---------------------------------------------------------------------
 Center     Atomic      Atomic             Coordinates (Angstroms)
 Number     Number       Type             X           Y           Z
 ---------------------------------------------------------------------
      1          7           0       -3.161504    1.608996    4.457159
      2          1           0       -4.104569    1.437777    4.806595
      3          1           0       -2.652313    2.104233    5.183082
      4          6           0       -2.496011    0.338850    4.128003
      5          1           0       -1.504046    0.322071    4.597988
      6          6           0       -2.214697    0.244990    2.615154
      7          6           0       -3.220277   -0.949523    4.602133
      8          1           0       -2.511733   -1.776209    4.494062
      9          1           0       -3.438609   -0.840320    5.669706
     10          8           0       -1.571971   -0.708531    2.136658
     11          6           0       -4.498167   -1.343118    3.846611
     12          1           0       -4.796437   -2.356639    4.147129
     13          1           0       -4.323664   -1.405410    2.766717
     14          6           0       -5.698804   -0.449553    4.088476
     15          8           0       -5.781933    0.406335    4.950827
     16          8           0       -6.694343   -0.721500    3.231483
     17          7           0       -2.712935    1.259401    1.884911
     18          1           0       -3.165800    1.982907    2.447052
     19          6           0       -2.664921    1.329158    0.425980
     20          1           0       -2.877040    0.322959    0.044276
     21          6           0       -1.237544    1.710429   -0.024882
     22          6           0       -3.709085    2.317352   -0.131067
     23          1           0       -3.453225    2.496110   -1.180743
     24          1           0       -3.580026    3.286155    0.365964
     25          8           0       -0.909389    2.821841   -0.417498
     26          6           0       -5.131785    1.839127   -0.026159
     27          6           0       -5.777950    1.051634   -0.950409
     28          1           0       -5.415828    0.653230   -1.889058
     29          6           0       -6.091985    2.104615    1.019067
     30          6           0       -7.297231    1.436873    0.660178
     31          6           0       -6.066796    2.848290    2.213818
     32          1           0       -5.171377    3.383886    2.519289
     33          7           0       -7.069793    0.802226   -0.541892
     34          1           0       -7.750359    0.266772   -1.058839
     35          6           0       -8.385190    2.218514    2.635116
     36          1           0       -9.264742    2.289351    3.268874
     37          6           0       -8.448667    1.483383    1.454253
     38          1           0       -9.361861    0.975225    1.155881
     39          6           0       -7.204307    2.896630    3.008719
     40          1           0       -7.189642    3.463378    3.934443
     41          7           0       -0.348577    0.657574    0.047527
     42          1           0       -0.651331   -0.177877    0.561447
     43          6           0        1.039388    0.875540   -0.248690
     44          1           0        1.083258    1.838432   -0.772043
     45          6           0        1.666572   -0.246416   -1.081807
     46          6           0        1.839028    1.007387    1.075173
     47          1           0        1.574877    1.942780    1.571749
     48          8           0        1.554994   -1.424487   -0.782664
     49          6           0        1.855525   -0.163522    2.027655
     50          1           0        0.826561   -0.366512    2.346631
     51          1           0        2.452469    0.075861    2.911894
     52          1           0        2.229524   -1.072363    1.550193
     53          8           0        3.344870    1.267427    0.715229
     54          1           0        3.783028    0.505632    0.182266
     55          7           0        2.551193    0.190241   -2.040151
     56          1           0        2.391662    1.081346   -2.493991
     57          6           0        3.402925   -0.778324   -2.717804
     58          1           0        2.804968   -1.630241   -3.060394
     59          6           0        4.420144   -1.378613   -1.750643
     60          6           0        4.139556   -0.152242   -3.920621
     61          1           0        4.849345   -0.902176   -4.286224
     62          1           0        4.737102    0.704148   -3.577127
     63          8           0        5.053890   -2.374052   -1.939987
     64          6           0        3.202152    0.268120   -5.062127
     65          1           0        2.586694   -0.591446   -5.360567
     66          1           0        2.500411    1.051392   -4.743690
     67          6           0        3.982488    0.790935   -6.277634
     68          1           0        4.564644    1.675188   -6.006083
     69          1           0        4.702659    0.024536   -6.605640
     70          7           0        3.083710    1.172749   -7.367261
     71          1           0        2.764609    0.382285   -7.916269
     72          7           0        3.778195    3.409271   -7.462862
     73          1           0        3.891205    4.195423   -8.095035
     74          1           0        3.158417    3.647310   -6.693955
     75          7           0        3.240544    2.354498   -9.457662
     76          1           0        3.077023    1.436299   -9.875523
     77          6           0        3.357068    2.285063   -8.185748
     78          8           0        4.638128   -0.618047   -0.589999
     79          1           0        3.455697    2.093252    0.202883
     80          1           0        5.323803   -1.099622   -0.084476
     81          1           0       -7.396629   -0.051104    3.365668
 ---------------------------------------------------------------------

 SCF Done:  E(RB3LYP) =  -2053.87023594     A.U. after    1 cycles

 Alpha  occ. eigenvalues --  -19.43042 -19.35981 -19.28501 -19.26207 -19.25836
 Alpha  occ. eigenvalues --  -19.22729 -19.21102 -19.20866 -14.50844 -14.46945
 Alpha  occ. eigenvalues --  -14.44994 -14.44976 -14.42270 -14.40437 -14.39629
 Alpha  occ. eigenvalues --  -14.34967 -10.46493 -10.43301 -10.43061 -10.39440
 Alpha  occ. eigenvalues --  -10.39073 -10.38098 -10.37735 -10.37424 -10.34398
 Alpha  occ. eigenvalues --  -10.32949 -10.32029 -10.31751 -10.31114 -10.30898
 Alpha  occ. eigenvalues --  -10.29794 -10.29061 -10.28730 -10.27757 -10.27352
 Alpha  occ. eigenvalues --  -10.27067 -10.25808 -10.25546 -10.25432 -10.25336
 Alpha  occ. eigenvalues --  -10.25203 -10.24679  -1.28911  -1.25014  -1.18314
 Alpha  occ. eigenvalues --   -1.17095  -1.16559  -1.14684  -1.12326  -1.08154
 Alpha  occ. eigenvalues --   -1.07176  -1.04904  -1.04502  -1.04037  -1.01870
 Alpha  occ. eigenvalues --   -0.96763  -0.95792  -0.94569  -0.92562  -0.90641
 Alpha  occ. eigenvalues --   -0.90612  -0.88462  -0.86935  -0.86570  -0.85237
 Alpha  occ. eigenvalues --   -0.83465  -0.80441  -0.80222  -0.79521  -0.78610
 Alpha  occ. eigenvalues --   -0.78509  -0.77542  -0.75605  -0.74016  -0.73161
 Alpha  occ. eigenvalues --   -0.71896  -0.70650  -0.69484  -0.68985  -0.68837
 Alpha  occ. eigenvalues --   -0.67579  -0.66876  -0.66211  -0.65604  -0.65046
 Alpha  occ. eigenvalues --   -0.64922  -0.63395  -0.63269  -0.62236  -0.61180
 Alpha  occ. eigenvalues --   -0.60854  -0.60792  -0.59875  -0.59598  -0.59199
 Alpha  occ. eigenvalues --   -0.58417  -0.58255  -0.57541  -0.57303  -0.57210
 Alpha  occ. eigenvalues --   -0.55827  -0.55637  -0.55478  -0.55248  -0.54992
 Alpha  occ. eigenvalues --   -0.54705  -0.53925  -0.53734  -0.53563  -0.53107
 Alpha  occ. eigenvalues --   -0.52888  -0.52233  -0.51675  -0.51645  -0.51044
 Alpha  occ. eigenvalues --   -0.50850  -0.50707  -0.50307  -0.50221  -0.49919
 Alpha  occ. eigenvalues --   -0.49598  -0.48941  -0.48809  -0.48306  -0.48018
 Alpha  occ. eigenvalues --   -0.47662  -0.47172  -0.47057  -0.46747  -0.46641
 Alpha  occ. eigenvalues --   -0.46628  -0.45390  -0.44541  -0.44442  -0.43678
 Alpha  occ. eigenvalues --   -0.43294  -0.43222  -0.42626  -0.41991  -0.41864
 Alpha  occ. eigenvalues --   -0.40500  -0.40214  -0.40065  -0.39749  -0.38370
 Alpha  occ. eigenvalues --   -0.37895  -0.37074  -0.36130  -0.34597  -0.34400
 Alpha  occ. eigenvalues --   -0.33959  -0.33329  -0.32060  -0.31765  -0.29457
 Alpha  occ. eigenvalues --   -0.28998  -0.27260
 Alpha virt. eigenvalues --   -0.14889  -0.13377  -0.12480  -0.09550  -0.08067
 Alpha virt. eigenvalues --   -0.07601  -0.07011  -0.06786  -0.06191  -0.04892
 Alpha virt. eigenvalues --   -0.04186  -0.02293  -0.01944  -0.01313  -0.00683

 Mulliken charges:
               1
     1  N   -0.799529
     2  H    0.373014
     3  H    0.316719
     4  C   -0.055647
     5  H    0.153076
     6  C    0.607642
     7  C   -0.276018
     8  H    0.168573
     9  H    0.169891
    10  O   -0.580781
    11  C   -0.372590
    12  H    0.197134
    13  H    0.191173
    14  C    0.600043
    15  O   -0.482647
    16  O   -0.564084
    17  N   -0.601726
    18  H    0.389068
    19  C   -0.036737
    20  H    0.181687
    21  C    0.615892
    22  C   -0.391088
    23  H    0.173944
    24  H    0.174365
    25  O   -0.512871
    26  C    0.066467
    27  C    0.008344
    28  H    0.155036
    29  C    0.081609
    30  C    0.330854
    31  C   -0.218229
    32  H    0.126490
    33  N   -0.684515
    34  H    0.338904
    35  C   -0.192073
    36  H    0.145819
    37  C   -0.182261
    38  H    0.141685
    39  C   -0.123391
    40  H    0.140853
    41  N   -0.625657
    42  H    0.398347
    43  C   -0.068150
    44  H    0.182706
    45  C    0.593583
    46  C    0.048428
    47  H    0.226955
    48  O   -0.474791
    49  C   -0.499478
    50  H    0.240419
    51  H    0.191017
    52  H    0.205426
    53  O   -0.654979
    54  H    0.518646
    55  N   -0.652131
    56  H    0.352570
    57  C   -0.014786
    58  H    0.226656
    59  C    0.636066
    60  C   -0.321185
    61  H    0.199481
    62  H    0.150787
    63  O   -0.399767
    64  C   -0.266644
    65  H    0.159718
    66  H    0.134837
    67  C   -0.143080
    68  H    0.183661
    69  H    0.153800
    70  N   -0.595415
    71  H    0.316432
    72  N   -0.733961
    73  H    0.346563
    74  H    0.313869
    75  N   -0.609334
    76  H    0.271395
    77  C    0.541640
    78  O   -0.657085
    79  H    0.473856
    80  H    0.449259
    81  H    0.426228
 Sum of Mulliken charges =   1.00000

 Dipole moment (field-independent basis, Debye):
    X=              5.4238    Y=              3.3766    Z=              0.9499  Tot=              6.4592
 Quadrupole moment (field-independent basis, Debye-Ang):
   XX=           -136.0306   YY=           -244.8204   ZZ=           -219.5648
   XY=             15.4537   XZ=             -4.3593   YZ=             16.8780

 Normal termination of Gaussian 16 at Thu May 26 18:18:32 2022.
