 Gaussian 16, Revision C.01,
 Gaussian 16:  ES64L-G16RevC.01  3-Jul-2019

 -------------------------------------------------------------------
 # B3LYP/6-31G* guess=read geom=check nosymm integral(ultrafinegrid)
 -------------------------------------------------------------------

 ------------------------------------------------------
 Candidate Structure: Conf:747 Charge calc in gas phase
 ------------------------------------------------------
 Structure from the checkpoint file:  "conf-747.chk"
 Charge =  1 Multiplicity = 1

                          Input orientation:
 ---------------------------------------------------------------------
 Center     Atomic      Atomic             Coordinates (Angstroms)
 Number     Number       Type             X           Y           Z
 ---------------------------------------------------------------------
      1          7           0       -5.914392    1.230300    2.990577
      2          1           0       -6.704803    1.765455    3.341500
      3          1           0       -6.200421    0.263058    2.858371
      4          6           0       -5.449360    1.780034    1.722648
      5          1           0       -6.241117    1.856278    0.949730
      6          6           0       -4.472586    0.746562    1.138782
      7          6           0       -4.895537    3.201996    1.936090
      8          1           0       -4.476158    3.592495    0.999511
      9          1           0       -5.740981    3.857827    2.169624
     10          8           0       -4.675097   -0.457333    1.259274
     11          6           0       -3.881892    3.316731    3.081854
     12          1           0       -3.296094    4.239492    2.970699
     13          1           0       -3.166619    2.488787    3.095812
     14          6           0       -4.558020    3.403206    4.438160
     15          8           0       -5.675871    3.825168    4.639271
     16          8           0       -3.727447    3.016444    5.431100
     17          7           0       -3.395607    1.204024    0.416069
     18          1           0       -3.173321    2.187910    0.374733
     19          6           0       -2.481447    0.249353   -0.159069
     20          1           0       -2.598662   -0.680864    0.411477
     21          6           0       -1.075319    0.749870   -0.003854
     22          6           0       -2.818149   -0.097555   -1.664446
     23          1           0       -2.599490    0.771808   -2.294848
     24          1           0       -3.906569   -0.223030   -1.655502
     25          8           0       -0.699391    1.841213    0.313353
     26          6           0       -2.158484   -1.334607   -2.189588
     27          6           0       -1.312842   -1.429058   -3.279889
     28          1           0       -0.952839   -0.653189   -3.941322
     29          6           0       -2.340278   -2.681934   -1.689938
     30          6           0       -1.569168   -3.537298   -2.521212
     31          6           0       -3.093054   -3.241666   -0.638249
     32          1           0       -3.725332   -2.621152   -0.007466
     33          7           0       -0.954276   -2.741705   -3.473504
     34          1           0       -0.390606   -3.077893   -4.240355
     35          6           0       -2.256978   -5.444269   -1.274123
     36          1           0       -2.242708   -6.515263   -1.095622
     37          6           0       -1.513973   -4.920946   -2.325232
     38          1           0       -0.923100   -5.562962   -2.972282
     39          6           0       -3.038929   -4.615726   -0.442728
     40          1           0       -3.618822   -5.064732    0.357961
     41          7           0       -0.022182   -0.294056   -0.368042
     42          1           0       -0.199015   -0.572394   -1.368644
     43          6           0        1.399744    0.149984   -0.223620
     44          1           0        1.454043    0.790224    0.660482
     45          6           0        1.741742    0.907970   -1.519101
     46          6           0        2.247423   -1.145316   -0.025352
     47          1           0        2.283568   -1.671649   -0.985838
     48          8           0        1.128421    0.615372   -2.545197
     49          6           0        3.659299   -0.862679    0.470091
     50          1           0        4.220519   -0.245279   -0.237586
     51          1           0        4.197256   -1.806795    0.594549
     52          1           0        3.640952   -0.343921    1.437996
     53          8           0        1.520885   -2.011188    0.849772
     54          1           0        1.830363   -1.884470    1.762304
     55          7           0        2.728141    1.818560   -1.434826
     56          1           0        3.168524    2.001927   -0.542244
     57          6           0        3.249685    2.539654   -2.599569
     58          1           0        2.784340    2.091802   -3.479715
     59          6           0        4.758426    2.343500   -2.728106
     60          6           0        2.893010    4.047374   -2.541881
     61          1           0        3.454712    4.518328   -1.722614
     62          1           0        1.831003    4.109047   -2.273979
     63          8           0        5.376323    2.455619   -3.756287
     64          6           0        3.132655    4.789764   -3.863130
     65          1           0        4.177144    4.683882   -4.177851
     66          1           0        2.515978    4.337312   -4.649389
     67          6           0        2.774123    6.282968   -3.761125
     68          1           0        1.748962    6.390721   -3.395087
     69          1           0        3.423949    6.781504   -3.031514
     70          7           0        2.895464    7.009625   -5.024787
     71          1           0        3.855740    7.119834   -5.331160
     72          7           0        0.706357    6.525943   -5.704782
     73          1           0        0.122209    6.460836   -6.532690
     74          1           0        0.358977    7.245529   -5.076678
     75          7           0        2.340795    6.674064   -7.342170
     76          1           0        3.352308    6.708886   -7.484177
     77          6           0        2.036137    6.736121   -6.099751
     78          8           0        5.344431    2.085694   -1.527193
     79          1           0       -0.127472   -1.154771    0.202821
     80          1           0        6.306893    2.036156   -1.688832
     81          1           0       -4.220595    3.138826    6.264798
 ---------------------------------------------------------------------

 SCF Done:  E(RB3LYP) =  -2053.88201743     A.U. after    1 cycles

 Alpha  occ. eigenvalues --  -19.32672 -19.31256 -19.30518 -19.26251 -19.25943
 Alpha  occ. eigenvalues --  -19.25072 -19.22047 -19.20101 -14.58554 -14.50532
 Alpha  occ. eigenvalues --  -14.48318 -14.47570 -14.41127 -14.39660 -14.38762
 Alpha  occ. eigenvalues --  -14.34076 -10.47872 -10.43806 -10.43306 -10.39904
 Alpha  occ. eigenvalues --  -10.39838 -10.39043 -10.38646 -10.37644 -10.35808
 Alpha  occ. eigenvalues --  -10.33478 -10.32910 -10.32134 -10.31915 -10.31676
 Alpha  occ. eigenvalues --  -10.31329 -10.29951 -10.29664 -10.29560 -10.28382
 Alpha  occ. eigenvalues --  -10.27987 -10.27798 -10.27724 -10.27594 -10.27361
 Alpha  occ. eigenvalues --  -10.26969 -10.26887  -1.24256  -1.21789  -1.18826
 Alpha  occ. eigenvalues --   -1.17733  -1.16803  -1.14258  -1.12893  -1.12454
 Alpha  occ. eigenvalues --   -1.08236  -1.07762  -1.06848  -1.04341  -1.03171
 Alpha  occ. eigenvalues --   -0.96798  -0.94722  -0.94350  -0.93231  -0.91862
 Alpha  occ. eigenvalues --   -0.90532  -0.89636  -0.88269  -0.86687  -0.85553
 Alpha  occ. eigenvalues --   -0.83471  -0.82846  -0.82259  -0.79728  -0.78976
 Alpha  occ. eigenvalues --   -0.77941  -0.76407  -0.74631  -0.73986  -0.73090
 Alpha  occ. eigenvalues --   -0.72418  -0.71870  -0.71676  -0.70364  -0.69016
 Alpha  occ. eigenvalues --   -0.68803  -0.67766  -0.66253  -0.65917  -0.65651
 Alpha  occ. eigenvalues --   -0.64917  -0.64223  -0.63496  -0.62966  -0.62449
 Alpha  occ. eigenvalues --   -0.60147  -0.60016  -0.59404  -0.59194  -0.59134
 Alpha  occ. eigenvalues --   -0.58742  -0.58540  -0.58090  -0.57743  -0.57418
 Alpha  occ. eigenvalues --   -0.57039  -0.56742  -0.56468  -0.56115  -0.54859
 Alpha  occ. eigenvalues --   -0.54366  -0.54192  -0.53937  -0.53711  -0.53437
 Alpha  occ. eigenvalues --   -0.53189  -0.53081  -0.52275  -0.51968  -0.51922
 Alpha  occ. eigenvalues --   -0.51532  -0.51377  -0.51260  -0.51044  -0.50555
 Alpha  occ. eigenvalues --   -0.50423  -0.49887  -0.49456  -0.49143  -0.48330
 Alpha  occ. eigenvalues --   -0.48120  -0.48003  -0.47797  -0.47149  -0.46942
 Alpha  occ. eigenvalues --   -0.46712  -0.44753  -0.44546  -0.44406  -0.44312
 Alpha  occ. eigenvalues --   -0.43759  -0.43631  -0.43459  -0.42835  -0.42767
 Alpha  occ. eigenvalues --   -0.42706  -0.42573  -0.42381  -0.40644  -0.40305
 Alpha  occ. eigenvalues --   -0.38073  -0.37730  -0.37356  -0.36666  -0.35818
 Alpha  occ. eigenvalues --   -0.34015  -0.32277  -0.31921  -0.31330  -0.31229
 Alpha  occ. eigenvalues --   -0.30491  -0.28432
 Alpha virt. eigenvalues --   -0.18248  -0.12678  -0.10922  -0.10334  -0.08135
 Alpha virt. eigenvalues --   -0.07369  -0.06987  -0.05743  -0.05125  -0.04455
 Alpha virt. eigenvalues --   -0.03597  -0.03195  -0.03097  -0.02350  -0.01511

 Mulliken charges:
               1
     1  N   -0.735176
     2  H    0.327855
     3  H    0.330722
     4  C   -0.055622
     5  H    0.159658
     6  C    0.633694
     7  C   -0.315374
     8  H    0.127347
     9  H    0.195012
    10  O   -0.513074
    11  C   -0.339730
    12  H    0.180286
    13  H    0.163355
    14  C    0.621765
    15  O   -0.472850
    16  O   -0.568637
    17  N   -0.626668
    18  H    0.353999
    19  C   -0.058374
    20  H    0.224605
    21  C    0.581305
    22  C   -0.356653
    23  H    0.171932
    24  H    0.217401
    25  O   -0.387123
    26  C   -0.033148
    27  C    0.006095
    28  H    0.192863
    29  C    0.077862
    30  C    0.307176
    31  C   -0.235814
    32  H    0.179045
    33  N   -0.677504
    34  H    0.347847
    35  C   -0.144526
    36  H    0.152766
    37  C   -0.158297
    38  H    0.147225
    39  C   -0.141062
    40  H    0.151255
    41  N   -0.726436
    42  H    0.428755
    43  C   -0.104870
    44  H    0.201825
    45  C    0.650852
    46  C    0.126156
    47  H    0.188925
    48  O   -0.526536
    49  C   -0.509880
    50  H    0.190259
    51  H    0.207076
    52  H    0.161639
    53  O   -0.623963
    54  H    0.422609
    55  N   -0.599737
    56  H    0.358026
    57  C   -0.071801
    58  H    0.223609
    59  C    0.600217
    60  C   -0.279978
    61  H    0.150637
    62  H    0.165324
    63  O   -0.423729
    64  C   -0.277921
    65  H    0.165339
    66  H    0.174288
    67  C   -0.139384
    68  H    0.154157
    69  H    0.150478
    70  N   -0.580121
    71  H    0.315117
    72  N   -0.744068
    73  H    0.340695
    74  H    0.323020
    75  N   -0.619932
    76  H    0.269125
    77  C    0.541957
    78  O   -0.587386
    79  H    0.424990
    80  H    0.432295
    81  H    0.416936
 Sum of Mulliken charges =   1.00000

 Dipole moment (field-independent basis, Debye):
    X=              5.2716    Y=              1.4710    Z=             -0.4277  Tot=              5.4897
 Quadrupole moment (field-independent basis, Debye-Ang):
   XX=           -186.6504   YY=           -200.6735   ZZ=           -247.0859
   XY=              7.5651   XZ=              5.3736   YZ=             14.7045

 Normal termination of Gaussian 16 at Thu May 26 18:18:22 2022.
