 Gaussian 16, Revision C.01,
 Gaussian 16:  ES64L-G16RevC.01  3-Jul-2019

 -------------------------------------------------------------------
 # B3LYP/6-31G* guess=read geom=check nosymm integral(ultrafinegrid)
 -------------------------------------------------------------------

 -----------------------------------------------------
 Candidate Structure: Conf:95 Charge calc in gas phase
 -----------------------------------------------------
 Structure from the checkpoint file:  "conf-95.chk"
 Charge =  1 Multiplicity = 1

                          Input orientation:
 ---------------------------------------------------------------------
 Center     Atomic      Atomic             Coordinates (Angstroms)
 Number     Number       Type             X           Y           Z
 ---------------------------------------------------------------------
      1          7           0       -3.723567   -0.580813    4.423117
      2          1           0       -4.683986   -0.902611    4.315531
      3          1           0       -3.129656   -1.342440    4.092871
      4          6           0       -3.482735    0.583544    3.578256
      5          1           0       -4.303822    1.295909    3.729524
      6          6           0       -3.365355    0.224100    2.086141
      7          6           0       -2.144312    1.249201    3.963412
      8          1           0       -1.346110    0.516786    3.805346
      9          1           0       -1.941407    2.084243    3.280770
     10          8           0       -2.766910   -0.803468    1.733811
     11          6           0       -2.072748    1.733443    5.408333
     12          1           0       -2.358886    0.925781    6.092235
     13          1           0       -2.770283    2.556981    5.605671
     14          6           0       -0.674649    2.196125    5.758061
     15          8           0        0.303889    2.100378    5.042382
     16          8           0       -0.623012    2.740661    6.991611
     17          7           0       -3.853502    1.122489    1.197577
     18          1           0       -4.442077    1.874757    1.537774
     19          6           0       -3.799039    0.911138   -0.254476
     20          1           0       -4.022342   -0.145929   -0.438750
     21          6           0       -2.362617    1.212224   -0.739052
     22          6           0       -4.818486    1.805265   -0.991759
     23          1           0       -4.818343    1.496669   -2.043160
     24          1           0       -4.441529    2.833538   -0.983377
     25          8           0       -2.020716    2.286773   -1.220038
     26          6           0       -6.205148    1.745400   -0.417734
     27          6           0       -7.201404    0.852041   -0.731061
     28          1           0       -7.210351    0.057083   -1.464877
     29          6           0       -6.736525    2.598452    0.619502
     30          6           0       -8.060552    2.155054    0.892235
     31          6           0       -6.229210    3.698394    1.339656
     32          1           0       -5.237710    4.094521    1.126653
     33          7           0       -8.311139    1.088742    0.053106
     34          1           0       -9.188078    0.595576   -0.018776
     35          6           0       -8.335737    3.839703    2.557689
     36          1           0       -8.939636    4.336158    3.311394
     37          6           0       -8.869872    2.765276    1.855751
     38          1           0       -9.880361    2.415731    2.048961
     39          6           0       -7.029511    4.304049    2.301248
     40          1           0       -6.651257    5.158290    2.855365
     41          7           0       -1.476820    0.173436   -0.573924
     42          1           0       -1.753083   -0.595822    0.040916
     43          6           0       -0.082296    0.397607   -0.856533
     44          1           0       -0.045545    1.136089   -1.665805
     45          6           0        0.650955   -0.888590   -1.229753
     46          6           0        0.613117    1.026752    0.388651
     47          1           0        0.156630    2.000287    0.574864
     48          8           0        0.519246   -1.923252   -0.597343
     49          6           0        0.708140    0.190225    1.645168
     50          1           0       -0.283874   -0.206049    1.878915
     51          1           0        1.041291    0.800490    2.488821
     52          1           0        1.374959   -0.665653    1.512950
     53          8           0        2.059117    1.395654    0.028425
     54          1           0        2.692453    0.576706   -0.248606
     55          7           0        1.605638   -0.730613   -2.206409
     56          1           0        1.590112    0.080843   -2.809408
     57          6           0        2.691757   -1.678647   -2.338936
     58          1           0        2.296963   -2.683617   -2.152182
     59          6           0        3.709030   -1.408274   -1.226784
     60          6           0        3.351148   -1.637248   -3.734128
     61          1           0        4.229824   -2.290141   -3.708069
     62          1           0        3.725853   -0.621150   -3.928194
     63          8           0        3.683095   -0.456229   -0.438894
     64          6           0        2.404754   -2.084824   -4.856847
     65          1           0        2.028450   -3.093654   -4.646209
     66          1           0        1.523220   -1.431243   -4.898242
     67          6           0        3.102931   -2.088122   -6.225495
     68          1           0        3.517065   -1.087902   -6.432359
     69          1           0        3.946937   -2.782506   -6.216992
     70          7           0        2.196469   -2.508420   -7.292914
     71          1           0        1.618734   -1.759525   -7.656160
     72          7           0        3.404337   -4.437301   -7.850165
     73          1           0        3.608725   -5.073371   -8.614113
     74          1           0        3.005608   -4.932491   -7.057986
     75          7           0        2.316703   -3.305498   -9.557832
     76          1           0        1.865531   -2.417525   -9.786850
     77          6           0        2.608120   -3.384071   -8.314043
     78          8           0        4.666453   -2.312494   -1.172258
     79          1           0        2.108222    2.112163   -0.632504
     80          1           0        5.280301   -2.096529   -0.441098
     81          1           0        0.305462    2.997705    7.148431
 ---------------------------------------------------------------------

 SCF Done:  E(RB3LYP) =  -2053.88190090     A.U. after    1 cycles

 Alpha  occ. eigenvalues --  -19.40324 -19.35810 -19.32179 -19.26374 -19.25433
 Alpha  occ. eigenvalues --  -19.22461 -19.21458 -19.21105 -14.50506 -14.46738
 Alpha  occ. eigenvalues --  -14.45871 -14.45173 -14.42107 -14.40067 -14.39273
 Alpha  occ. eigenvalues --  -14.34614 -10.49056 -10.42616 -10.41334 -10.39243
 Alpha  occ. eigenvalues --  -10.39202 -10.38304 -10.37750 -10.37294 -10.34148
 Alpha  occ. eigenvalues --  -10.33018 -10.32309 -10.30843 -10.30785 -10.29877
 Alpha  occ. eigenvalues --  -10.29412 -10.29291 -10.28927 -10.27808 -10.27052
 Alpha  occ. eigenvalues --  -10.26972 -10.25814 -10.25765 -10.25759 -10.25713
 Alpha  occ. eigenvalues --  -10.25144 -10.25022  -1.27798  -1.26155  -1.18542
 Alpha  occ. eigenvalues --   -1.17576  -1.17393  -1.14487  -1.12835  -1.08347
 Alpha  occ. eigenvalues --   -1.07089  -1.05066  -1.03963  -1.03801  -1.02010
 Alpha  occ. eigenvalues --   -0.96869  -0.95545  -0.93600  -0.92355  -0.90821
 Alpha  occ. eigenvalues --   -0.90371  -0.88594  -0.86712  -0.86634  -0.85283
 Alpha  occ. eigenvalues --   -0.83448  -0.80497  -0.79709  -0.79429  -0.78729
 Alpha  occ. eigenvalues --   -0.78475  -0.76369  -0.76025  -0.74281  -0.73009
 Alpha  occ. eigenvalues --   -0.71617  -0.70517  -0.69549  -0.69180  -0.68113
 Alpha  occ. eigenvalues --   -0.67690  -0.66706  -0.66418  -0.65847  -0.65293
 Alpha  occ. eigenvalues --   -0.65011  -0.64196  -0.63635  -0.61916  -0.61555
 Alpha  occ. eigenvalues --   -0.61099  -0.60674  -0.60508  -0.59738  -0.59162
 Alpha  occ. eigenvalues --   -0.58756  -0.58144  -0.56905  -0.56656  -0.56197
 Alpha  occ. eigenvalues --   -0.56027  -0.55884  -0.55422  -0.55315  -0.54775
 Alpha  occ. eigenvalues --   -0.54096  -0.53762  -0.53551  -0.53088  -0.52484
 Alpha  occ. eigenvalues --   -0.52280  -0.51744  -0.51563  -0.51382  -0.50846
 Alpha  occ. eigenvalues --   -0.50565  -0.50277  -0.49952  -0.49899  -0.49721
 Alpha  occ. eigenvalues --   -0.49386  -0.49210  -0.48996  -0.48643  -0.48246
 Alpha  occ. eigenvalues --   -0.48074  -0.47402  -0.47091  -0.46910  -0.46851
 Alpha  occ. eigenvalues --   -0.46125  -0.45783  -0.45421  -0.44426  -0.44359
 Alpha  occ. eigenvalues --   -0.43882  -0.42763  -0.42611  -0.42257  -0.42124
 Alpha  occ. eigenvalues --   -0.40546  -0.40261  -0.40056  -0.39394  -0.38746
 Alpha  occ. eigenvalues --   -0.37744  -0.36907  -0.35737  -0.34688  -0.34486
 Alpha  occ. eigenvalues --   -0.34231  -0.32986  -0.31786  -0.31691  -0.29264
 Alpha  occ. eigenvalues --   -0.29070  -0.27448
 Alpha virt. eigenvalues --   -0.15809  -0.13266  -0.11188  -0.09083  -0.08277
 Alpha virt. eigenvalues --   -0.07253  -0.06427  -0.05903  -0.05873  -0.04645
 Alpha virt. eigenvalues --   -0.03740  -0.02025  -0.01435  -0.00945  -0.00423

 Mulliken charges:
               1
     1  N   -0.698277
     2  H    0.313949
     3  H    0.318103
     4  C   -0.080830
     5  H    0.150663
     6  C    0.602363
     7  C   -0.259845
     8  H    0.164368
     9  H    0.138439
    10  O   -0.560445
    11  C   -0.358023
    12  H    0.220053
    13  H    0.180029
    14  C    0.586167
    15  O   -0.484343
    16  O   -0.556915
    17  N   -0.610562
    18  H    0.361793
    19  C   -0.037568
    20  H    0.180695
    21  C    0.625368
    22  C   -0.399342
    23  H    0.169780
    24  H    0.189269
    25  O   -0.524574
    26  C    0.061932
    27  C    0.007301
    28  H    0.160291
    29  C    0.067397
    30  C    0.316238
    31  C   -0.242596
    32  H    0.128044
    33  N   -0.686795
    34  H    0.340132
    35  C   -0.151456
    36  H    0.143179
    37  C   -0.156989
    38  H    0.141237
    39  C   -0.137819
    40  H    0.135743
    41  N   -0.620961
    42  H    0.396080
    43  C   -0.065237
    44  H    0.175181
    45  C    0.608440
    46  C    0.052748
    47  H    0.227958
    48  O   -0.481730
    49  C   -0.493653
    50  H    0.222711
    51  H    0.219451
    52  H    0.184159
    53  O   -0.652547
    54  H    0.513219
    55  N   -0.626821
    56  H    0.341043
    57  C   -0.044805
    58  H    0.238345
    59  C    0.656578
    60  C   -0.313333
    61  H    0.195423
    62  H    0.147793
    63  O   -0.542486
    64  C   -0.255494
    65  H    0.163334
    66  H    0.139174
    67  C   -0.145930
    68  H    0.141225
    69  H    0.190977
    70  N   -0.593248
    71  H    0.312702
    72  N   -0.735259
    73  H    0.347372
    74  H    0.319508
    75  N   -0.612851
    76  H    0.267785
    77  C    0.546367
    78  O   -0.513419
    79  H    0.467434
    80  H    0.451395
    81  H    0.415217
 Sum of Mulliken charges =   1.00000

 Dipole moment (field-independent basis, Debye):
    X=              1.3900    Y=              2.1575    Z=             -1.7534  Tot=              3.1083
 Quadrupole moment (field-independent basis, Debye-Ang):
   XX=           -119.9045   YY=           -228.6145   ZZ=           -234.8941
   XY=             -9.6728   XZ=            -18.9670   YZ=              7.2257

 Normal termination of Gaussian 16 at Thu May 26 18:18:23 2022.
