 Gaussian 16, Revision C.01,
 Gaussian 16:  ES64L-G16RevC.01  3-Jul-2019

 -------------------------------------------------------------------
 # B3LYP/6-31G* guess=read geom=check nosymm integral(ultrafinegrid)
 -------------------------------------------------------------------

 ------------------------------------------------------
 Candidate Structure: Conf:205 Charge calc in gas phase
 ------------------------------------------------------
 Structure from the checkpoint file:  "conf-205.chk"
 Charge =  1 Multiplicity = 1

                          Input orientation:
 ---------------------------------------------------------------------
 Center     Atomic      Atomic             Coordinates (Angstroms)
 Number     Number       Type             X           Y           Z
 ---------------------------------------------------------------------
      1          7           0       -2.690234   -3.997824    2.402013
      2          1           0       -3.415959   -4.196639    1.715352
      3          1           0       -1.822901   -4.350928    1.998045
      4          6           0       -2.556152   -2.558801    2.584621
      5          1           0       -3.554319   -2.143553    2.762219
      6          6           0       -1.976777   -1.867603    1.331808
      7          6           0       -1.691387   -2.313957    3.845613
      8          1           0       -2.181081   -2.852379    4.662708
      9          1           0       -0.718119   -2.795851    3.697003
     10          8           0       -1.284798   -2.489849    0.505536
     11          6           0       -1.440623   -0.844068    4.256738
     12          1           0       -0.898243   -0.314720    3.466284
     13          1           0       -0.819690   -0.827542    5.157050
     14          6           0       -2.726789   -0.089759    4.495774
     15          8           0       -3.443614    0.367042    3.613395
     16          8           0       -3.047056    0.014912    5.791798
     17          7           0       -2.268098   -0.558639    1.153665
     18          1           0       -2.795362   -0.060753    1.878925
     19          6           0       -1.897557    0.118983   -0.081306
     20          1           0       -2.335930   -0.434756   -0.921066
     21          6           0       -0.363369    0.120824   -0.253663
     22          6           0       -2.443406    1.565796   -0.101566
     23          1           0       -1.880140    2.163225    0.623247
     24          1           0       -3.480840    1.528635    0.249616
     25          8           0        0.385384    0.864048    0.353106
     26          6           0       -2.403589    2.190281   -1.471584
     27          6           0       -3.430193    2.158025   -2.388084
     28          1           0       -4.424050    1.742129   -2.289489
     29          6           0       -1.318486    2.893558   -2.115714
     30          6           0       -1.759636    3.239860   -3.427348
     31          6           0       -0.018189    3.285305   -1.722460
     32          1           0        0.336380    3.086638   -0.715330
     33          7           0       -3.047401    2.776381   -3.557441
     34          1           0       -3.642579    2.918082   -4.360692
     35          6           0        0.335012    4.264417   -3.942498
     36          1           0        0.988351    4.794677   -4.628002
     37          6           0       -0.947657    3.920184   -4.344184
     38          1           0       -1.308584    4.170803   -5.337549
     39          6           0        0.797410    3.953842   -2.640975
     40          1           0        1.785923    4.285806   -2.334711
     41          7           0        0.107425   -0.739234   -1.259664
     42          1           0       -0.474169   -1.572624   -1.339464
     43          6           0        1.554057   -0.972963   -1.417868
     44          1           0        1.636570   -1.834385   -2.090684
     45          6           0        2.381912   -1.310083   -0.148967
     46          6           0        2.220276    0.248797   -2.111695
     47          1           0        2.457239    1.013001   -1.373534
     48          8           0        3.538515   -0.900292   -0.095293
     49          6           0        3.375917   -0.063852   -3.031803
     50          1           0        4.178917   -0.489336   -2.425873
     51          1           0        3.747668    0.844206   -3.515332
     52          1           0        3.083823   -0.782273   -3.804463
     53          8           0        1.107755    0.849850   -2.975637
     54          1           0        0.273421    0.393733   -2.623960
     55          7           0        1.807615   -2.108065    0.775783
     56          1           0        0.833313   -2.396394    0.697469
     57          6           0        2.586142   -2.576894    1.928456
     58          1           0        3.638276   -2.506476    1.645992
     59          6           0        2.322825   -4.048561    2.225753
     60          6           0        2.357483   -1.745872    3.214164
     61          1           0        2.824590   -2.289132    4.043382
     62          1           0        1.283350   -1.711050    3.431939
     63          8           0        3.148644   -4.801477    2.677550
     64          6           0        2.929260   -0.324116    3.138966
     65          1           0        4.002769   -0.376143    2.911372
     66          1           0        2.468706    0.229238    2.311171
     67          6           0        2.718571    0.488549    4.430441
     68          1           0        3.141883    1.490787    4.288578
     69          1           0        1.650300    0.616160    4.620618
     70          7           0        3.312803   -0.103926    5.629405
     71          1           0        4.291503   -0.347259    5.529048
     72          7           0        1.282617   -0.612691    6.695093
     73          1           0        0.909405   -1.199224    7.436235
     74          1           0        1.170592    0.369548    6.934063
     75          7           0        3.097021   -1.996412    7.093259
     76          1           0        4.040169   -2.227703    6.774565
     77          6           0        2.630601   -0.967669    6.487039
     78          8           0        1.034020   -4.412913    1.991043
     79          1           0        0.988221    1.839495   -2.790653
     80          1           0        0.965007   -5.352255    2.251522
     81          1           0       -3.903232    0.483381    5.847226
 ---------------------------------------------------------------------

 SCF Done:  E(RB3LYP) =  -2053.89342643     A.U. after    1 cycles

 Alpha  occ. eigenvalues --  -19.39776 -19.29553 -19.28989 -19.27049 -19.24410
 Alpha  occ. eigenvalues --  -19.23308 -19.22709 -19.22678 -14.51058 -14.49721
 Alpha  occ. eigenvalues --  -14.46970 -14.46761 -14.41492 -14.40586 -14.39993
 Alpha  occ. eigenvalues --  -14.34556 -10.43146 -10.42299 -10.40971 -10.40816
 Alpha  occ. eigenvalues --  -10.40628 -10.39425 -10.38163 -10.35985 -10.34166
 Alpha  occ. eigenvalues --  -10.33950 -10.33586 -10.33125 -10.31864 -10.31343
 Alpha  occ. eigenvalues --  -10.31073 -10.30816 -10.30804 -10.30721 -10.30308
 Alpha  occ. eigenvalues --  -10.30307 -10.30225 -10.29462 -10.28948 -10.28651
 Alpha  occ. eigenvalues --  -10.27695 -10.26522  -1.26350  -1.20666  -1.19528
 Alpha  occ. eigenvalues --   -1.18726  -1.14806  -1.14654  -1.11441  -1.10534
 Alpha  occ. eigenvalues --   -1.09765  -1.06870  -1.03692  -1.03648  -1.02967
 Alpha  occ. eigenvalues --   -0.97812  -0.96095  -0.95144  -0.93619  -0.92317
 Alpha  occ. eigenvalues --   -0.90385  -0.88825  -0.88575  -0.87741  -0.85717
 Alpha  occ. eigenvalues --   -0.84878  -0.83467  -0.82265  -0.80226  -0.77931
 Alpha  occ. eigenvalues --   -0.76586  -0.75733  -0.75362  -0.74188  -0.74044
 Alpha  occ. eigenvalues --   -0.71867  -0.71022  -0.70314  -0.69845  -0.69333
 Alpha  occ. eigenvalues --   -0.68794  -0.68001  -0.66864  -0.66590  -0.66437
 Alpha  occ. eigenvalues --   -0.65847  -0.65289  -0.63773  -0.62230  -0.61871
 Alpha  occ. eigenvalues --   -0.60678  -0.60469  -0.60019  -0.59286  -0.58920
 Alpha  occ. eigenvalues --   -0.58688  -0.57789  -0.57607  -0.56983  -0.56741
 Alpha  occ. eigenvalues --   -0.56581  -0.56265  -0.55989  -0.55480  -0.55153
 Alpha  occ. eigenvalues --   -0.54912  -0.54602  -0.54052  -0.53932  -0.53768
 Alpha  occ. eigenvalues --   -0.53284  -0.52718  -0.52575  -0.52323  -0.52192
 Alpha  occ. eigenvalues --   -0.51945  -0.51144  -0.50992  -0.50616  -0.50476
 Alpha  occ. eigenvalues --   -0.50046  -0.50018  -0.49512  -0.49122  -0.49092
 Alpha  occ. eigenvalues --   -0.48602  -0.48490  -0.48346  -0.47889  -0.46835
 Alpha  occ. eigenvalues --   -0.45814  -0.45709  -0.45573  -0.45418  -0.45145
 Alpha  occ. eigenvalues --   -0.44867  -0.43952  -0.43601  -0.43452  -0.42503
 Alpha  occ. eigenvalues --   -0.41752  -0.41649  -0.40684  -0.40588  -0.39543
 Alpha  occ. eigenvalues --   -0.38005  -0.37801  -0.37064  -0.36698  -0.36403
 Alpha  occ. eigenvalues --   -0.34743  -0.34718  -0.32913  -0.32770  -0.32239
 Alpha  occ. eigenvalues --   -0.31981  -0.28672
 Alpha virt. eigenvalues --   -0.14010  -0.13310  -0.10256  -0.09813  -0.09557
 Alpha virt. eigenvalues --   -0.09351  -0.07935  -0.07665  -0.05691  -0.03993
 Alpha virt. eigenvalues --   -0.02813  -0.02406  -0.02356  -0.01680  -0.01280

 Mulliken charges:
               1
     1  N   -0.690621
     2  H    0.309868
     3  H    0.314310
     4  C   -0.094742
     5  H    0.168755
     6  C    0.591464
     7  C   -0.280066
     8  H    0.193499
     9  H    0.170473
    10  O   -0.578648
    11  C   -0.387837
    12  H    0.171173
    13  H    0.222670
    14  C    0.595098
    15  O   -0.492707
    16  O   -0.535484
    17  N   -0.634719
    18  H    0.405355
    19  C   -0.001433
    20  H    0.162049
    21  C    0.611108
    22  C   -0.400059
    23  H    0.194344
    24  H    0.181766
    25  O   -0.480638
    26  C    0.059122
    27  C    0.016000
    28  H    0.180946
    29  C    0.069271
    30  C    0.320801
    31  C   -0.325319
    32  H    0.186626
    33  N   -0.675934
    34  H    0.353199
    35  C   -0.134459
    36  H    0.166242
    37  C   -0.151305
    38  H    0.163612
    39  C   -0.199589
    40  H    0.165633
    41  N   -0.706216
    42  H    0.383638
    43  C   -0.089521
    44  H    0.208332
    45  C    0.674732
    46  C    0.076804
    47  H    0.226673
    48  O   -0.524222
    49  C   -0.463330
    50  H    0.232443
    51  H    0.183505
    52  H    0.175466
    53  O   -0.646096
    54  H    0.467122
    55  N   -0.652731
    56  H    0.393357
    57  C   -0.053985
    58  H    0.214061
    59  C    0.583865
    60  C   -0.285947
    61  H    0.184606
    62  H    0.155740
    63  O   -0.432835
    64  C   -0.278097
    65  H    0.152422
    66  H    0.156224
    67  C   -0.150037
    68  H    0.156239
    69  H    0.159990
    70  N   -0.582242
    71  H    0.316717
    72  N   -0.747649
    73  H    0.344067
    74  H    0.326330
    75  N   -0.622622
    76  H    0.271594
    77  C    0.548706
    78  O   -0.580909
    79  H    0.461838
    80  H    0.427314
    81  H    0.424831
 Sum of Mulliken charges =   1.00000

 Dipole moment (field-independent basis, Debye):
    X=             -5.0047    Y=              4.8300    Z=             -7.4286  Tot=             10.1765
 Quadrupole moment (field-independent basis, Debye-Ang):
   XX=           -204.0238   YY=           -224.4765   ZZ=           -185.4707
   XY=              3.4667   XZ=             -8.5546   YZ=             -5.2377

 Normal termination of Gaussian 16 at Thu May 26 18:18:38 2022.
