 Gaussian 16, Revision C.01,
 Gaussian 16:  ES64L-G16RevC.01  3-Jul-2019

 -------------------------------------------------------------------
 # B3LYP/6-31G* guess=read geom=check nosymm integral(ultrafinegrid)
 -------------------------------------------------------------------

 ------------------------------------------------------
 Candidate Structure: Conf:883 Charge calc in gas phase
 ------------------------------------------------------
 Structure from the checkpoint file:  "conf-883.chk"
 Charge =  1 Multiplicity = 1

                          Input orientation:
 ---------------------------------------------------------------------
 Center     Atomic      Atomic             Coordinates (Angstroms)
 Number     Number       Type             X           Y           Z
 ---------------------------------------------------------------------
      1          7           0       -3.062182    2.134086    4.263681
      2          1           0       -3.793650    1.631878    4.763439
      3          1           0       -2.258913    1.504056    4.242948
      4          6           0       -3.475090    2.370947    2.881914
      5          1           0       -4.553021    2.572114    2.861094
      6          6           0       -3.147780    1.183543    1.961906
      7          6           0       -2.767789    3.635443    2.315658
      8          1           0       -3.073893    3.787944    1.274601
      9          1           0       -3.104408    4.493583    2.902875
     10          8           0       -2.166776    0.467172    2.181462
     11          6           0       -1.230723    3.531012    2.392317
     12          1           0       -0.879673    2.582424    1.984946
     13          1           0       -0.931700    3.578386    3.448338
     14          6           0       -0.491487    4.625466    1.670954
     15          8           0        0.460622    4.477716    0.912346
     16          8           0       -0.962806    5.848977    1.955366
     17          7           0       -3.915873    1.014592    0.849777
     18          1           0       -4.651970    1.680203    0.649801
     19          6           0       -3.381265    0.253772   -0.277995
     20          1           0       -3.271199   -0.794052    0.023221
     21          6           0       -2.004197    0.857504   -0.621166
     22          6           0       -4.304720    0.360731   -1.501796
     23          1           0       -3.809417   -0.165738   -2.330779
     24          1           0       -4.337394    1.417790   -1.804052
     25          8           0       -1.863099    2.073234   -0.734706
     26          6           0       -5.696966   -0.175713   -1.311118
     27          6           0       -6.217217   -0.864532   -0.241104
     28          1           0       -5.758249   -1.137064    0.698941
     29          6           0       -6.754202   -0.081935   -2.289955
     30          6           0       -7.891470   -0.736938   -1.744754
     31          6           0       -6.848599    0.490111   -3.571213
     32          1           0       -5.995545    0.995592   -4.017343
     33          7           0       -7.531802   -1.202707   -0.495703
     34          1           0       -8.132936   -1.709835    0.135340
     35          6           0       -9.165987   -0.254282   -3.699801
     36          1           0      -10.092088   -0.309399   -4.264850
     37          6           0       -9.103665   -0.830678   -2.436810
     38          1           0       -9.964244   -1.335213   -2.005715
     39          6           0       -8.050062    0.399861   -4.262093
     40          1           0       -8.135595    0.837923   -5.252535
     41          7           0       -0.973768   -0.020329   -0.807533
     42          1           0       -1.099834   -1.000905   -0.590413
     43          6           0        0.380777    0.499323   -0.820482
     44          1           0        0.274476    1.553828   -1.078091
     45          6           0        1.254232   -0.205773   -1.853301
     46          6           0        1.032381    0.446888    0.599826
     47          1           0        0.427240    1.084976    1.247961
     48          8           0        1.284165   -1.422753   -1.990646
     49          6           0        1.136068   -0.944451    1.214100
     50          1           0        0.140879   -1.347427    1.427392
     51          1           0        1.671927   -0.876950    2.166088
     52          1           0        1.660301   -1.643828    0.554273
     53          8           0        2.321773    1.098435    0.536346
     54          1           0        2.937574    0.514483    0.053809
     55          7           0        2.064743    0.637590   -2.568912
     56          1           0        2.026073    1.629133   -2.374996
     57          6           0        3.071586    0.085821   -3.453646
     58          1           0        2.583818   -0.670483   -4.077131
     59          6           0        4.161097   -0.699169   -2.704300
     60          6           0        3.732956    1.113971   -4.402988
     61          1           0        2.943924    1.626659   -4.966553
     62          1           0        4.282092    0.513011   -5.133125
     63          8           0        4.904212   -1.483306   -3.233920
     64          6           0        4.724425    2.135403   -3.777462
     65          1           0        5.181070    1.713024   -2.874544
     66          1           0        5.544741    2.284541   -4.485258
     67          6           0        4.133934    3.540923   -3.448220
     68          1           0        4.600610    4.314630   -4.062625
     69          1           0        3.066087    3.578815   -3.674766
     70          7           0        4.318205    3.946162   -2.038238
     71          1           0        5.285160    3.976965   -1.733791
     72          7           0        2.107964    3.669671   -1.322350
     73          1           0        1.463793    3.695138   -0.521245
     74          1           0        1.796822    4.244165   -2.096713
     75          7           0        3.847167    3.418015    0.188758
     76          1           0        4.814585    3.148863    0.320048
     77          6           0        3.431697    3.673783   -1.058710
     78          8           0        4.272190   -0.383057   -1.371230
     79          1           0        3.171032    2.926743    0.780610
     80          1           0        4.969638   -0.975456   -1.026245
     81          1           0       -0.423513    6.495316    1.460714
 ---------------------------------------------------------------------

 SCF Done:  E(RB3LYP) =  -2053.94184571     A.U. after    1 cycles

 Alpha  occ. eigenvalues --  -19.31298 -19.29279 -19.25824 -19.24740 -19.24392
 Alpha  occ. eigenvalues --  -19.21806 -19.20417 -19.20192 -14.53110 -14.51904
 Alpha  occ. eigenvalues --  -14.51605 -14.46759 -14.45213 -14.44401 -14.43656
 Alpha  occ. eigenvalues --  -14.38623 -10.48839 -10.42837 -10.42306 -10.38736
 Alpha  occ. eigenvalues --  -10.37631 -10.37515 -10.36546 -10.35122 -10.33877
 Alpha  occ. eigenvalues --  -10.32413 -10.32395 -10.32011 -10.31740 -10.30440
 Alpha  occ. eigenvalues --  -10.28039 -10.27992 -10.27439 -10.27299 -10.27166
 Alpha  occ. eigenvalues --  -10.26050 -10.24654 -10.24061 -10.23881 -10.23829
 Alpha  occ. eigenvalues --  -10.23516 -10.23151  -1.21385  -1.20483  -1.17330
 Alpha  occ. eigenvalues --   -1.14018  -1.12799  -1.12567  -1.12236  -1.11424
 Alpha  occ. eigenvalues --   -1.11072  -1.06812  -1.05075  -1.03541  -1.03353
 Alpha  occ. eigenvalues --   -1.01473  -1.00709  -0.96247  -0.92561  -0.89136
 Alpha  occ. eigenvalues --   -0.88345  -0.87675  -0.87184  -0.86011  -0.83013
 Alpha  occ. eigenvalues --   -0.81925  -0.79792  -0.79380  -0.78737  -0.78325
 Alpha  occ. eigenvalues --   -0.77084  -0.75427  -0.74120  -0.73982  -0.72188
 Alpha  occ. eigenvalues --   -0.71747  -0.70252  -0.69846  -0.69571  -0.68391
 Alpha  occ. eigenvalues --   -0.67635  -0.67186  -0.66119  -0.64886  -0.64502
 Alpha  occ. eigenvalues --   -0.64354  -0.63893  -0.62622  -0.61791  -0.61415
 Alpha  occ. eigenvalues --   -0.60664  -0.60051  -0.59826  -0.59515  -0.58998
 Alpha  occ. eigenvalues --   -0.58702  -0.58263  -0.58078  -0.57659  -0.56506
 Alpha  occ. eigenvalues --   -0.56247  -0.55854  -0.55671  -0.54885  -0.54200
 Alpha  occ. eigenvalues --   -0.53853  -0.53687  -0.53467  -0.52810  -0.52558
 Alpha  occ. eigenvalues --   -0.52335  -0.52028  -0.51181  -0.50547  -0.50327
 Alpha  occ. eigenvalues --   -0.50026  -0.49234  -0.49157  -0.49047  -0.48547
 Alpha  occ. eigenvalues --   -0.48394  -0.48325  -0.47933  -0.47881  -0.47237
 Alpha  occ. eigenvalues --   -0.47174  -0.46364  -0.46282  -0.46150  -0.45796
 Alpha  occ. eigenvalues --   -0.45074  -0.44919  -0.44288  -0.43660  -0.43393
 Alpha  occ. eigenvalues --   -0.43149  -0.42992  -0.42777  -0.42357  -0.41641
 Alpha  occ. eigenvalues --   -0.41407  -0.40631  -0.39669  -0.38886  -0.38806
 Alpha  occ. eigenvalues --   -0.38560  -0.37673  -0.36107  -0.35582  -0.35195
 Alpha  occ. eigenvalues --   -0.34450  -0.33823  -0.33237  -0.32508  -0.31172
 Alpha  occ. eigenvalues --   -0.27566  -0.25907
 Alpha virt. eigenvalues --   -0.14801  -0.10270  -0.09131  -0.08787  -0.08306
 Alpha virt. eigenvalues --   -0.07454  -0.06463  -0.06199  -0.05640  -0.04321
 Alpha virt. eigenvalues --   -0.03919  -0.02609  -0.02052  -0.01571  -0.01343

 Mulliken charges:
               1
     1  N   -0.708540
     2  H    0.313443
     3  H    0.319068
     4  C   -0.096464
     5  H    0.148186
     6  C    0.612981
     7  C   -0.251472
     8  H    0.158822
     9  H    0.181748
    10  O   -0.551302
    11  C   -0.380736
    12  H    0.206345
    13  H    0.202171
    14  C    0.597728
    15  O   -0.529930
    16  O   -0.529125
    17  N   -0.585859
    18  H    0.344703
    19  C   -0.036538
    20  H    0.162107
    21  C    0.642634
    22  C   -0.378920
    23  H    0.171595
    24  H    0.168547
    25  O   -0.553075
    26  C    0.056518
    27  C    0.000090
    28  H    0.155954
    29  C    0.080150
    30  C    0.316303
    31  C   -0.211356
    32  H    0.119766
    33  N   -0.697919
    34  H    0.334434
    35  C   -0.149800
    36  H    0.136575
    37  C   -0.159849
    38  H    0.133302
    39  C   -0.137517
    40  H    0.130127
    41  N   -0.595758
    42  H    0.353264
    43  C   -0.083731
    44  H    0.173411
    45  C    0.610831
    46  C    0.109839
    47  H    0.191697
    48  O   -0.514484
    49  C   -0.491680
    50  H    0.179109
    51  H    0.168241
    52  H    0.172994
    53  O   -0.697538
    54  H    0.424917
    55  N   -0.638426
    56  H    0.361598
    57  C   -0.028318
    58  H    0.224384
    59  C    0.607646
    60  C   -0.322600
    61  H    0.172132
    62  H    0.205712
    63  O   -0.429124
    64  C   -0.298105
    65  H    0.158431
    66  H    0.191405
    67  C   -0.176024
    68  H    0.209149
    69  H    0.170786
    70  N   -0.577612
    71  H    0.358032
    72  N   -0.775544
    73  H    0.439802
    74  H    0.376994
    75  N   -0.717825
    76  H    0.363508
    77  C    0.733962
    78  O   -0.604928
    79  H    0.414325
    80  H    0.427889
    81  H    0.416743
 Sum of Mulliken charges =   1.00000

 Dipole moment (field-independent basis, Debye):
    X=              8.2644    Y=             13.9559    Z=             -4.1264  Tot=             16.7361
 Quadrupole moment (field-independent basis, Debye-Ang):
   XX=           -117.2968   YY=           -186.8267   ZZ=           -213.3928
   XY=             58.1679   XZ=            -32.8013   YZ=            -31.8130

 Normal termination of Gaussian 16 at Thu May 26 18:19:33 2022.
