 Gaussian 16, Revision C.01,
 Gaussian 16:  ES64L-G16RevC.01  3-Jul-2019

 -------------------------------------------------------------------
 # B3LYP/6-31G* guess=read geom=check nosymm integral(ultrafinegrid)
 -------------------------------------------------------------------

 ------------------------------------------------------
 Candidate Structure: Conf:102 Charge calc in gas phase
 ------------------------------------------------------
 Structure from the checkpoint file:  "conf-102.chk"
 Charge =  1 Multiplicity = 1

                          Input orientation:
 ---------------------------------------------------------------------
 Center     Atomic      Atomic             Coordinates (Angstroms)
 Number     Number       Type             X           Y           Z
 ---------------------------------------------------------------------
      1          7           0       -2.627358   -0.464453    5.149451
      2          1           0       -3.025754   -1.378923    4.943446
      3          1           0       -1.620450   -0.563616    5.018402
      4          6           0       -3.116021    0.523240    4.194666
      5          1           0       -4.197998    0.391422    4.087153
      6          6           0       -2.467771    0.387772    2.808028
      7          6           0       -2.852685    1.950816    4.733849
      8          1           0       -1.785690    2.023738    4.980209
      9          1           0       -3.049303    2.690519    3.951014
     10          8           0       -1.342407   -0.105620    2.657342
     11          6           0       -3.670747    2.268376    5.988407
     12          1           0       -3.275453    3.157991    6.493300
     13          1           0       -3.579575    1.445952    6.706923
     14          6           0       -5.153106    2.524405    5.795636
     15          8           0       -5.927279    2.780392    6.686296
     16          8           0       -5.562570    2.446862    4.492277
     17          7           0       -3.175774    0.885029    1.765986
     18          1           0       -4.120673    1.226059    1.909008
     19          6           0       -2.699274    0.829737    0.395497
     20          1           0       -2.758958   -0.204017    0.026915
     21          6           0       -1.243473    1.306978    0.339494
     22          6           0       -3.569910    1.747876   -0.504006
     23          1           0       -3.198646    1.648160   -1.532362
     24          1           0       -3.383731    2.782338   -0.195587
     25          8           0       -0.879966    2.404847    0.739093
     26          6           0       -5.035544    1.437059   -0.440946
     27          6           0       -6.007704    2.219987    0.140472
     28          1           0       -5.916695    3.185753    0.620230
     29          6           0       -5.709398    0.274910   -0.972568
     30          6           0       -7.091190    0.422267   -0.675304
     31          6           0       -5.287365   -0.865083   -1.680695
     32          1           0       -4.240131   -1.003280   -1.939342
     33          7           0       -7.238643    1.614057    0.008799
     34          1           0       -8.117914    2.015430    0.297055
     35          6           0       -7.595408   -1.643347   -1.750078
     36          1           0       -8.309558   -2.399458   -2.062520
     37          6           0       -8.045208   -0.527448   -1.055528
     38          1           0       -9.098096   -0.397708   -0.820923
     39          6           0       -6.230157   -1.810284   -2.061840
     40          1           0       -5.916040   -2.692337   -2.612307
     41          7           0       -0.359718    0.446723   -0.277372
     42          1           0       -0.596968   -0.528989   -0.413954
     43          6           0        1.042627    0.768900   -0.248789
     44          1           0        1.138886    1.836144   -0.481173
     45          6           0        1.820058   -0.107903   -1.229653
     46          6           0        1.589956    0.544759    1.192401
     47          1           0        1.102135    1.245128    1.869837
     48          8           0        1.560779   -1.292852   -1.366866
     49          6           0        1.614654   -0.854970    1.748062
     50          1           0        0.573706   -1.144568    1.920305
     51          1           0        2.116226   -0.860744    2.719749
     52          1           0        2.085016   -1.574417    1.073639
     53          8           0        3.078511    1.043966    1.233350
     54          1           0        3.712381    0.543949    0.607814
     55          7           0        2.920830    0.501995   -1.777507
     56          1           0        2.930437    1.510280   -1.870171
     57          6           0        3.952139   -0.256759   -2.470170
     58          1           0        3.507557   -1.224002   -2.735031
     59          6           0        5.119196   -0.591075   -1.538182
     60          6           0        4.460626    0.436903   -3.748101
     61          1           0        5.320061   -0.138444   -4.107171
     62          1           0        4.846191    1.434910   -3.490598
     63          8           0        6.141719   -1.122062   -1.860573
     64          6           0        3.393954    0.541486   -4.845149
     65          1           0        3.015014   -0.463291   -5.078442
     66          1           0        2.529690    1.123705   -4.501268
     67          6           0        3.947226    1.190831   -6.121463
     68          1           0        4.285558    2.209692   -5.916667
     69          1           0        4.829505    0.628498   -6.467267
     70          7           0        2.925403    1.268041   -7.166803
     71          1           0        2.781727    0.386813   -7.647490
     72          7           0        3.053687    3.592524   -7.440512
     73          1           0        2.931883    4.334904   -8.121890
     74          1           0        2.446341    3.730445   -6.638086
     75          7           0        2.672819    2.298117   -9.326627
     76          1           0        2.711803    1.339171   -9.677904
     77          6           0        2.875835    2.350679   -8.064408
     78          8           0        4.901475   -0.239238   -0.200732
     79          1           0        3.153734    2.005854    1.076147
     80          1           0        5.689881   -0.547757    0.290339
     81          1           0       -6.521433    2.629921    4.518528
 ---------------------------------------------------------------------

 SCF Done:  E(RB3LYP) =  -2053.85982842     A.U. after    3 cycles

 Alpha  occ. eigenvalues --  -19.43241 -19.36529 -19.29105 -19.26829 -19.26566
 Alpha  occ. eigenvalues --  -19.23046 -19.21274 -19.20006 -14.51599 -14.48451
 Alpha  occ. eigenvalues --  -14.45560 -14.45386 -14.42009 -14.40232 -14.39072
 Alpha  occ. eigenvalues --  -14.34748 -10.47036 -10.43969 -10.42822 -10.40236
 Alpha  occ. eigenvalues --  -10.38882 -10.38509 -10.38207 -10.37472 -10.34185
 Alpha  occ. eigenvalues --  -10.33654 -10.31674 -10.31367 -10.30551 -10.30204
 Alpha  occ. eigenvalues --  -10.29970 -10.29214 -10.29137 -10.28916 -10.26712
 Alpha  occ. eigenvalues --  -10.26547 -10.26455 -10.25811 -10.25760 -10.25758
 Alpha  occ. eigenvalues --  -10.25210 -10.24931  -1.29096  -1.25625  -1.18955
 Alpha  occ. eigenvalues --   -1.17121  -1.16919  -1.15437  -1.12586  -1.07983
 Alpha  occ. eigenvalues --   -1.07776  -1.05462  -1.05394  -1.03807  -1.01980
 Alpha  occ. eigenvalues --   -0.96626  -0.95562  -0.94744  -0.92624  -0.90948
 Alpha  occ. eigenvalues --   -0.90456  -0.89229  -0.87100  -0.86241  -0.85490
 Alpha  occ. eigenvalues --   -0.83792  -0.80753  -0.80582  -0.79675  -0.78781
 Alpha  occ. eigenvalues --   -0.78267  -0.77744  -0.75794  -0.74282  -0.73881
 Alpha  occ. eigenvalues --   -0.71906  -0.70998  -0.70206  -0.69394  -0.68353
 Alpha  occ. eigenvalues --   -0.68054  -0.66764  -0.66584  -0.66286  -0.65999
 Alpha  occ. eigenvalues --   -0.65042  -0.64007  -0.63826  -0.62560  -0.61530
 Alpha  occ. eigenvalues --   -0.61324  -0.60723  -0.60551  -0.60129  -0.59625
 Alpha  occ. eigenvalues --   -0.58966  -0.58068  -0.57632  -0.57377  -0.56260
 Alpha  occ. eigenvalues --   -0.56161  -0.55516  -0.55473  -0.55108  -0.54812
 Alpha  occ. eigenvalues --   -0.54489  -0.54071  -0.53890  -0.53337  -0.52985
 Alpha  occ. eigenvalues --   -0.52569  -0.52393  -0.52017  -0.51753  -0.51399
 Alpha  occ. eigenvalues --   -0.51015  -0.50794  -0.50643  -0.50506  -0.50021
 Alpha  occ. eigenvalues --   -0.49653  -0.49198  -0.48789  -0.48616  -0.48174
 Alpha  occ. eigenvalues --   -0.47910  -0.47497  -0.47179  -0.46768  -0.46541
 Alpha  occ. eigenvalues --   -0.46458  -0.45968  -0.45049  -0.44527  -0.44170
 Alpha  occ. eigenvalues --   -0.43753  -0.43114  -0.42858  -0.42337  -0.41294
 Alpha  occ. eigenvalues --   -0.40805  -0.40484  -0.40370  -0.40001  -0.38094
 Alpha  occ. eigenvalues --   -0.38005  -0.37256  -0.35379  -0.34994  -0.34550
 Alpha  occ. eigenvalues --   -0.33602  -0.33070  -0.31839  -0.31684  -0.29436
 Alpha  occ. eigenvalues --   -0.29230  -0.27879
 Alpha virt. eigenvalues --   -0.15197  -0.14053  -0.12723  -0.09990  -0.08404
 Alpha virt. eigenvalues --   -0.08057  -0.07199  -0.06880  -0.05308  -0.04900
 Alpha virt. eigenvalues --   -0.04488  -0.02707  -0.02156  -0.01382  -0.00847

 Mulliken charges:
               1
     1  N   -0.694876
     2  H    0.310528
     3  H    0.307275
     4  C   -0.097739
     5  H    0.163396
     6  C    0.613577
     7  C   -0.249501
     8  H    0.143248
     9  H    0.158545
    10  O   -0.575625
    11  C   -0.367037
    12  H    0.189046
    13  H    0.219142
    14  C    0.581365
    15  O   -0.445212
    16  O   -0.587521
    17  N   -0.599103
    18  H    0.350763
    19  C   -0.015545
    20  H    0.159949
    21  C    0.657139
    22  C   -0.386779
    23  H    0.166455
    24  H    0.181204
    25  O   -0.534704
    26  C    0.038167
    27  C   -0.008260
    28  H    0.164782
    29  C    0.093193
    30  C    0.311199
    31  C   -0.210033
    32  H    0.112016
    33  N   -0.685074
    34  H    0.339378
    35  C   -0.148676
    36  H    0.143519
    37  C   -0.157590
    38  H    0.140345
    39  C   -0.136541
    40  H    0.134682
    41  N   -0.609401
    42  H    0.362108
    43  C   -0.053165
    44  H    0.176854
    45  C    0.602719
    46  C    0.051614
    47  H    0.252906
    48  O   -0.481608
    49  C   -0.497454
    50  H    0.254160
    51  H    0.193338
    52  H    0.192363
    53  O   -0.662036
    54  H    0.515041
    55  N   -0.641553
    56  H    0.343461
    57  C   -0.063839
    58  H    0.244118
    59  C    0.637154
    60  C   -0.303438
    61  H    0.202390
    62  H    0.147646
    63  O   -0.394966
    64  C   -0.260896
    65  H    0.155232
    66  H    0.138724
    67  C   -0.143097
    68  H    0.181518
    69  H    0.151992
    70  N   -0.595736
    71  H    0.315201
    72  N   -0.733547
    73  H    0.345851
    74  H    0.313552
    75  N   -0.611286
    76  H    0.270497
    77  C    0.542807
    78  O   -0.654944
    79  H    0.476503
    80  H    0.449945
    81  H    0.410178
 Sum of Mulliken charges =   1.00000

 Dipole moment (field-independent basis, Debye):
    X=              5.8272    Y=              4.1455    Z=              0.0316  Tot=              7.1514
 Quadrupole moment (field-independent basis, Debye-Ang):
   XX=           -132.6591   YY=           -228.2442   ZZ=           -268.2140
   XY=              2.2067   XZ=              7.4366   YZ=              9.2765

 Normal termination of Gaussian 16 at Thu May 26 18:18:56 2022.
