 Gaussian 16, Revision C.01,
 Gaussian 16:  ES64L-G16RevC.01  3-Jul-2019

 -------------------------------------------------------------------
 # B3LYP/6-31G* guess=read geom=check nosymm integral(ultrafinegrid)
 -------------------------------------------------------------------

 ------------------------------------------------------
 Candidate Structure: Conf:428 Charge calc in gas phase
 ------------------------------------------------------
 Structure from the checkpoint file:  "conf-428.chk"
 Charge =  1 Multiplicity = 1

                          Input orientation:
 ---------------------------------------------------------------------
 Center     Atomic      Atomic             Coordinates (Angstroms)
 Number     Number       Type             X           Y           Z
 ---------------------------------------------------------------------
      1          7           0       -5.505530    0.038942    2.854891
      2          1           0       -6.087285    0.404815    2.105337
      3          1           0       -5.294973   -0.929058    2.618771
      4          6           0       -4.259262    0.803928    2.979288
      5          1           0       -4.534799    1.862692    3.069780
      6          6           0       -3.374736    0.603637    1.743787
      7          6           0       -3.524515    0.334496    4.236989
      8          1           0       -4.198443    0.460317    5.085532
      9          1           0       -3.350379   -0.739995    4.125388
     10          8           0       -2.686613   -0.404782    1.585390
     11          6           0       -2.167602    1.054087    4.495928
     12          1           0       -2.240048    1.717442    5.364341
     13          1           0       -1.861030    1.670066    3.644984
     14          6           0       -1.056001    0.067924    4.759769
     15          8           0       -0.011314   -0.045399    4.127704
     16          8           0       -1.318452   -0.727282    5.801368
     17          7           0       -3.445003    1.572042    0.776400
     18          1           0       -3.825643    2.485700    0.995161
     19          6           0       -2.631746    1.455315   -0.410945
     20          1           0       -2.839108    0.487699   -0.872631
     21          6           0       -1.160531    1.457756   -0.010988
     22          6           0       -2.968295    2.585915   -1.430800
     23          1           0       -3.965139    2.343636   -1.819668
     24          1           0       -2.280273    2.494695   -2.278958
     25          8           0       -0.775072    2.327227    0.863505
     26          6           0       -2.953485    3.986205   -0.890258
     27          6           0       -1.961481    4.921500   -1.070334
     28          1           0       -1.040850    4.848852   -1.632966
     29          6           0       -3.973527    4.622506   -0.080364
     30          6           0       -3.515155    5.938746    0.201147
     31          6           0       -5.232212    4.226898    0.422330
     32          1           0       -5.637193    3.242511    0.198996
     33          7           0       -2.287472    6.085666   -0.414556
     34          1           0       -1.745451    6.935924   -0.436186
     35          6           0       -5.484063    6.415784    1.457393
     36          1           0       -6.084913    7.094382    2.055029
     37          6           0       -4.255891    6.843884    0.967525
     38          1           0       -3.888465    7.845975    1.169675
     39          6           0       -5.967988    5.121059    1.184278
     40          1           0       -6.940034    4.825999    1.567668
     41          7           0       -0.333322    0.597722   -0.556162
     42          1           0       -0.693269   -0.182504   -1.116260
     43          6           0        1.132477    0.517710   -0.410328
     44          1           0        1.559482    1.507537   -0.614679
     45          6           0        1.558441   -0.482221   -1.526657
     46          6           0        1.563182    0.101489    1.020696
     47          1           0        1.013867   -0.804529    1.299811
     48          8           0        0.730348   -1.274283   -1.973953
     49          6           0        3.062396   -0.098122    1.199684
     50          1           0        3.438685   -0.955724    0.637517
     51          1           0        3.266349   -0.268182    2.260680
     52          1           0        3.612429    0.801965    0.900561
     53          8           0        1.143731    1.186163    1.880981
     54          1           0        0.092598    1.985094    1.312473
     55          7           0        2.831333   -0.388039   -1.960503
     56          1           0        3.462672    0.259809   -1.507633
     57          6           0        3.407586   -1.315634   -2.937692
     58          1           0        2.673520   -2.111083   -3.085169
     59          6           0        4.678952   -1.987366   -2.420025
     60          6           0        3.715704   -0.647218   -4.297630
     61          1           0        4.207405   -1.408786   -4.908703
     62          1           0        4.441452    0.161661   -4.140161
     63          8           0        5.257501   -2.858832   -3.017411
     64          6           0        2.490560   -0.094943   -5.039216
     65          1           0        2.004741    0.690550   -4.445962
     66          1           0        2.852095    0.401818   -5.949560
     67          6           0        1.430941   -1.139227   -5.415373
     68          1           0        0.991259   -1.562437   -4.507282
     69          1           0        0.612105   -0.634517   -5.955466
     70          7           0        2.008294   -2.233454   -6.178853
     71          1           0        2.494048   -1.939330   -7.020447
     72          7           0        1.931799   -4.273829   -7.263326
     73          1           0        1.446426   -5.161163   -7.331277
     74          1           0        2.921048   -4.394989   -7.074169
     75          7           0        0.144804   -3.747923   -5.877669
     76          1           0       -0.299174   -2.971517   -5.388402
     77          6           0        1.274670   -3.414370   -6.382411
     78          8           0        5.115507   -1.476312   -1.238922
     79          1           0        0.796966    0.783547    2.721434
     80          1           0        5.941513   -1.950787   -1.022777
     81          1           0       -0.569495   -1.344610    5.906284
 ---------------------------------------------------------------------

 SCF Done:  E(RB3LYP) =  -2053.91601860     A.U. after    1 cycles

 Alpha  occ. eigenvalues --  -19.32709 -19.30375 -19.30220 -19.30091 -19.25673
 Alpha  occ. eigenvalues --  -19.25502 -19.23912 -19.22521 -14.53303 -14.49479
 Alpha  occ. eigenvalues --  -14.47434 -14.47093 -14.41191 -14.41162 -14.38921
 Alpha  occ. eigenvalues --  -14.33862 -10.46517 -10.43482 -10.42953 -10.42335
 Alpha  occ. eigenvalues --  -10.38999 -10.38941 -10.38646 -10.37021 -10.34749
 Alpha  occ. eigenvalues --  -10.33280 -10.32230 -10.31833 -10.31803 -10.31064
 Alpha  occ. eigenvalues --  -10.30332 -10.29721 -10.29491 -10.28691 -10.28450
 Alpha  occ. eigenvalues --  -10.28397 -10.28081 -10.27935 -10.27785 -10.27690
 Alpha  occ. eigenvalues --  -10.27015 -10.26901  -1.24364  -1.21657  -1.20906
 Alpha  occ. eigenvalues --   -1.17634  -1.16823  -1.14423  -1.12215  -1.11889
 Alpha  occ. eigenvalues --   -1.09915  -1.07381  -1.05782  -1.04164  -1.03053
 Alpha  occ. eigenvalues --   -0.98548  -0.94721  -0.93487  -0.92921  -0.91137
 Alpha  occ. eigenvalues --   -0.89565  -0.89238  -0.89046  -0.87720  -0.85086
 Alpha  occ. eigenvalues --   -0.83584  -0.82590  -0.81709  -0.80629  -0.78992
 Alpha  occ. eigenvalues --   -0.76732  -0.76524  -0.74622  -0.73410  -0.73335
 Alpha  occ. eigenvalues --   -0.72237  -0.71591  -0.71404  -0.71009  -0.68925
 Alpha  occ. eigenvalues --   -0.68726  -0.67997  -0.67032  -0.66282  -0.65548
 Alpha  occ. eigenvalues --   -0.63954  -0.63286  -0.63121  -0.62031  -0.61915
 Alpha  occ. eigenvalues --   -0.60678  -0.60285  -0.59864  -0.59623  -0.58835
 Alpha  occ. eigenvalues --   -0.58656  -0.58519  -0.58014  -0.57617  -0.57531
 Alpha  occ. eigenvalues --   -0.57295  -0.56624  -0.56054  -0.55858  -0.55136
 Alpha  occ. eigenvalues --   -0.54950  -0.54105  -0.54018  -0.53766  -0.53401
 Alpha  occ. eigenvalues --   -0.53072  -0.52542  -0.52248  -0.51837  -0.51766
 Alpha  occ. eigenvalues --   -0.51597  -0.51557  -0.51249  -0.50839  -0.50513
 Alpha  occ. eigenvalues --   -0.50217  -0.49697  -0.49645  -0.49431  -0.48900
 Alpha  occ. eigenvalues --   -0.48571  -0.48139  -0.47891  -0.47405  -0.46667
 Alpha  occ. eigenvalues --   -0.46455  -0.45174  -0.44696  -0.44500  -0.44390
 Alpha  occ. eigenvalues --   -0.44236  -0.43904  -0.42916  -0.42686  -0.42587
 Alpha  occ. eigenvalues --   -0.42338  -0.42210  -0.41902  -0.41619  -0.39889
 Alpha  occ. eigenvalues --   -0.39611  -0.38967  -0.38057  -0.37196  -0.36541
 Alpha  occ. eigenvalues --   -0.36439  -0.32528  -0.31766  -0.31391  -0.30962
 Alpha  occ. eigenvalues --   -0.29728  -0.28595
 Alpha virt. eigenvalues --   -0.15946  -0.11450  -0.10409  -0.10122  -0.09118
 Alpha virt. eigenvalues --   -0.09008  -0.06627  -0.04762  -0.04559  -0.03256
 Alpha virt. eigenvalues --   -0.02476  -0.01821  -0.01472  -0.00955  -0.00919

 Mulliken charges:
               1
     1  N   -0.695240
     2  H    0.311836
     3  H    0.319490
     4  C   -0.083353
     5  H    0.151693
     6  C    0.611450
     7  C   -0.258589
     8  H    0.187822
     9  H    0.177796
    10  O   -0.545573
    11  C   -0.352395
    12  H    0.201787
    13  H    0.163609
    14  C    0.592612
    15  O   -0.510075
    16  O   -0.524523
    17  N   -0.622742
    18  H    0.370833
    19  C   -0.036616
    20  H    0.193440
    21  C    0.660886
    22  C   -0.394745
    23  H    0.197614
    24  H    0.169324
    25  O   -0.571658
    26  C    0.065139
    27  C    0.017291
    28  H    0.154491
    29  C    0.061770
    30  C    0.316871
    31  C   -0.248425
    32  H    0.135410
    33  N   -0.683939
    34  H    0.343878
    35  C   -0.150425
    36  H    0.151603
    37  C   -0.153907
    38  H    0.147661
    39  C   -0.134168
    40  H    0.145910
    41  N   -0.589379
    42  H    0.403554
    43  C   -0.107234
    44  H    0.194949
    45  C    0.622786
    46  C    0.135302
    47  H    0.193048
    48  O   -0.511828
    49  C   -0.480662
    50  H    0.191779
    51  H    0.190698
    52  H    0.160102
    53  O   -0.703101
    54  H    0.486540
    55  N   -0.593962
    56  H    0.354839
    57  C   -0.084109
    58  H    0.239633
    59  C    0.598802
    60  C   -0.261791
    61  H    0.198646
    62  H    0.143600
    63  O   -0.428413
    64  C   -0.290381
    65  H    0.129000
    66  H    0.158252
    67  C   -0.150315
    68  H    0.174547
    69  H    0.145912
    70  N   -0.605464
    71  H    0.324626
    72  N   -0.749121
    73  H    0.342387
    74  H    0.323560
    75  N   -0.637731
    76  H    0.274327
    77  C    0.576300
    78  O   -0.584468
    79  H    0.471301
    80  H    0.430773
    81  H    0.428851
 Sum of Mulliken charges =   1.00000

 Dipole moment (field-independent basis, Debye):
    X=              1.8826    Y=             10.7809    Z=              2.2028  Tot=             11.1635
 Quadrupole moment (field-independent basis, Debye-Ang):
   XX=           -183.1214   YY=           -197.1907   ZZ=           -203.1672
   XY=            -27.3027   XZ=            -24.1308   YZ=            -11.9012

 Normal termination of Gaussian 16 at Thu May 26 18:18:31 2022.
