 Gaussian 16, Revision C.01,
 Gaussian 16:  ES64L-G16RevC.01  3-Jul-2019

 -------------------------------------------------------------------
 # B3LYP/6-31G* guess=read geom=check nosymm integral(ultrafinegrid)
 -------------------------------------------------------------------

 ------------------------------------------------------
 Candidate Structure: Conf:684 Charge calc in gas phase
 ------------------------------------------------------
 Structure from the checkpoint file:  "conf-684.chk"
 Charge =  1 Multiplicity = 1

                          Input orientation:
 ---------------------------------------------------------------------
 Center     Atomic      Atomic             Coordinates (Angstroms)
 Number     Number       Type             X           Y           Z
 ---------------------------------------------------------------------
      1          7           0       -3.898717    1.284252    3.286820
      2          1           0       -4.760717    0.870503    2.935207
      3          1           0       -4.048193    1.507331    4.266405
      4          6           0       -2.767437    0.363624    3.107511
      5          1           0       -2.057373    0.546361    3.926574
      6          6           0       -1.989518    0.719877    1.824817
      7          6           0       -3.134389   -1.132979    3.100637
      8          1           0       -3.880387   -1.319304    2.317462
      9          1           0       -2.253277   -1.716419    2.822018
     10          8           0       -1.075548   -0.032577    1.408975
     11          6           0       -3.674588   -1.618791    4.446027
     12          1           0       -4.537223   -1.025215    4.776977
     13          1           0       -2.923763   -1.521439    5.240931
     14          6           0       -4.115961   -3.069267    4.387368
     15          8           0       -4.144299   -3.752303    3.388693
     16          8           0       -4.489750   -3.515481    5.606662
     17          7           0       -2.360392    1.851431    1.224681
     18          1           0       -3.146824    2.318843    1.681268
     19          6           0       -1.855835    2.367049   -0.053458
     20          1           0       -1.973417    1.575614   -0.797650
     21          6           0       -0.359251    2.707219    0.086303
     22          6           0       -2.673803    3.603337   -0.478482
     23          1           0       -2.211062    4.001717   -1.390876
     24          1           0       -2.553869    4.379623    0.284954
     25          8           0        0.044155    3.728451    0.622554
     26          6           0       -4.118407    3.278711   -0.714634
     27          6           0       -5.195470    3.683268    0.038279
     28          1           0       -5.227789    4.341463    0.896545
     29          6           0       -4.645169    2.434402   -1.760617
     30          6           0       -6.052117    2.363287   -1.572834
     31          6           0       -4.073828    1.747003   -2.848629
     32          1           0       -3.008017    1.824463   -3.056280
     33          7           0       -6.354980    3.130398   -0.464702
     34          1           0       -7.285822    3.334023   -0.133470
     35          6           0       -6.286347    0.940946   -3.472832
     36          1           0       -6.904225    0.356770   -4.148040
     37          6           0       -6.883491    1.620698   -2.418195
     38          1           0       -7.957734    1.578899   -2.261082
     39          6           0       -4.894627    1.007081   -3.691065
     40          1           0       -4.464881    0.481561   -4.539064
     41          7           0        0.471513    1.734631   -0.409921
     42          1           0        0.037454    0.887241   -0.796153
     43          6           0        1.877640    1.696019   -0.035936
     44          1           0        2.279403    2.713639   -0.066924
     45          6           0        2.592732    0.755886   -1.018057
     46          6           0        2.108592    1.117343    1.391414
     47          1           0        3.171505    0.888295    1.508696
     48          8           0        2.539395   -0.478371   -0.806861
     49          6           0        1.626677    1.920408    2.581857
     50          1           0        2.131687    2.890289    2.591486
     51          1           0        1.877494    1.386275    3.503166
     52          1           0        0.554163    2.113431    2.553741
     53          8           0        1.468963   -0.230942    1.416257
     54          1           0        0.432851   -0.152515    1.431374
     55          7           0        3.233364    1.280398   -2.062668
     56          1           0        3.280130    2.286553   -2.168574
     57          6           0        3.942493    0.456008   -3.056061
     58          1           0        4.573598   -0.251675   -2.506878
     59          6           0        4.878949    1.306737   -3.907945
     60          6           0        2.979902   -0.363951   -3.944437
     61          1           0        2.374494   -0.968188   -3.265415
     62          1           0        3.595860   -1.056072   -4.527583
     63          8           0        5.597985    0.844024   -4.755719
     64          6           0        2.092407    0.475005   -4.884454
     65          1           0        1.911839    1.471463   -4.455082
     66          1           0        2.611218    0.643678   -5.836075
     67          6           0        0.718705   -0.162652   -5.166138
     68          1           0        0.244158    0.349955   -6.010173
     69          1           0        0.823644   -1.210492   -5.465131
     70          7           0       -0.195213   -0.095403   -4.030988
     71          1           0       -0.397350    0.845081   -3.715087
     72          7           0       -1.054064   -0.572390   -1.929406
     73          1           0       -1.199497   -1.348700   -1.286294
     74          1           0       -1.970402   -0.226179   -2.218351
     75          7           0        0.127131   -2.262586   -2.998779
     76          1           0        0.703368   -2.504211   -3.804703
     77          6           0       -0.313841   -1.063506   -3.046580
     78          8           0        4.796253    2.631735   -3.626450
     79          1           0        1.809719   -0.644756    0.510769
     80          1           0        5.418021    3.094178   -4.221630
     81          1           0       -4.766891   -4.444906    5.493943
 ---------------------------------------------------------------------

 SCF Done:  E(RB3LYP) =  -2053.91903491     A.U. after    1 cycles

 Alpha  occ. eigenvalues --  -19.35494 -19.31210 -19.27448 -19.26852 -19.24686
 Alpha  occ. eigenvalues --  -19.24678 -19.23023 -19.21414 -14.50593 -14.47911
 Alpha  occ. eigenvalues --  -14.47588 -14.46379 -14.44593 -14.43977 -14.43676
 Alpha  occ. eigenvalues --  -14.37477 -10.43708 -10.43274 -10.41063 -10.40033
 Alpha  occ. eigenvalues --  -10.39728 -10.39665 -10.37621 -10.37212 -10.35876
 Alpha  occ. eigenvalues --  -10.34464 -10.33841 -10.31772 -10.30683 -10.30183
 Alpha  occ. eigenvalues --  -10.30148 -10.29387 -10.29033 -10.28998 -10.28722
 Alpha  occ. eigenvalues --  -10.28489 -10.27199 -10.27143 -10.26902 -10.26859
 Alpha  occ. eigenvalues --  -10.26312 -10.26262  -1.22953  -1.21734  -1.18204
 Alpha  occ. eigenvalues --   -1.17837  -1.15765  -1.14820  -1.12778  -1.08951
 Alpha  occ. eigenvalues --   -1.06905  -1.06697  -1.06299  -1.04845  -1.04314
 Alpha  occ. eigenvalues --   -1.00213  -0.98141  -0.93215  -0.92648  -0.92054
 Alpha  occ. eigenvalues --   -0.90633  -0.90051  -0.88406  -0.86480  -0.85510
 Alpha  occ. eigenvalues --   -0.83687  -0.81855  -0.81569  -0.80285  -0.78752
 Alpha  occ. eigenvalues --   -0.77191  -0.75987  -0.74205  -0.73611  -0.72369
 Alpha  occ. eigenvalues --   -0.71507  -0.70522  -0.70301  -0.69145  -0.68781
 Alpha  occ. eigenvalues --   -0.67561  -0.67104  -0.66888  -0.66695  -0.65277
 Alpha  occ. eigenvalues --   -0.65199  -0.63672  -0.62952  -0.62931  -0.62022
 Alpha  occ. eigenvalues --   -0.61517  -0.60529  -0.60215  -0.59980  -0.59452
 Alpha  occ. eigenvalues --   -0.59351  -0.58499  -0.57869  -0.57516  -0.56770
 Alpha  occ. eigenvalues --   -0.56439  -0.56256  -0.56000  -0.55591  -0.55324
 Alpha  occ. eigenvalues --   -0.55099  -0.54690  -0.54123  -0.53677  -0.53102
 Alpha  occ. eigenvalues --   -0.52647  -0.52587  -0.52252  -0.51930  -0.51733
 Alpha  occ. eigenvalues --   -0.51394  -0.51254  -0.51203  -0.50649  -0.50447
 Alpha  occ. eigenvalues --   -0.50061  -0.49910  -0.49583  -0.49157  -0.49000
 Alpha  occ. eigenvalues --   -0.48460  -0.47613  -0.47519  -0.46965  -0.46893
 Alpha  occ. eigenvalues --   -0.46108  -0.45784  -0.45541  -0.45128  -0.44560
 Alpha  occ. eigenvalues --   -0.44015  -0.43963  -0.43482  -0.43032  -0.41713
 Alpha  occ. eigenvalues --   -0.41497  -0.41319  -0.40081  -0.39880  -0.39627
 Alpha  occ. eigenvalues --   -0.39177  -0.38209  -0.37260  -0.36540  -0.35962
 Alpha  occ. eigenvalues --   -0.35658  -0.35075  -0.35006  -0.34920  -0.31637
 Alpha  occ. eigenvalues --   -0.30493  -0.28833
 Alpha virt. eigenvalues --   -0.12795  -0.10966  -0.09925  -0.09800  -0.09425
 Alpha virt. eigenvalues --   -0.06524  -0.05694  -0.05306  -0.04463  -0.03930
 Alpha virt. eigenvalues --   -0.03255  -0.02968  -0.02080  -0.01510  -0.01321

 Mulliken charges:
               1
     1  N   -0.757410
     2  H    0.327512
     3  H    0.334947
     4  C   -0.070561
     5  H    0.174028
     6  C    0.643448
     7  C   -0.271204
     8  H    0.166076
     9  H    0.185624
    10  O   -0.634148
    11  C   -0.364955
    12  H    0.170335
    13  H    0.183830
    14  C    0.585895
    15  O   -0.450854
    16  O   -0.562941
    17  N   -0.583655
    18  H    0.383727
    19  C   -0.045023
    20  H    0.175838
    21  C    0.634942
    22  C   -0.395497
    23  H    0.171644
    24  H    0.185039
    25  O   -0.515549
    26  C    0.056979
    27  C   -0.005488
    28  H    0.165930
    29  C    0.089676
    30  C    0.311210
    31  C   -0.226669
    32  H    0.103171
    33  N   -0.687118
    34  H    0.341491
    35  C   -0.148882
    36  H    0.147610
    37  C   -0.155301
    38  H    0.144284
    39  C   -0.141132
    40  H    0.137434
    41  N   -0.663600
    42  H    0.410439
    43  C   -0.079277
    44  H    0.203206
    45  C    0.663544
    46  C    0.073455
    47  H    0.202268
    48  O   -0.573858
    49  C   -0.472978
    50  H    0.200192
    51  H    0.187483
    52  H    0.186791
    53  O   -0.663022
    54  H    0.506269
    55  N   -0.610367
    56  H    0.379314
    57  C   -0.067064
    58  H    0.221872
    59  C    0.603693
    60  C   -0.296789
    61  H    0.200772
    62  H    0.189503
    63  O   -0.429600
    64  C   -0.277343
    65  H    0.127240
    66  H    0.172797
    67  C   -0.163746
    68  H    0.173128
    69  H    0.173095
    70  N   -0.582883
    71  H    0.319137
    72  N   -0.807343
    73  H    0.354072
    74  H    0.340302
    75  N   -0.622489
    76  H    0.286304
    77  C    0.573057
    78  O   -0.591805
    79  H    0.491071
    80  H    0.437486
    81  H    0.421388
 Sum of Mulliken charges =   1.00000

 Dipole moment (field-independent basis, Debye):
    X=             -3.7305    Y=              8.5409    Z=              1.0818  Tot=              9.3826
 Quadrupole moment (field-independent basis, Debye-Ang):
   XX=           -144.9502   YY=           -231.7539   ZZ=           -178.0161
   XY=             -0.9084   XZ=            -31.2812   YZ=            -13.3518

 Normal termination of Gaussian 16 at Thu May 26 18:18:21 2022.
