 Gaussian 16, Revision C.01,
 Gaussian 16:  ES64L-G16RevC.01  3-Jul-2019

 -------------------------------------------------------------------
 # B3LYP/6-31G* guess=read geom=check nosymm integral(ultrafinegrid)
 -------------------------------------------------------------------

 ------------------------------------------------------
 Candidate Structure: Conf:293 Charge calc in gas phase
 ------------------------------------------------------
 Structure from the checkpoint file:  "conf-293.chk"
 Charge =  1 Multiplicity = 1

                          Input orientation:
 ---------------------------------------------------------------------
 Center     Atomic      Atomic             Coordinates (Angstroms)
 Number     Number       Type             X           Y           Z
 ---------------------------------------------------------------------
      1          7           0       -4.002637   -1.700809    1.185025
      2          1           0       -4.920995   -1.839202    1.602172
      3          1           0       -4.139264   -1.660421    0.176411
      4          6           0       -3.422390   -0.458196    1.685290
      5          1           0       -4.035782    0.438548    1.473733
      6          6           0       -2.049804   -0.271118    1.014935
      7          6           0       -3.235723   -0.577756    3.210662
      8          1           0       -4.170824   -0.954308    3.643259
      9          1           0       -2.468107   -1.332985    3.401426
     10          8           0       -1.208025   -1.183551    1.013673
     11          6           0       -2.864562    0.754919    3.888513
     12          1           0       -3.720240    1.434814    3.921291
     13          1           0       -2.062938    1.252179    3.327387
     14          6           0       -2.326811    0.525060    5.286009
     15          8           0       -1.323761   -0.111384    5.537287
     16          8           0       -3.088653    1.102222    6.236291
     17          7           0       -1.817799    0.951851    0.476476
     18          1           0       -2.611187    1.585243    0.426557
     19          6           0       -0.765851    1.279054   -0.501989
     20          1           0       -0.718059    0.471709   -1.247843
     21          6           0        0.651599    1.367497    0.105281
     22          6           0       -1.114176    2.605904   -1.223158
     23          1           0       -0.485731    2.645458   -2.119586
     24          1           0       -0.795035    3.443263   -0.593785
     25          8           0        1.440246    2.278911   -0.155685
     26          6           0       -2.567718    2.773370   -1.570493
     27          6           0       -3.364431    3.806945   -1.128902
     28          1           0       -3.111253    4.639748   -0.485879
     29          6           0       -3.397994    1.963312   -2.438339
     30          6           0       -4.680911    2.577369   -2.476150
     31          6           0       -3.189246    0.782162   -3.179398
     32          1           0       -2.224436    0.278527   -3.176633
     33          7           0       -4.627250    3.695838   -1.666732
     34          1           0       -5.380098    4.351969   -1.524745
     35          6           0       -5.504409    0.896305   -3.950452
     36          1           0       -6.305233    0.467247   -4.545712
     37          6           0       -5.741719    2.057559   -3.225238
     38          1           0       -6.713520    2.543459   -3.241957
     39          6           0       -4.242946    0.267223   -3.926782
     40          1           0       -4.092248   -0.640387   -4.504674
     41          7           0        0.998522    0.313145    0.894971
     42          1           0        0.310559   -0.455868    0.964685
     43          6           0        2.317961    0.210058    1.486943
     44          1           0        2.634916    1.202182    1.826065
     45          6           0        3.268087   -0.232332    0.370610
     46          6           0        2.350663   -0.768732    2.684103
     47          1           0        3.381024   -0.795320    3.055354
     48          8           0        3.532596   -1.492628    0.171876
     49          6           0        1.404928   -0.396302    3.812410
     50          1           0        1.620596    0.611610    4.181354
     51          1           0        1.527241   -1.095898    4.643078
     52          1           0        0.357514   -0.423342    3.501282
     53          8           0        2.114634   -2.117807    2.207536
     54          1           0        1.156359   -2.293187    2.161304
     55          7           0        3.746438    0.661456   -0.452376
     56          1           0        3.366262    1.608105   -0.341081
     57          6           0        4.424603    0.350218   -1.726382
     58          1           0        5.048355   -0.533613   -1.580033
     59          6           0        5.348216    1.494580   -2.132151
     60          6           0        3.335693    0.072203   -2.795242
     61          1           0        2.672478    0.942232   -2.839295
     62          1           0        2.738747   -0.760343   -2.405804
     63          8           0        6.270815    1.358139   -2.895250
     64          6           0        3.847252   -0.280717   -4.196228
     65          1           0        4.407794    0.560602   -4.619669
     66          1           0        4.551141   -1.121792   -4.143753
     67          6           0        2.704426   -0.670363   -5.157346
     68          1           0        3.138423   -0.943646   -6.125206
     69          1           0        2.188192   -1.566307   -4.795585
     70          7           0        1.707968    0.363094   -5.394408
     71          1           0        2.031129    1.168780   -5.914861
     72          7           0       -0.090490    1.748458   -4.944506
     73          1           0       -1.030910    1.763342   -4.563935
     74          1           0       -0.093095    1.978071   -5.932615
     75          7           0        0.126989   -0.165160   -3.655442
     76          1           0        0.729151   -0.966935   -3.480209
     77          6           0        0.579843    0.570815   -4.616882
     78          8           0        4.970377    2.670224   -1.585962
     79          1           0        3.033149   -2.033595    0.867807
     80          1           0        5.576991    3.360933   -1.916931
     81          1           0       -2.674743    0.896262    7.096937
 ---------------------------------------------------------------------

 SCF Done:  E(RB3LYP) =  -2053.91898922     A.U. after    1 cycles

 Alpha  occ. eigenvalues --  -19.34588 -19.31504 -19.30329 -19.27662 -19.25419
 Alpha  occ. eigenvalues --  -19.23930 -19.22956 -19.21895 -14.53141 -14.47412
 Alpha  occ. eigenvalues --  -14.46859 -14.45869 -14.44205 -14.42276 -14.40112
 Alpha  occ. eigenvalues --  -14.37139 -10.46957 -10.43951 -10.40526 -10.40247
 Alpha  occ. eigenvalues --  -10.39351 -10.38138 -10.38113 -10.37324 -10.37078
 Alpha  occ. eigenvalues --  -10.33639 -10.31975 -10.31865 -10.30876 -10.30227
 Alpha  occ. eigenvalues --  -10.29474 -10.28913 -10.28677 -10.28674 -10.28236
 Alpha  occ. eigenvalues --  -10.28022 -10.26668 -10.26151 -10.26136 -10.25547
 Alpha  occ. eigenvalues --  -10.25323 -10.25108  -1.25281  -1.22277  -1.18497
 Alpha  occ. eigenvalues --   -1.16790  -1.15715  -1.14209  -1.13401  -1.10627
 Alpha  occ. eigenvalues --   -1.09397  -1.06289  -1.05794  -1.04717  -1.03040
 Alpha  occ. eigenvalues --   -0.97712  -0.97462  -0.93357  -0.92541  -0.91110
 Alpha  occ. eigenvalues --   -0.90802  -0.89039  -0.87922  -0.86541  -0.85200
 Alpha  occ. eigenvalues --   -0.83219  -0.80762  -0.80121  -0.79786  -0.79239
 Alpha  occ. eigenvalues --   -0.77925  -0.76054  -0.75014  -0.73928  -0.72676
 Alpha  occ. eigenvalues --   -0.70881  -0.70121  -0.69531  -0.68793  -0.68264
 Alpha  occ. eigenvalues --   -0.67584  -0.67220  -0.66856  -0.66732  -0.65092
 Alpha  occ. eigenvalues --   -0.64121  -0.63744  -0.63620  -0.61452  -0.61061
 Alpha  occ. eigenvalues --   -0.60629  -0.60327  -0.59682  -0.59507  -0.59134
 Alpha  occ. eigenvalues --   -0.58944  -0.58235  -0.57601  -0.57312  -0.56819
 Alpha  occ. eigenvalues --   -0.56593  -0.56202  -0.56075  -0.55878  -0.54894
 Alpha  occ. eigenvalues --   -0.54386  -0.54247  -0.54061  -0.53665  -0.53321
 Alpha  occ. eigenvalues --   -0.52932  -0.52633  -0.51922  -0.51487  -0.51222
 Alpha  occ. eigenvalues --   -0.50771  -0.50510  -0.50108  -0.49908  -0.49728
 Alpha  occ. eigenvalues --   -0.49537  -0.49180  -0.49037  -0.48831  -0.48674
 Alpha  occ. eigenvalues --   -0.47871  -0.47791  -0.47278  -0.46474  -0.46361
 Alpha  occ. eigenvalues --   -0.46043  -0.45448  -0.44993  -0.44800  -0.44725
 Alpha  occ. eigenvalues --   -0.44146  -0.43775  -0.43708  -0.42713  -0.42579
 Alpha  occ. eigenvalues --   -0.42340  -0.40716  -0.40651  -0.39562  -0.39177
 Alpha  occ. eigenvalues --   -0.38776  -0.37748  -0.36602  -0.35799  -0.35528
 Alpha  occ. eigenvalues --   -0.35004  -0.34966  -0.34083  -0.32333  -0.31025
 Alpha  occ. eigenvalues --   -0.29790  -0.28188
 Alpha virt. eigenvalues --   -0.16264  -0.10939  -0.09885  -0.09455  -0.08546
 Alpha virt. eigenvalues --   -0.07125  -0.05546  -0.04988  -0.03546  -0.03296
 Alpha virt. eigenvalues --   -0.02024  -0.01873  -0.01620  -0.01054  -0.00585

 Mulliken charges:
               1
     1  N   -0.711793
     2  H    0.314374
     3  H    0.316131
     4  C   -0.040414
     5  H    0.123703
     6  C    0.629105
     7  C   -0.277392
     8  H    0.161432
     9  H    0.193175
    10  O   -0.564992
    11  C   -0.356163
    12  H    0.177995
    13  H    0.167967
    14  C    0.572515
    15  O   -0.465621
    16  O   -0.546781
    17  N   -0.607479
    18  H    0.350544
    19  C   -0.083287
    20  H    0.233585
    21  C    0.643766
    22  C   -0.374998
    23  H    0.193883
    24  H    0.167754
    25  O   -0.541368
    26  C    0.003489
    27  C   -0.002363
    28  H    0.163208
    29  C    0.070535
    30  C    0.311097
    31  C   -0.261336
    32  H    0.193152
    33  N   -0.681247
    34  H    0.340159
    35  C   -0.149370
    36  H    0.142325
    37  C   -0.162389
    38  H    0.139455
    39  C   -0.154481
    40  H    0.136842
    41  N   -0.644038
    42  H    0.396627
    43  C   -0.062539
    44  H    0.208316
    45  C    0.647454
    46  C    0.073467
    47  H    0.186993
    48  O   -0.571160
    49  C   -0.475160
    50  H    0.174611
    51  H    0.202944
    52  H    0.185290
    53  O   -0.655425
    54  H    0.445635
    55  N   -0.559058
    56  H    0.421312
    57  C   -0.088608
    58  H    0.223829
    59  C    0.606249
    60  C   -0.284273
    61  H    0.190187
    62  H    0.159871
    63  O   -0.428627
    64  C   -0.268654
    65  H    0.168013
    66  H    0.162433
    67  C   -0.165178
    68  H    0.178803
    69  H    0.165962
    70  N   -0.593619
    71  H    0.329626
    72  N   -0.764379
    73  H    0.355112
    74  H    0.329648
    75  N   -0.679204
    76  H    0.276935
    77  C    0.613818
    78  O   -0.570901
    79  H    0.484842
    80  H    0.438711
    81  H    0.419417
 Sum of Mulliken charges =   1.00000

 Dipole moment (field-independent basis, Debye):
    X=              1.9431    Y=              5.8520    Z=             -1.5155  Tot=              6.3497
 Quadrupole moment (field-independent basis, Debye-Ang):
   XX=           -160.3908   YY=           -217.5603   ZZ=           -174.3263
   XY=            -14.3034   XZ=            -11.0374   YZ=             -5.0808

 Normal termination of Gaussian 16 at Thu May 26 18:18:38 2022.
