 Gaussian 16, Revision C.01,
 Gaussian 16:  ES64L-G16RevC.01  3-Jul-2019

 -------------------------------------------------------------------
 # B3LYP/6-31G* guess=read geom=check nosymm integral(ultrafinegrid)
 -------------------------------------------------------------------

 ------------------------------------------------------
 Candidate Structure: Conf:242 Charge calc in gas phase
 ------------------------------------------------------
 Structure from the checkpoint file:  "conf-242.chk"
 Charge =  1 Multiplicity = 1

                          Input orientation:
 ---------------------------------------------------------------------
 Center     Atomic      Atomic             Coordinates (Angstroms)
 Number     Number       Type             X           Y           Z
 ---------------------------------------------------------------------
      1          7           0       -5.340082    1.854364    3.971170
      2          1           0       -5.846489    2.560726    3.439971
      3          1           0       -5.685308    0.954146    3.636705
      4          6           0       -3.915848    1.933281    3.677668
      5          1           0       -3.602385    2.980068    3.789051
      6          6           0       -3.577329    1.456760    2.252919
      7          6           0       -3.111873    1.071587    4.678770
      8          1           0       -3.431848    0.027138    4.566644
      9          1           0       -2.045571    1.109569    4.426687
     10          8           0       -4.243214    0.592321    1.686164
     11          6           0       -3.320074    1.525680    6.133463
     12          1           0       -4.378807    1.491825    6.390799
     13          1           0       -2.970766    2.560234    6.246742
     14          6           0       -2.564795    0.661429    7.118985
     15          8           0       -3.054325   -0.024948    7.985261
     16          8           0       -1.218573    0.729822    6.919827
     17          7           0       -2.483351    2.039405    1.668889
     18          1           0       -1.880840    2.633463    2.226791
     19          6           0       -1.912870    1.523800    0.441431
     20          1           0       -2.458635    0.602753    0.223806
     21          6           0       -0.442704    1.172445    0.680616
     22          6           0       -2.046020    2.497018   -0.770070
     23          1           0       -1.098072    2.525720   -1.328395
     24          1           0       -2.171120    3.510464   -0.367045
     25          8           0        0.268956    1.749098    1.493257
     26          6           0       -3.161534    2.153460   -1.721143
     27          6           0       -4.246176    1.329373   -1.506276
     28          1           0       -4.530530    0.784787   -0.614396
     29          6           0       -3.319675    2.698115   -3.050590
     30          6           0       -4.514968    2.145452   -3.591740
     31          6           0       -2.584986    3.616409   -3.827213
     32          1           0       -1.695559    4.095899   -3.424648
     33          7           0       -5.050759    1.320423   -2.626783
     34          1           0       -5.914146    0.805216   -2.710351
     35          6           0       -4.214099    3.357115   -5.623542
     36          1           0       -4.544962    3.629922   -6.621105
     37          6           0       -4.968539    2.459851   -4.877462
     38          1           0       -5.882846    2.028648   -5.275207
     39          6           0       -3.036843    3.934718   -5.102849
     40          1           0       -2.490017    4.656097   -5.703579
     41          7           0        0.030412    0.160487   -0.119039
     42          1           0       -0.550853   -0.256861   -0.842740
     43          6           0        1.357893   -0.391084    0.044149
     44          1           0        1.765806    0.059447    0.958157
     45          6           0        2.248793    0.046282   -1.125691
     46          6           0        1.363242   -1.940759    0.185056
     47          1           0        2.373996   -2.235034    0.487335
     48          8           0        2.800271   -0.828741   -1.900204
     49          6           0        0.358525   -2.467778    1.196432
     50          1           0        0.523069   -2.011339    2.178376
     51          1           0        0.477291   -3.549977    1.290718
     52          1           0       -0.670221   -2.256824    0.890399
     53          8           0        1.194295   -2.555832   -1.113726
     54          1           0        0.303137   -2.316423   -1.508370
     55          7           0        2.435897    1.318619   -1.371522
     56          1           0        2.062049    2.017467   -0.724152
     57          6           0        3.110039    1.864923   -2.562462
     58          1           0        4.132579    1.474710   -2.598000
     59          6           0        3.170437    3.373379   -2.335009
     60          6           0        2.389945    1.489557   -3.884550
     61          1           0        2.313821    0.401100   -3.907457
     62          1           0        3.062576    1.775372   -4.699936
     63          8           0        2.594527    3.934202   -1.428037
     64          6           0        1.005690    2.145659   -4.089751
     65          1           0        0.529301    2.364503   -3.125512
     66          1           0        1.140767    3.114549   -4.584769
     67          6           0        0.007315    1.310076   -4.930286
     68          1           0       -0.696613    1.981451   -5.426064
     69          1           0        0.528371    0.767112   -5.726063
     70          7           0       -0.821126    0.382798   -4.147306
     71          1           0       -1.593193    0.839358   -3.668905
     72          7           0        0.653709   -1.439827   -4.186465
     73          1           0        0.659594   -2.436657   -4.001435
     74          1           0        0.803844   -1.242968   -5.168296
     75          7           0       -0.991602   -1.397116   -2.572081
     76          1           0       -1.842237   -0.907790   -2.286523
     77          6           0       -0.437638   -0.812580   -3.605362
     78          8           0        3.909811    3.976549   -3.269545
     79          1           0        2.272214   -1.718581   -1.766967
     80          1           0        3.911667    4.936056   -3.083261
     81          1           0       -0.820989    0.154746    7.600768
 ---------------------------------------------------------------------

 SCF Done:  E(RB3LYP) =  -2053.91957785     A.U. after    1 cycles

 Alpha  occ. eigenvalues --  -19.34640 -19.33173 -19.29486 -19.27943 -19.24775
 Alpha  occ. eigenvalues --  -19.24488 -19.20661 -19.18978 -14.54339 -14.49072
 Alpha  occ. eigenvalues --  -14.47604 -14.47300 -14.46847 -14.45437 -14.42015
 Alpha  occ. eigenvalues --  -14.38430 -10.47919 -10.46046 -10.42015 -10.41338
 Alpha  occ. eigenvalues --  -10.38942 -10.38709 -10.38284 -10.37197 -10.37165
 Alpha  occ. eigenvalues --  -10.34569 -10.34148 -10.32163 -10.31321 -10.30864
 Alpha  occ. eigenvalues --  -10.30695 -10.30210 -10.30207 -10.29399 -10.27919
 Alpha  occ. eigenvalues --  -10.27792 -10.27634 -10.27575 -10.27060 -10.26970
 Alpha  occ. eigenvalues --  -10.26580 -10.25469  -1.25887  -1.24395  -1.16596
 Alpha  occ. eigenvalues --   -1.16098  -1.15751  -1.15484  -1.12396  -1.11312
 Alpha  occ. eigenvalues --   -1.10667  -1.06834  -1.06473  -1.05853  -1.02003
 Alpha  occ. eigenvalues --   -1.01370  -0.97236  -0.96181  -0.94580  -0.92729
 Alpha  occ. eigenvalues --   -0.91594  -0.89867  -0.88177  -0.86206  -0.85383
 Alpha  occ. eigenvalues --   -0.84190  -0.82350  -0.81424  -0.80699  -0.79153
 Alpha  occ. eigenvalues --   -0.78462  -0.76829  -0.76276  -0.74266  -0.73333
 Alpha  occ. eigenvalues --   -0.72625  -0.72039  -0.71025  -0.70119  -0.69010
 Alpha  occ. eigenvalues --   -0.68484  -0.67847  -0.67765  -0.67459  -0.65260
 Alpha  occ. eigenvalues --   -0.65157  -0.64823  -0.64649  -0.62827  -0.62700
 Alpha  occ. eigenvalues --   -0.61934  -0.61713  -0.61018  -0.60137  -0.59721
 Alpha  occ. eigenvalues --   -0.58981  -0.58800  -0.58620  -0.58309  -0.57611
 Alpha  occ. eigenvalues --   -0.56872  -0.56750  -0.56295  -0.55809  -0.55629
 Alpha  occ. eigenvalues --   -0.55411  -0.54899  -0.54291  -0.54154  -0.53592
 Alpha  occ. eigenvalues --   -0.52993  -0.52898  -0.52749  -0.52375  -0.52046
 Alpha  occ. eigenvalues --   -0.51922  -0.51682  -0.51197  -0.50939  -0.50318
 Alpha  occ. eigenvalues --   -0.50062  -0.49737  -0.49413  -0.49235  -0.49197
 Alpha  occ. eigenvalues --   -0.49034  -0.48299  -0.47425  -0.47240  -0.46992
 Alpha  occ. eigenvalues --   -0.46849  -0.46789  -0.45752  -0.45361  -0.44615
 Alpha  occ. eigenvalues --   -0.44238  -0.44153  -0.42913  -0.42839  -0.42469
 Alpha  occ. eigenvalues --   -0.42175  -0.41799  -0.41653  -0.41514  -0.41035
 Alpha  occ. eigenvalues --   -0.38780  -0.38411  -0.38349  -0.36935  -0.36287
 Alpha  occ. eigenvalues --   -0.35192  -0.34930  -0.34549  -0.32445  -0.31233
 Alpha  occ. eigenvalues --   -0.30897  -0.29380
 Alpha virt. eigenvalues --   -0.17514  -0.12595  -0.10489  -0.09796  -0.08872
 Alpha virt. eigenvalues --   -0.07012  -0.06613  -0.06177  -0.05094  -0.04603
 Alpha virt. eigenvalues --   -0.03877  -0.03755  -0.02722  -0.02494  -0.01620

 Mulliken charges:
               1
     1  N   -0.690669
     2  H    0.309267
     3  H    0.318472
     4  C   -0.084021
     5  H    0.144909
     6  C    0.593740
     7  C   -0.273994
     8  H    0.161827
     9  H    0.154748
    10  O   -0.526110
    11  C   -0.322873
    12  H    0.208828
    13  H    0.165100
    14  C    0.554766
    15  O   -0.445388
    16  O   -0.570153
    17  N   -0.598200
    18  H    0.350437
    19  C   -0.057252
    20  H    0.186426
    21  C    0.600557
    22  C   -0.353523
    23  H    0.140778
    24  H    0.191284
    25  O   -0.514521
    26  C    0.018614
    27  C   -0.016564
    28  H    0.216421
    29  C    0.040929
    30  C    0.325310
    31  C   -0.233051
    32  H    0.127035
    33  N   -0.693029
    34  H    0.345051
    35  C   -0.151123
    36  H    0.148622
    37  C   -0.157165
    38  H    0.147766
    39  C   -0.142796
    40  H    0.137419
    41  N   -0.625564
    42  H    0.357842
    43  C   -0.097322
    44  H    0.238220
    45  C    0.657342
    46  C    0.077387
    47  H    0.187043
    48  O   -0.564888
    49  C   -0.460172
    50  H    0.178274
    51  H    0.197628
    52  H    0.171011
    53  O   -0.687755
    54  H    0.449659
    55  N   -0.585714
    56  H    0.407557
    57  C   -0.057729
    58  H    0.227046
    59  C    0.603527
    60  C   -0.311501
    61  H    0.212534
    62  H    0.191833
    63  O   -0.451928
    64  C   -0.296094
    65  H    0.159561
    66  H    0.172507
    67  C   -0.168784
    68  H    0.200216
    69  H    0.160210
    70  N   -0.595807
    71  H    0.359963
    72  N   -0.752163
    73  H    0.361835
    74  H    0.351689
    75  N   -0.749636
    76  H    0.301557
    77  C    0.630037
    78  O   -0.550972
    79  H    0.490271
    80  H    0.442776
    81  H    0.410628
 Sum of Mulliken charges =   1.00000

 Dipole moment (field-independent basis, Debye):
    X=              4.0207    Y=              4.7331    Z=            -13.9940  Tot=             15.3102
 Quadrupole moment (field-independent basis, Debye-Ang):
   XX=           -196.0060   YY=           -212.8757   ZZ=           -197.7829
   XY=              1.1266   XZ=             12.1659   YZ=            -15.6845

 Normal termination of Gaussian 16 at Thu May 26 18:18:37 2022.
