 Gaussian 16, Revision C.01,
 Gaussian 16:  ES64L-G16RevC.01  3-Jul-2019

 -------------------------------------------------------------------
 # B3LYP/6-31G* guess=read geom=check nosymm integral(ultrafinegrid)
 -------------------------------------------------------------------

 ------------------------------------------------------
 Candidate Structure: Conf:197 Charge calc in gas phase
 ------------------------------------------------------
 Structure from the checkpoint file:  "conf-197.chk"
 Charge =  1 Multiplicity = 1

                          Input orientation:
 ---------------------------------------------------------------------
 Center     Atomic      Atomic             Coordinates (Angstroms)
 Number     Number       Type             X           Y           Z
 ---------------------------------------------------------------------
      1          7           0       -4.008241   -0.010537   -0.614000
      2          1           0       -4.994370   -0.112696   -0.384919
      3          1           0       -3.914368   -0.143360   -1.618393
      4          6           0       -3.544867    1.310139   -0.205644
      5          1           0       -4.152640    2.147530   -0.596795
      6          6           0       -2.115415    1.498308   -0.740613
      7          6           0       -3.580393    1.360826    1.342394
      8          1           0       -4.554684    0.960715    1.649197
      9          1           0       -2.832707    0.667266    1.736555
     10          8           0       -1.370362    0.524925   -0.974216
     11          6           0       -3.400926    2.751155    1.969520
     12          1           0       -4.246614    3.409789    1.752400
     13          1           0       -2.502115    3.247537    1.579242
     14          6           0       -3.197799    2.649693    3.470063
     15          8           0       -2.484075    1.835363    4.017943
     16          8           0       -3.885951    3.593653    4.143469
     17          7           0       -1.725969    2.776772   -0.933486
     18          1           0       -2.392812    3.513288   -0.719032
     19          6           0       -0.470675    3.241346   -1.550653
     20          1           0       -0.311629    2.646742   -2.459920
     21          6           0        0.757749    2.981657   -0.634249
     22          6           0       -0.601194    4.735663   -1.936736
     23          1           0       -1.162021    4.785262   -2.877075
     24          1           0        0.405597    5.104787   -2.151171
     25          8           0        1.402848    3.846999   -0.066554
     26          6           0       -1.276398    5.601530   -0.908475
     27          6           0       -0.692851    6.251421    0.154219
     28          1           0        0.345973    6.276569    0.449554
     29          6           0       -2.692908    5.886852   -0.834176
     30          6           0       -2.893477    6.714284    0.306466
     31          6           0       -3.811022    5.528368   -1.615041
     32          1           0       -3.693331    4.922963   -2.511331
     33          7           0       -1.655015    6.916052    0.881650
     34          1           0       -1.472757    7.501445    1.682973
     35          6           0       -5.241099    6.798132   -0.102430
     36          1           0       -6.236407    7.142949    0.161252
     37          6           0       -4.158432    7.176808    0.682921
     38          1           0       -4.292224    7.810594    1.555131
     39          6           0       -5.069566    5.984025   -1.241110
     40          1           0       -5.935784    5.721820   -1.841604
     41          7           0        1.067895    1.640696   -0.577234
     42          1           0        0.331794    1.023819   -0.939950
     43          6           0        1.953595    1.088431    0.431001
     44          1           0        2.459159    1.922631    0.927115
     45          6           0        2.968452    0.222382   -0.304263
     46          6           0        1.182069    0.212179    1.461572
     47          1           0        1.914310   -0.308114    2.089593
     48          8           0        2.638329   -0.984509   -0.652251
     49          6           0        0.234930    1.006761    2.341771
     50          1           0        0.795491    1.702473    2.974338
     51          1           0       -0.331837    0.337491    2.992558
     52          1           0       -0.474692    1.588665    1.749085
     53          8           0        0.518000   -0.851511    0.734778
     54          1           0       -0.318403   -0.527642    0.326020
     55          7           0        4.147786    0.682289   -0.626083
     56          1           0        4.431059    1.598904   -0.278005
     57          6           0        5.215447   -0.042812   -1.335804
     58          1           0        5.101750   -1.111570   -1.136844
     59          6           0        6.516368    0.471340   -0.714246
     60          6           0        5.213279    0.221689   -2.860466
     61          1           0        6.112917   -0.260325   -3.259765
     62          1           0        5.330561    1.300549   -3.027127
     63          8           0        6.573794    1.482359   -0.048064
     64          6           0        3.974825   -0.302501   -3.596863
     65          1           0        3.857496   -1.378920   -3.425215
     66          1           0        3.070895    0.184678   -3.205326
     67          6           0        4.067131   -0.044837   -5.104756
     68          1           0        4.187465    1.037538   -5.290928
     69          1           0        4.962530   -0.536197   -5.504114
     70          7           0        2.911970   -0.601695   -5.785716
     71          1           0        2.022728   -0.363411   -5.358114
     72          7           0        1.599976   -0.988154   -7.651849
     73          1           0        1.598160   -1.038407   -8.665182
     74          1           0        1.289665   -1.861521   -7.237341
     75          7           0        3.745555   -0.171343   -8.015124
     76          1           0        4.544187    0.258565   -7.549047
     77          6           0        2.846105   -0.554192   -7.189067
     78          8           0        7.553102   -0.304361   -1.036082
     79          1           0        1.714313   -1.187195   -0.251926
     80          1           0        8.361638    0.089489   -0.652325
     81          1           0       -3.686345    3.465766    5.091335
 ---------------------------------------------------------------------

 SCF Done:  E(RB3LYP) =  -2053.90976621     A.U. after    1 cycles

 Alpha  occ. eigenvalues --  -19.35214 -19.32797 -19.29853 -19.28007 -19.27515
 Alpha  occ. eigenvalues --  -19.24662 -19.24236 -19.22312 -14.54875 -14.48510
 Alpha  occ. eigenvalues --  -14.47995 -14.46383 -14.42258 -14.40849 -14.39826
 Alpha  occ. eigenvalues --  -14.34803 -10.48212 -10.45691 -10.41047 -10.41002
 Alpha  occ. eigenvalues --  -10.40678 -10.38705 -10.38565 -10.38238 -10.35383
 Alpha  occ. eigenvalues --  -10.34137 -10.32989 -10.32042 -10.31174 -10.30252
 Alpha  occ. eigenvalues --  -10.30100 -10.29997 -10.29536 -10.29189 -10.29108
 Alpha  occ. eigenvalues --  -10.28812 -10.26995 -10.26926 -10.26896 -10.26849
 Alpha  occ. eigenvalues --  -10.26216 -10.26076  -1.26137  -1.24010  -1.18884
 Alpha  occ. eigenvalues --   -1.16808  -1.15958  -1.15468  -1.15457  -1.11733
 Alpha  occ. eigenvalues --   -1.09803  -1.06277  -1.05472  -1.04531  -1.04080
 Alpha  occ. eigenvalues --   -0.98568  -0.95957  -0.94415  -0.91994  -0.91533
 Alpha  occ. eigenvalues --   -0.90238  -0.89892  -0.88444  -0.87158  -0.86082
 Alpha  occ. eigenvalues --   -0.84224  -0.81597  -0.80942  -0.80547  -0.79721
 Alpha  occ. eigenvalues --   -0.78022  -0.76952  -0.75838  -0.75078  -0.73013
 Alpha  occ. eigenvalues --   -0.71252  -0.70762  -0.70279  -0.70027  -0.69432
 Alpha  occ. eigenvalues --   -0.68205  -0.67817  -0.67049  -0.65854  -0.65081
 Alpha  occ. eigenvalues --   -0.64535  -0.64027  -0.62674  -0.62244  -0.62092
 Alpha  occ. eigenvalues --   -0.61783  -0.60872  -0.60806  -0.59927  -0.59761
 Alpha  occ. eigenvalues --   -0.59039  -0.58582  -0.57959  -0.57637  -0.57481
 Alpha  occ. eigenvalues --   -0.57133  -0.56715  -0.56576  -0.56490  -0.56202
 Alpha  occ. eigenvalues --   -0.55588  -0.54936  -0.54411  -0.53846  -0.53655
 Alpha  occ. eigenvalues --   -0.53096  -0.52830  -0.52616  -0.52169  -0.51704
 Alpha  occ. eigenvalues --   -0.51307  -0.50980  -0.50815  -0.50537  -0.50422
 Alpha  occ. eigenvalues --   -0.50061  -0.50001  -0.49489  -0.49288  -0.49135
 Alpha  occ. eigenvalues --   -0.48610  -0.48048  -0.47428  -0.46757  -0.46642
 Alpha  occ. eigenvalues --   -0.46245  -0.45785  -0.45725  -0.45670  -0.44804
 Alpha  occ. eigenvalues --   -0.44709  -0.44492  -0.44369  -0.43284  -0.43063
 Alpha  occ. eigenvalues --   -0.42876  -0.41599  -0.41400  -0.41140  -0.40312
 Alpha  occ. eigenvalues --   -0.40001  -0.38978  -0.37351  -0.36406  -0.35976
 Alpha  occ. eigenvalues --   -0.35631  -0.33089  -0.32710  -0.31936  -0.30440
 Alpha  occ. eigenvalues --   -0.29575  -0.28583
 Alpha virt. eigenvalues --   -0.17145  -0.12244  -0.11000  -0.10194  -0.09258
 Alpha virt. eigenvalues --   -0.07526  -0.05805  -0.05795  -0.03864  -0.03189
 Alpha virt. eigenvalues --   -0.02485  -0.01880  -0.01277  -0.01185  -0.00604

 Mulliken charges:
               1
     1  N   -0.713813
     2  H    0.316349
     3  H    0.314314
     4  C   -0.055855
     5  H    0.143471
     6  C    0.618887
     7  C   -0.270870
     8  H    0.169109
     9  H    0.184064
    10  O   -0.575293
    11  C   -0.379265
    12  H    0.193490
    13  H    0.176521
    14  C    0.582435
    15  O   -0.464093
    16  O   -0.552211
    17  N   -0.616956
    18  H    0.378178
    19  C   -0.052041
    20  H    0.182279
    21  C    0.613411
    22  C   -0.382704
    23  H    0.173755
    24  H    0.186417
    25  O   -0.492244
    26  C    0.023846
    27  C    0.023425
    28  H    0.182627
    29  C    0.049481
    30  C    0.318148
    31  C   -0.230510
    32  H    0.127757
    33  N   -0.685644
    34  H    0.342068
    35  C   -0.152983
    36  H    0.147011
    37  C   -0.156171
    38  H    0.144330
    39  C   -0.137719
    40  H    0.140427
    41  N   -0.632744
    42  H    0.377040
    43  C   -0.098467
    44  H    0.214111
    45  C    0.679504
    46  C    0.096900
    47  H    0.181669
    48  O   -0.566868
    49  C   -0.480456
    50  H    0.179585
    51  H    0.217822
    52  H    0.163205
    53  O   -0.676812
    54  H    0.459350
    55  N   -0.566360
    56  H    0.396895
    57  C   -0.079971
    58  H    0.225011
    59  C    0.604958
    60  C   -0.278318
    61  H    0.196422
    62  H    0.168291
    63  O   -0.451296
    64  C   -0.290944
    65  H    0.174262
    66  H    0.132779
    67  C   -0.122151
    68  H    0.143403
    69  H    0.170051
    70  N   -0.606823
    71  H    0.315807
    72  N   -0.753785
    73  H    0.344168
    74  H    0.322275
    75  N   -0.630093
    76  H    0.278812
    77  C    0.576238
    78  O   -0.545391
    79  H    0.485457
    80  H    0.443679
    81  H    0.419353
 Sum of Mulliken charges =   1.00000

 Dipole moment (field-independent basis, Debye):
    X=              5.2471    Y=              8.5105    Z=              0.7199  Tot=             10.0239
 Quadrupole moment (field-independent basis, Debye-Ang):
   XX=           -133.4174   YY=           -196.9304   ZZ=           -242.3261
   XY=            -25.1256   XZ=             -3.9202   YZ=             22.4605

 Normal termination of Gaussian 16 at Thu May 26 18:18:28 2022.
