 Gaussian 16, Revision C.01,
 Gaussian 16:  ES64L-G16RevC.01  3-Jul-2019

 -------------------------------------------------------------------
 # B3LYP/6-31G* guess=read geom=check nosymm integral(ultrafinegrid)
 -------------------------------------------------------------------

 ------------------------------------------------------
 Candidate Structure: Conf:962 Charge calc in gas phase
 ------------------------------------------------------
 Structure from the checkpoint file:  "conf-962.chk"
 Charge =  1 Multiplicity = 1

                          Input orientation:
 ---------------------------------------------------------------------
 Center     Atomic      Atomic             Coordinates (Angstroms)
 Number     Number       Type             X           Y           Z
 ---------------------------------------------------------------------
      1          7           0       -3.714914   -1.339600    3.399152
      2          1           0       -4.363070   -1.717406    2.709865
      3          1           0       -2.890803   -1.939159    3.361236
      4          6           0       -3.326933    0.016204    3.027506
      5          1           0       -4.243400    0.581750    2.830647
      6          6           0       -2.461063    0.031920    1.748786
      7          6           0       -2.594843    0.660325    4.228604
      8          1           0       -3.231760    0.488784    5.101473
      9          1           0       -1.660210    0.112296    4.406034
     10          8           0       -1.716327   -0.931669    1.481831
     11          6           0       -2.263895    2.166065    4.119173
     12          1           0       -1.585526    2.357646    3.281079
     13          1           0       -1.770309    2.482557    5.041671
     14          6           0       -3.505720    3.022659    3.962361
     15          8           0       -4.153582    3.511731    4.852527
     16          8           0       -3.846390    3.156951    2.643230
     17          7           0       -2.552270    1.115041    0.945357
     18          1           0       -3.180354    1.860760    1.239338
     19          6           0       -2.099433    1.150901   -0.451073
     20          1           0       -2.332013    0.174541   -0.900776
     21          6           0       -0.572138    1.327141   -0.593862
     22          6           0       -2.846306    2.251996   -1.231487
     23          1           0       -2.471306    2.223629   -2.258905
     24          1           0       -2.545841    3.228133   -0.834647
     25          8           0       -0.066443    2.181535   -1.333063
     26          6           0       -4.345793    2.115108   -1.176055
     27          6           0       -5.105940    1.068533   -1.655462
     28          1           0       -4.794229    0.174005   -2.185904
     29          6           0       -5.265517    3.045620   -0.565751
     30          6           0       -6.570472    2.495694   -0.701339
     31          6           0       -5.122707    4.293688    0.072551
     32          1           0       -4.145168    4.760985    0.164589
     33          7           0       -6.435875    1.296951   -1.368903
     34          1           0       -7.194477    0.685989   -1.631770
     35          6           0       -7.534450    4.354132    0.441338
     36          1           0       -8.398240    4.878009    0.839413
     37          6           0       -7.710989    3.136791   -0.202856
     38          1           0       -8.699210    2.699158   -0.314620
     39          6           0       -6.251836    4.930591    0.575659
     40          1           0       -6.153965    5.899544    1.057640
     41          7           0        0.184340    0.416867    0.075827
     42          1           0       -0.342660   -0.291246    0.613851
     43          6           0        1.628354    0.520183    0.208753
     44          1           0        1.889411    1.579478    0.360711
     45          6           0        2.381978    0.125439   -1.078100
     46          6           0        2.098836   -0.293835    1.452412
     47          1           0        1.722685    0.225335    2.340288
     48          8           0        3.459807   -0.605215   -1.048720
     49          6           0        1.653732   -1.752721    1.487660
     50          1           0        0.572942   -1.839578    1.624367
     51          1           0        2.141311   -2.240685    2.335705
     52          1           0        1.939138   -2.289285    0.576422
     53          8           0        3.545400   -0.307697    1.485692
     54          1           0        3.760957   -0.688338   -0.090446
     55          7           0        1.942473    0.553293   -2.226546
     56          1           0        1.174224    1.247238   -2.161565
     57          6           0        2.616694    0.338607   -3.511878
     58          1           0        2.978568   -0.694843   -3.536789
     59          6           0        3.848217    1.258400   -3.573554
     60          6           0        1.627792    0.566174   -4.672389
     61          1           0        2.171501    0.372479   -5.602297
     62          1           0        1.333705    1.624272   -4.693222
     63          8           0        4.198473    1.994780   -2.683038
     64          6           0        0.379732   -0.321380   -4.572160
     65          1           0        0.678024   -1.376383   -4.489390
     66          1           0       -0.176321   -0.077959   -3.658911
     67          6           0       -0.582484   -0.154900   -5.762392
     68          1           0       -0.771806    0.907045   -5.938653
     69          1           0       -0.137450   -0.556127   -6.679372
     70          7           0       -1.868808   -0.829105   -5.553965
     71          1           0       -1.783616   -1.839049   -5.512051
     72          7           0       -2.945253    1.038566   -4.655861
     73          1           0       -3.727329    1.338835   -4.082699
     74          1           0       -3.005981    1.412695   -5.597163
     75          7           0       -3.412530   -1.030556   -3.720083
     76          1           0       -3.097431   -2.001850   -3.705536
     77          6           0       -2.770357   -0.342778   -4.599124
     78          8           0        4.480752    1.113390   -4.748123
     79          1           0        3.890124    0.555488    1.772147
     80          1           0        5.257893    1.705782   -4.742824
     81          1           0       -4.672602    3.677440    2.570447
 ---------------------------------------------------------------------

 SCF Done:  E(RB3LYP) =  -2053.92050111     A.U. after    1 cycles

 Alpha  occ. eigenvalues --  -19.35160 -19.31921 -19.31525 -19.27890 -19.26018
 Alpha  occ. eigenvalues --  -19.25131 -19.22929 -19.21759 -14.53019 -14.48509
 Alpha  occ. eigenvalues --  -14.46324 -14.45328 -14.44040 -14.42852 -14.39554
 Alpha  occ. eigenvalues --  -14.37862 -10.47676 -10.44340 -10.41590 -10.39973
 Alpha  occ. eigenvalues --  -10.39713 -10.39654 -10.38892 -10.37864 -10.37118
 Alpha  occ. eigenvalues --  -10.34320 -10.32098 -10.31610 -10.31328 -10.30151
 Alpha  occ. eigenvalues --  -10.29895 -10.29128 -10.28785 -10.28568 -10.28270
 Alpha  occ. eigenvalues --  -10.28140 -10.26022 -10.26013 -10.25974 -10.25874
 Alpha  occ. eigenvalues --  -10.25432 -10.25350  -1.25982  -1.22572  -1.18408
 Alpha  occ. eigenvalues --   -1.18120  -1.16939  -1.14120  -1.13915  -1.10781
 Alpha  occ. eigenvalues --   -1.09462  -1.06464  -1.05677  -1.05179  -1.02784
 Alpha  occ. eigenvalues --   -0.97666  -0.97274  -0.94163  -0.93161  -0.91769
 Alpha  occ. eigenvalues --   -0.91045  -0.89134  -0.87667  -0.87025  -0.85384
 Alpha  occ. eigenvalues --   -0.84070  -0.80717  -0.80027  -0.79512  -0.78707
 Alpha  occ. eigenvalues --   -0.77924  -0.76242  -0.75928  -0.73721  -0.72952
 Alpha  occ. eigenvalues --   -0.71501  -0.70833  -0.69322  -0.69182  -0.68972
 Alpha  occ. eigenvalues --   -0.68896  -0.68654  -0.66881  -0.66454  -0.65697
 Alpha  occ. eigenvalues --   -0.64352  -0.64122  -0.63576  -0.63186  -0.62115
 Alpha  occ. eigenvalues --   -0.61217  -0.60789  -0.59991  -0.59711  -0.59178
 Alpha  occ. eigenvalues --   -0.59129  -0.58495  -0.57632  -0.57343  -0.57155
 Alpha  occ. eigenvalues --   -0.56456  -0.55922  -0.55601  -0.55272  -0.55115
 Alpha  occ. eigenvalues --   -0.54732  -0.54436  -0.54307  -0.54003  -0.53154
 Alpha  occ. eigenvalues --   -0.52808  -0.52607  -0.52184  -0.52070  -0.51900
 Alpha  occ. eigenvalues --   -0.51451  -0.51211  -0.50411  -0.50151  -0.50071
 Alpha  occ. eigenvalues --   -0.49932  -0.49644  -0.49316  -0.49028  -0.48558
 Alpha  occ. eigenvalues --   -0.48188  -0.47703  -0.47619  -0.47558  -0.46979
 Alpha  occ. eigenvalues --   -0.46149  -0.45798  -0.45049  -0.44978  -0.44581
 Alpha  occ. eigenvalues --   -0.44428  -0.44221  -0.44037  -0.43526  -0.42751
 Alpha  occ. eigenvalues --   -0.42425  -0.40728  -0.40551  -0.40036  -0.39833
 Alpha  occ. eigenvalues --   -0.39648  -0.39017  -0.36821  -0.36090  -0.35860
 Alpha  occ. eigenvalues --   -0.35267  -0.34658  -0.34329  -0.32208  -0.31759
 Alpha  occ. eigenvalues --   -0.29582  -0.27648
 Alpha virt. eigenvalues --   -0.16934  -0.11488  -0.11042  -0.08914  -0.08502
 Alpha virt. eigenvalues --   -0.07984  -0.07311  -0.04881  -0.04432  -0.03497
 Alpha virt. eigenvalues --   -0.03211  -0.02305  -0.01913  -0.01296  -0.00672

 Mulliken charges:
               1
     1  N   -0.686344
     2  H    0.311088
     3  H    0.312479
     4  C   -0.086298
     5  H    0.167601
     6  C    0.593556
     7  C   -0.267011
     8  H    0.200679
     9  H    0.146288
    10  O   -0.575266
    11  C   -0.351713
    12  H    0.151931
    13  H    0.191981
    14  C    0.577325
    15  O   -0.427241
    16  O   -0.596024
    17  N   -0.622624
    18  H    0.404463
    19  C   -0.068243
    20  H    0.207557
    21  C    0.642430
    22  C   -0.393614
    23  H    0.190057
    24  H    0.170854
    25  O   -0.547457
    26  C    0.017655
    27  C   -0.030828
    28  H    0.219426
    29  C    0.082473
    30  C    0.312287
    31  C   -0.242978
    32  H    0.133762
    33  N   -0.689839
    34  H    0.339764
    35  C   -0.148785
    36  H    0.146241
    37  C   -0.157961
    38  H    0.141685
    39  C   -0.160636
    40  H    0.142171
    41  N   -0.658111
    42  H    0.419857
    43  C   -0.069805
    44  H    0.221300
    45  C    0.646841
    46  C    0.053232
    47  H    0.188513
    48  O   -0.564756
    49  C   -0.488052
    50  H    0.216016
    51  H    0.202568
    52  H    0.163754
    53  O   -0.634785
    54  H    0.482230
    55  N   -0.569877
    56  H    0.433127
    57  C   -0.072409
    58  H    0.218124
    59  C    0.611040
    60  C   -0.310241
    61  H    0.197121
    62  H    0.175900
    63  O   -0.449277
    64  C   -0.276367
    65  H    0.143499
    66  H    0.157754
    67  C   -0.150462
    68  H    0.169970
    69  H    0.169496
    70  N   -0.575781
    71  H    0.318790
    72  N   -0.748338
    73  H    0.352519
    74  H    0.339139
    75  N   -0.643916
    76  H    0.274941
    77  C    0.557991
    78  O   -0.551923
    79  H    0.435068
    80  H    0.437899
    81  H    0.426520
 Sum of Mulliken charges =   1.00000

 Dipole moment (field-independent basis, Debye):
    X=              2.9759    Y=              0.9481    Z=             -8.2986  Tot=              8.8668
 Quadrupole moment (field-independent basis, Debye-Ang):
   XX=           -167.7004   YY=           -234.5532   ZZ=           -190.9621
   XY=             -1.6207   XZ=              4.8988   YZ=             -0.6116

 Normal termination of Gaussian 16 at Thu May 26 18:19:37 2022.
