 Gaussian 16, Revision C.01,
 Gaussian 16:  ES64L-G16RevC.01  3-Jul-2019

 -------------------------------------------------------------------
 # B3LYP/6-31G* guess=read geom=check nosymm integral(ultrafinegrid)
 -------------------------------------------------------------------

 ------------------------------------------------------
 Candidate Structure: Conf:123 Charge calc in gas phase
 ------------------------------------------------------
 Structure from the checkpoint file:  "conf-123.chk"
 Charge =  1 Multiplicity = 1

                          Input orientation:
 ---------------------------------------------------------------------
 Center     Atomic      Atomic             Coordinates (Angstroms)
 Number     Number       Type             X           Y           Z
 ---------------------------------------------------------------------
      1          7           0       -3.657969   -1.017647    3.212679
      2          1           0       -3.113271   -1.869731    3.090496
      3          1           0       -3.917988   -0.947492    4.193183
      4          6           0       -2.850499    0.126035    2.798711
      5          1           0       -3.498340    1.013859    2.798749
      6          6           0       -2.371732   -0.159663    1.371997
      7          6           0       -1.589770    0.429040    3.646238
      8          1           0       -0.939719   -0.451437    3.627985
      9          1           0       -1.023636    1.244614    3.177387
     10          8           0       -1.774677   -1.212196    1.118946
     11          6           0       -1.885302    0.810174    5.095239
     12          1           0       -2.442437    0.021795    5.617209
     13          1           0       -2.509996    1.710914    5.161032
     14          6           0       -0.612353    1.065135    5.877923
     15          8           0        0.515417    0.966418    5.444942
     16          8           0       -0.880436    1.427396    7.153521
     17          7           0       -2.571512    0.822976    0.457414
     18          1           0       -3.243696    1.547174    0.684408
     19          6           0       -2.256537    0.680728   -0.967094
     20          1           0       -2.503685   -0.346601   -1.260529
     21          6           0       -0.746434    0.913318   -1.225100
     22          6           0       -3.085920    1.687502   -1.792831
     23          1           0       -2.894309    1.475567   -2.851704
     24          1           0       -2.682437    2.689343   -1.613601
     25          8           0       -0.319906    1.937765   -1.755490
     26          6           0       -4.555892    1.656951   -1.495938
     27          6           0       -5.281800    2.676146   -0.924070
     28          1           0       -4.958200    3.663831   -0.621734
     29          6           0       -5.489733    0.583637   -1.746862
     30          6           0       -6.764381    1.024625   -1.300304
     31          6           0       -5.377729   -0.697512   -2.315981
     32          1           0       -4.419973   -1.062724   -2.677630
     33          7           0       -6.604285    2.302004   -0.799563
     34          1           0       -7.345185    2.888352   -0.448424
     35          6           0       -7.765388   -1.032210   -1.964650
     36          1           0       -8.634765   -1.676262   -2.058773
     37          6           0       -7.910280    0.228940   -1.400569
     38          1           0       -8.877102    0.582766   -1.053209
     39          6           0       -6.512055   -1.490844   -2.419784
     40          1           0       -6.437021   -2.481515   -2.858533
     41          7           0        0.073481   -0.098945   -0.822198
     42          1           0       -0.329568   -0.874070   -0.292366
     43          6           0        1.504601    0.086944   -0.874490
     44          1           0        1.661908    0.939066   -1.541823
     45          6           0        2.206691   -1.149542   -1.424589
     46          6           0        2.107341    0.484334    0.513349
     47          1           0        1.603739    1.413537    0.797220
     48          8           0        1.949367   -2.286623   -1.058782
     49          6           0        1.946195   -0.549659    1.620444
     50          1           0        0.903594   -0.867137    1.709758
     51          1           0        2.256422   -0.119298    2.576911
     52          1           0        2.543710   -1.444121    1.416511
     53          8           0        3.494398    0.839433    0.333937
     54          1           0        3.981870   -0.007246    0.187869
     55          7           0        3.232318   -0.904221   -2.312009
     56          1           0        3.454207    0.037488   -2.594045
     57          6           0        4.157431   -1.966278   -2.652566
     58          1           0        3.590530   -2.826497   -3.020241
     59          6           0        4.861811   -2.425196   -1.367697
     60          6           0        5.153355   -1.525223   -3.764796
     61          1           0        4.593269   -0.884032   -4.457481
     62          1           0        5.412287   -2.420863   -4.332992
     63          8           0        5.026911   -1.734858   -0.374726
     64          6           0        6.464817   -0.827874   -3.298669
     65          1           0        6.534801   -0.880396   -2.209094
     66          1           0        7.330702   -1.387791   -3.668473
     67          6           0        6.686295    0.627125   -3.759936
     68          1           0        7.645089    1.004337   -3.385243
     69          1           0        6.740576    0.675948   -4.849923
     70          7           0        5.618961    1.572740   -3.379062
     71          1           0        5.011546    1.905861   -4.115137
     72          7           0        6.017185    1.537346   -1.081451
     73          1           0        5.651766    1.669341   -0.145852
     74          1           0        6.835421    0.959646   -1.181814
     75          7           0        4.141570    2.583475   -1.875063
     76          1           0        3.508254    2.841032   -2.618835
     77          6           0        5.261127    1.883244   -2.122076
     78          8           0        5.331369   -3.668987   -1.485299
     79          1           0        3.695099    2.325375   -1.002386
     80          1           0        5.758446   -3.916784   -0.642188
     81          1           0       -0.018707    1.566849    7.589367
 ---------------------------------------------------------------------

 SCF Done:  E(RB3LYP) =  -2053.94021835     A.U. after    1 cycles

 Alpha  occ. eigenvalues --  -19.31654 -19.26556 -19.26486 -19.25529 -19.22087
 Alpha  occ. eigenvalues --  -19.20135 -19.19600 -19.19225 -14.54316 -14.53324
 Alpha  occ. eigenvalues --  -14.51854 -14.47516 -14.43745 -14.43739 -14.43491
 Alpha  occ. eigenvalues --  -14.37453 -10.49711 -10.44363 -10.39074 -10.38438
 Alpha  occ. eigenvalues --  -10.38320 -10.36570 -10.35958 -10.35896 -10.34073
 Alpha  occ. eigenvalues --  -10.33301 -10.33009 -10.32545 -10.30789 -10.29105
 Alpha  occ. eigenvalues --  -10.27831 -10.27106 -10.26795 -10.25947 -10.25395
 Alpha  occ. eigenvalues --  -10.25341 -10.24225 -10.23820 -10.23670 -10.23618
 Alpha  occ. eigenvalues --  -10.23298 -10.22898  -1.22826  -1.18501  -1.16504
 Alpha  occ. eigenvalues --   -1.14668  -1.13505  -1.12835  -1.11581  -1.10615
 Alpha  occ. eigenvalues --   -1.08007  -1.07544  -1.06048  -1.03958  -1.03379
 Alpha  occ. eigenvalues --   -1.00596  -0.99871  -0.95027  -0.93633  -0.88975
 Alpha  occ. eigenvalues --   -0.88873  -0.86940  -0.85997  -0.85525  -0.82989
 Alpha  occ. eigenvalues --   -0.82425  -0.80415  -0.79617  -0.78566  -0.78085
 Alpha  occ. eigenvalues --   -0.77028  -0.76812  -0.75421  -0.73207  -0.72496
 Alpha  occ. eigenvalues --   -0.71296  -0.70669  -0.70057  -0.69071  -0.67394
 Alpha  occ. eigenvalues --   -0.66668  -0.66104  -0.65812  -0.65597  -0.64542
 Alpha  occ. eigenvalues --   -0.64102  -0.63737  -0.62758  -0.61909  -0.61794
 Alpha  occ. eigenvalues --   -0.61723  -0.60797  -0.60357  -0.59383  -0.58870
 Alpha  occ. eigenvalues --   -0.58408  -0.58207  -0.56903  -0.56457  -0.56314
 Alpha  occ. eigenvalues --   -0.56021  -0.55436  -0.55382  -0.54644  -0.53929
 Alpha  occ. eigenvalues --   -0.53718  -0.53698  -0.53394  -0.52370  -0.52042
 Alpha  occ. eigenvalues --   -0.51739  -0.51554  -0.50642  -0.50269  -0.49447
 Alpha  occ. eigenvalues --   -0.49234  -0.49135  -0.48895  -0.48467  -0.48022
 Alpha  occ. eigenvalues --   -0.47907  -0.47817  -0.47328  -0.47247  -0.46654
 Alpha  occ. eigenvalues --   -0.46351  -0.45893  -0.45362  -0.45118  -0.44750
 Alpha  occ. eigenvalues --   -0.44618  -0.44195  -0.44081  -0.43880  -0.43254
 Alpha  occ. eigenvalues --   -0.42946  -0.42881  -0.42681  -0.42225  -0.41089
 Alpha  occ. eigenvalues --   -0.40221  -0.40215  -0.39384  -0.38404  -0.38323
 Alpha  occ. eigenvalues --   -0.37869  -0.36867  -0.36096  -0.35242  -0.33900
 Alpha  occ. eigenvalues --   -0.33357  -0.32753  -0.32517  -0.31789  -0.29470
 Alpha  occ. eigenvalues --   -0.27390  -0.25792
 Alpha virt. eigenvalues --   -0.14403  -0.11696  -0.10118  -0.08676  -0.07195
 Alpha virt. eigenvalues --   -0.06426  -0.06031  -0.05256  -0.05203  -0.04766
 Alpha virt. eigenvalues --   -0.03303  -0.02858  -0.02671  -0.02502  -0.00727

 Mulliken charges:
               1
     1  N   -0.711886
     2  H    0.320524
     3  H    0.306458
     4  C   -0.065302
     5  H    0.132471
     6  C    0.646103
     7  C   -0.263226
     8  H    0.171557
     9  H    0.144002
    10  O   -0.555683
    11  C   -0.365414
    12  H    0.175379
    13  H    0.180989
    14  C    0.584994
    15  O   -0.466833
    16  O   -0.562406
    17  N   -0.605937
    18  H    0.339921
    19  C   -0.049364
    20  H    0.187530
    21  C    0.632343
    22  C   -0.387172
    23  H    0.169593
    24  H    0.171019
    25  O   -0.541426
    26  C    0.050504
    27  C   -0.015645
    28  H    0.153327
    29  C    0.092193
    30  C    0.312971
    31  C   -0.206991
    32  H    0.120112
    33  N   -0.686349
    34  H    0.334862
    35  C   -0.147967
    36  H    0.136528
    37  C   -0.158350
    38  H    0.133089
    39  C   -0.136950
    40  H    0.130774
    41  N   -0.622671
    42  H    0.391770
    43  C   -0.067015
    44  H    0.143119
    45  C    0.620939
    46  C    0.112280
    47  H    0.169372
    48  O   -0.501328
    49  C   -0.490117
    50  H    0.189398
    51  H    0.184586
    52  H    0.168162
    53  O   -0.705654
    54  H    0.435299
    55  N   -0.622987
    56  H    0.315294
    57  C   -0.018606
    58  H    0.221736
    59  C    0.618745
    60  C   -0.318685
    61  H    0.160341
    62  H    0.203400
    63  O   -0.498549
    64  C   -0.303895
    65  H    0.157879
    66  H    0.196229
    67  C   -0.185492
    68  H    0.196815
    69  H    0.203797
    70  N   -0.592541
    71  H    0.368041
    72  N   -0.734907
    73  H    0.405698
    74  H    0.388071
    75  N   -0.749447
    76  H    0.373596
    77  C    0.764552
    78  O   -0.538994
    79  H    0.412227
    80  H    0.434500
    81  H    0.414697
 Sum of Mulliken charges =   1.00000

 Dipole moment (field-independent basis, Debye):
    X=             18.8886    Y=              5.9869    Z=             -7.8204  Tot=             21.3021
 Quadrupole moment (field-independent basis, Debye-Ang):
   XX=            -56.5122   YY=           -219.4852   ZZ=           -176.5993
   XY=            -12.6490   XZ=            -74.7854   YZ=             -1.1648

 Normal termination of Gaussian 16 at Thu May 26 18:18:26 2022.
