 Gaussian 16, Revision C.01,
 Gaussian 16:  ES64L-G16RevC.01  3-Jul-2019

 ----------------------------------------------------------------------
 # B3LYP/6-31G* empiricaldispersion=gd3 guess=read geom=check nosymm in
 tegral(ultrafinegrid)
 ----------------------------------------------------------------------

 ------------------------------------------------------
 Candidate Structure: Conf:472 Charge calc in gas phase
 ------------------------------------------------------
 Structure from the checkpoint file:  "conf-472.chk"
 Charge =  1 Multiplicity = 1

                          Input orientation:
 ---------------------------------------------------------------------
 Center     Atomic      Atomic             Coordinates (Angstroms)
 Number     Number       Type             X           Y           Z
 ---------------------------------------------------------------------
      1          7           0       -4.318330    2.506650   -1.109203
      2          1           0       -4.125025    3.442752   -0.767194
      3          1           0       -4.849199    2.590915   -1.973735
      4          6           0       -5.034685    1.708854   -0.121818
      5          1           0       -4.752817    2.062414    0.879334
      6          6           0       -4.532184    0.263920   -0.147609
      7          6           0       -6.594070    1.714105   -0.208357
      8          1           0       -6.983741    1.151956    0.645705
      9          1           0       -6.914303    2.755044   -0.094058
     10          8           0       -4.930896   -0.649862    0.510498
     11          6           0       -7.089050    1.126009   -1.509731
     12          6           0       -7.185707    1.914828   -2.666892
     13          1           0       -7.026827    2.989519   -2.601889
     14          6           0       -7.374284   -0.246199   -1.605184
     15          1           0       -7.330122   -0.864539   -0.712778
     16          6           0       -7.521103    1.341862   -3.896565
     17          1           0       -7.596267    1.967919   -4.780856
     18          6           0       -7.716498   -0.818048   -2.831771
     19          1           0       -7.947432   -1.878228   -2.886198
     20          6           0       -7.777869   -0.027905   -3.983009
     21          1           0       -8.047360   -0.472531   -4.936390
     22          7           0       -3.396076    0.031152   -1.131136
     23          6           0       -2.440702   -1.070807   -0.743368
     24          1           0       -2.749418   -1.452204    0.232105
     25          6           0       -1.053824   -0.406461   -0.683346
     26          6           0       -2.569116   -2.154090   -1.845466
     27          1           0       -1.732551   -2.070218   -2.547143
     28          1           0       -2.550697   -3.158922   -1.416514
     29          8           0       -0.935022    0.782835   -0.975645
     30          6           0       -3.902208   -1.829729   -2.537530
     31          1           0       -3.962082   -2.222340   -3.555689
     32          1           0       -4.749914   -2.224893   -1.968054
     33          6           0       -3.936387   -0.308571   -2.524423
     34          1           0       -4.924125    0.131521   -2.660286
     35          1           0       -3.232518    0.136663   -3.231840
     36          7           0       -0.040993   -1.215192   -0.320820
     37          1           0       -0.225280   -2.205824   -0.217562
     38          6           0        1.356228   -0.818343   -0.478749
     39          1           0        1.398138    0.263790   -0.322379
     40          6           0        1.878342   -1.058878   -1.899421
     41          6           0        2.262531   -1.517695    0.548292
     42          1           0        3.291185   -1.253401    0.289554
     43          1           0        2.180369   -2.608001    0.421286
     44          8           0        3.002742   -0.791409   -2.240635
     45          6           0        1.940737   -1.128099    1.996677
     46          1           0        2.061674   -0.040757    2.107540
     47          1           0        0.883719   -1.341687    2.204208
     48          6           0        2.818429   -1.848131    3.033003
     49          1           0        2.714840   -2.937263    2.913155
     50          1           0        2.440228   -1.612603    4.037333
     51          6           0        4.311488   -1.471171    2.974606
     52          1           0        4.734014   -1.747180    2.000423
     53          1           0        4.408726   -0.379436    3.051495
     54          7           0        5.159834   -2.070756    4.002388
     55          1           0        5.121754   -3.087266    3.942082
     56          1           0        4.815281   -1.826191    4.929786
     57          8           0        0.954575   -1.613495   -2.728461
     58          1           0        1.398833   -1.722137   -3.591827
     59          1           0       -2.861919    0.928771   -1.194305
 ---------------------------------------------------------------------

 SCF Done:  E(RB3LYP) =  -1300.57529464     A.U. after    3 cycles

 Alpha  occ. eigenvalues --  -19.32326 -19.30486 -19.26032 -19.24081 -14.57696
 Alpha  occ. eigenvalues --  -14.49674 -14.46680 -14.36973 -10.47208 -10.43074
 Alpha  occ. eigenvalues --  -10.42350 -10.38969 -10.38271 -10.38131 -10.35039
 Alpha  occ. eigenvalues --  -10.33718 -10.33332 -10.32248 -10.31539 -10.30491
 Alpha  occ. eigenvalues --  -10.30232 -10.30175 -10.30152 -10.29929 -10.28928
 Alpha  occ. eigenvalues --  -10.27303 -10.27036 -10.25599  -1.23911  -1.20964
 Alpha  occ. eigenvalues --   -1.18232  -1.12933  -1.12003  -1.06337  -1.04315
 Alpha  occ. eigenvalues --   -0.96965  -0.94805  -0.93974  -0.91804  -0.90462
 Alpha  occ. eigenvalues --   -0.89304  -0.85795  -0.85473  -0.84658  -0.80852
 Alpha  occ. eigenvalues --   -0.77918  -0.77144  -0.75353  -0.73917  -0.73001
 Alpha  occ. eigenvalues --   -0.71797  -0.71782  -0.71456  -0.69781  -0.68494
 Alpha  occ. eigenvalues --   -0.66249  -0.65905  -0.65042  -0.63527  -0.62545
 Alpha  occ. eigenvalues --   -0.62213  -0.61338  -0.59637  -0.59206  -0.58696
 Alpha  occ. eigenvalues --   -0.57707  -0.57613  -0.57304  -0.56691  -0.56436
 Alpha  occ. eigenvalues --   -0.56160  -0.55415  -0.55086  -0.54378  -0.53912
 Alpha  occ. eigenvalues --   -0.53245  -0.53143  -0.52443  -0.51980  -0.50917
 Alpha  occ. eigenvalues --   -0.50780  -0.50541  -0.50455  -0.50266  -0.49254
 Alpha  occ. eigenvalues --   -0.48548  -0.48057  -0.47625  -0.46964  -0.46234
 Alpha  occ. eigenvalues --   -0.45485  -0.45123  -0.44195  -0.43972  -0.43305
 Alpha  occ. eigenvalues --   -0.42231  -0.41496  -0.40849  -0.40069  -0.39922
 Alpha  occ. eigenvalues --   -0.39331  -0.36474  -0.36452  -0.35894  -0.28991
 Alpha virt. eigenvalues --   -0.18654  -0.12000  -0.11827  -0.11549  -0.09333
 Alpha virt. eigenvalues --   -0.06590  -0.05301  -0.04698  -0.03879  -0.02850
 Alpha virt. eigenvalues --   -0.02277  -0.00953  -0.00764  -0.00728   0.00623

 Mulliken charges:
               1
     1  N   -0.763358
     2  H    0.351072
     3  H    0.336051
     4  C   -0.081466
     5  H    0.217685
     6  C    0.594615
     7  C   -0.361284
     8  H    0.194559
     9  H    0.184624
    10  O   -0.376346
    11  C    0.136157
    12  C   -0.211514
    13  H    0.147584
    14  C   -0.200840
    15  H    0.160146
    16  C   -0.127220
    17  H    0.164292
    18  C   -0.133808
    19  H    0.159677
    20  C   -0.132867
    21  H    0.163614
    22  N   -0.593968
    23  C   -0.077344
    24  H    0.228358
    25  C    0.636817
    26  C   -0.318320
    27  H    0.201716
    28  H    0.189725
    29  O   -0.513697
    30  C   -0.290354
    31  H    0.200250
    32  H    0.190619
    33  C   -0.187403
    34  H    0.225181
    35  H    0.213366
    36  N   -0.588908
    37  H    0.347819
    38  C   -0.066745
    39  H    0.224734
    40  C    0.604624
    41  C   -0.297335
    42  H    0.203547
    43  H    0.140896
    44  O   -0.430249
    45  C   -0.264879
    46  H    0.147444
    47  H    0.128025
    48  C   -0.268052
    49  H    0.126996
    50  H    0.137378
    51  C   -0.144137
    52  H    0.148150
    53  H    0.147005
    54  N   -0.698031
    55  H    0.296928
    56  H    0.297894
    57  O   -0.585414
    58  H    0.427456
    59  H    0.438532
 Sum of Mulliken charges =   1.00000

 Dipole moment (field-independent basis, Debye):
    X=            -18.6214    Y=             -2.0817    Z=             -6.1038  Tot=             19.7065
 Quadrupole moment (field-independent basis, Debye-Ang):
   XX=            -86.4772   YY=           -132.4833   ZZ=           -127.4957
   XY=            -19.1072   XZ=             37.6168   YZ=              3.1717

 Normal termination of Gaussian 16 at Thu Jun  2 03:08:26 2022.
