 Gaussian 16, Revision C.01,
 Gaussian 16:  ES64L-G16RevC.01  3-Jul-2019

 ----------------------------------------------------------------------
 # B3LYP/6-31G* empiricaldispersion=gd3 guess=read geom=check nosymm in
 tegral(ultrafinegrid)
 ----------------------------------------------------------------------

 ------------------------------------------------------
 Candidate Structure: Conf:418 Charge calc in gas phase
 ------------------------------------------------------
 Structure from the checkpoint file:  "conf-418.chk"
 Charge =  1 Multiplicity = 1

                          Input orientation:
 ---------------------------------------------------------------------
 Center     Atomic      Atomic             Coordinates (Angstroms)
 Number     Number       Type             X           Y           Z
 ---------------------------------------------------------------------
      1          7           0       -4.313247    3.278914   -1.024935
      2          1           0       -5.130251    3.687959   -1.475199
      3          1           0       -3.692382    4.048206   -0.790567
      4          6           0       -4.702612    2.547334    0.186362
      5          1           0       -3.925023    2.711059    0.942947
      6          6           0       -4.620213    1.052366   -0.095955
      7          6           0       -6.079067    2.921532    0.784707
      8          1           0       -6.861088    2.668390    0.057596
      9          1           0       -6.253374    2.295264    1.665829
     10          8           0       -5.132992    0.154943    0.464773
     11          6           0       -6.129132    4.393010    1.128403
     12          6           0       -5.450436    4.877995    2.254630
     13          1           0       -4.932669    4.183183    2.913368
     14          6           0       -6.802222    5.299149    0.300634
     15          1           0       -7.350896    4.934088   -0.565848
     16          6           0       -5.445237    6.241439    2.546576
     17          1           0       -4.922370    6.603418    3.427094
     18          6           0       -6.800000    6.665382    0.591293
     19          1           0       -7.334823    7.355957   -0.054334
     20          6           0       -6.119058    7.138706    1.713345
     21          1           0       -6.118809    8.200059    1.943196
     22          7           0       -3.705780    0.737611   -1.287555
     23          6           0       -2.555632   -0.165541   -0.937355
     24          1           0       -2.965143   -0.982264   -0.332664
     25          6           0       -1.527685    0.659011   -0.156789
     26          6           0       -2.095720   -0.662351   -2.314893
     27          1           0       -1.484655    0.110793   -2.793975
     28          1           0       -1.486013   -1.566046   -2.237911
     29          8           0       -1.707895    1.864771    0.012839
     30          6           0       -3.417829   -0.902400   -3.070009
     31          1           0       -3.306648   -0.760702   -4.147140
     32          1           0       -3.771053   -1.923792   -2.904198
     33          6           0       -4.428349    0.100391   -2.463872
     34          1           0       -5.323012   -0.390276   -2.078044
     35          1           0       -4.719872    0.909327   -3.135953
     36          7           0       -0.452174   -0.015583    0.289873
     37          1           0       -0.306837   -0.971659   -0.010017
     38          6           0        0.701399    0.699298    0.840178
     39          1           0        0.341201    1.387246    1.608909
     40          6           0        1.389552    1.565518   -0.216599
     41          6           0        1.689803   -0.310670    1.458257
     42          1           0        2.120200   -0.927150    0.655357
     43          1           0        1.102122   -0.979745    2.097790
     44          8           0        2.055468    2.536671    0.040944
     45          6           0        2.813900    0.344182    2.274603
     46          1           0        3.347825    1.065851    1.648026
     47          1           0        2.365018    0.923731    3.093399
     48          6           0        3.812160   -0.671607    2.853228
     49          1           0        4.630580   -0.116991    3.331463
     50          1           0        4.269876   -1.248790    2.035604
     51          6           0        3.213299   -1.643400    3.887103
     52          1           0        2.706444   -1.065565    4.672475
     53          1           0        2.439472   -2.265500    3.418027
     54          7           0        4.159233   -2.548648    4.537748
     55          1           0        4.879509   -2.012051    5.019566
     56          1           0        4.645070   -3.108953    3.838467
     57          8           0        1.219135    1.081326   -1.474980
     58          1           0        1.737980    1.663775   -2.062737
     59          1           0       -3.376624    1.696469   -1.550997
 ---------------------------------------------------------------------

 SCF Done:  E(RB3LYP) =  -1300.56831650     A.U. after    1 cycles

 Alpha  occ. eigenvalues --  -19.32335 -19.30286 -19.26236 -19.24170 -14.57758
 Alpha  occ. eigenvalues --  -14.49985 -14.46833 -14.37183 -10.46772 -10.43475
 Alpha  occ. eigenvalues --  -10.42339 -10.39717 -10.38629 -10.37250 -10.35277
 Alpha  occ. eigenvalues --  -10.34552 -10.33933 -10.31238 -10.29716 -10.29382
 Alpha  occ. eigenvalues --  -10.28219 -10.28084 -10.27761 -10.27752 -10.27505
 Alpha  occ. eigenvalues --  -10.27314 -10.26853 -10.25420  -1.24789  -1.20920
 Alpha  occ. eigenvalues --   -1.18413  -1.13450  -1.11992  -1.06549  -1.04055
 Alpha  occ. eigenvalues --   -0.95227  -0.94718  -0.94170  -0.92082  -0.89754
 Alpha  occ. eigenvalues --   -0.89245  -0.84756  -0.84483  -0.83339  -0.80282
 Alpha  occ. eigenvalues --   -0.77883  -0.77211  -0.75318  -0.74347  -0.73470
 Alpha  occ. eigenvalues --   -0.71662  -0.71511  -0.69682  -0.68837  -0.67750
 Alpha  occ. eigenvalues --   -0.65583  -0.65399  -0.64591  -0.63265  -0.63048
 Alpha  occ. eigenvalues --   -0.61087  -0.60258  -0.60003  -0.59532  -0.59206
 Alpha  occ. eigenvalues --   -0.58664  -0.57651  -0.56944  -0.56510  -0.56185
 Alpha  occ. eigenvalues --   -0.55932  -0.54894  -0.54400  -0.54238  -0.53788
 Alpha  occ. eigenvalues --   -0.52968  -0.52289  -0.51645  -0.51093  -0.50969
 Alpha  occ. eigenvalues --   -0.50790  -0.50663  -0.49972  -0.49756  -0.48591
 Alpha  occ. eigenvalues --   -0.48365  -0.47994  -0.47685  -0.46438  -0.45021
 Alpha  occ. eigenvalues --   -0.44562  -0.44158  -0.43573  -0.43234  -0.43018
 Alpha  occ. eigenvalues --   -0.42092  -0.41441  -0.40912  -0.40425  -0.39919
 Alpha  occ. eigenvalues --   -0.39339  -0.36728  -0.33959  -0.33556  -0.29224
 Alpha virt. eigenvalues --   -0.18350  -0.12276  -0.09566  -0.09422  -0.09263
 Alpha virt. eigenvalues --   -0.07394  -0.05747  -0.04326  -0.03648  -0.02900
 Alpha virt. eigenvalues --   -0.02190  -0.01039  -0.00685  -0.00119   0.00371

 Mulliken charges:
               1
     1  N   -0.779175
     2  H    0.338240
     3  H    0.363781
     4  C   -0.068373
     5  H    0.234385
     6  C    0.599483
     7  C   -0.381651
     8  H    0.161217
     9  H    0.195297
    10  O   -0.366927
    11  C    0.173036
    12  C   -0.185397
    13  H    0.133530
    14  C   -0.200214
    15  H    0.127661
    16  C   -0.125284
    17  H    0.154956
    18  C   -0.126103
    19  H    0.153878
    20  C   -0.125756
    21  H    0.157029
    22  N   -0.583856
    23  C   -0.098832
    24  H    0.223484
    25  C    0.658265
    26  C   -0.299574
    27  H    0.195153
    28  H    0.192982
    29  O   -0.531063
    30  C   -0.308848
    31  H    0.201783
    32  H    0.195253
    33  C   -0.158766
    34  H    0.221767
    35  H    0.210583
    36  N   -0.614892
    37  H    0.349098
    38  C   -0.018818
    39  H    0.209274
    40  C    0.601541
    41  C   -0.318132
    42  H    0.152533
    43  H    0.169754
    44  O   -0.433482
    45  C   -0.275426
    46  H    0.173726
    47  H    0.147026
    48  C   -0.270958
    49  H    0.145334
    50  H    0.128918
    51  C   -0.142147
    52  H    0.145030
    53  H    0.133397
    54  N   -0.699952
    55  H    0.300859
    56  H    0.296520
    57  O   -0.585940
    58  H    0.426178
    59  H    0.428615
 Sum of Mulliken charges =   1.00000

 Dipole moment (field-independent basis, Debye):
    X=            -13.7436    Y=              4.9585    Z=             -6.0393  Tot=             15.8097
 Quadrupole moment (field-independent basis, Debye-Ang):
   XX=            -78.4979   YY=           -129.6134   ZZ=           -142.7221
   XY=            -41.8064   XZ=             24.7339   YZ=              8.5854

 Normal termination of Gaussian 16 at Thu Jun  2 03:08:09 2022.
