 Gaussian 16, Revision C.01,
 Gaussian 16:  ES64L-G16RevC.01  3-Jul-2019

 ----------------------------------------------------------------------
 # B3LYP/6-31G* empiricaldispersion=gd3 guess=read geom=check nosymm in
 tegral(ultrafinegrid)
 ----------------------------------------------------------------------

 ------------------------------------------------------
 Candidate Structure: Conf:607 Charge calc in gas phase
 ------------------------------------------------------
 Structure from the checkpoint file:  "conf-607.chk"
 Charge =  1 Multiplicity = 1

                          Input orientation:
 ---------------------------------------------------------------------
 Center     Atomic      Atomic             Coordinates (Angstroms)
 Number     Number       Type             X           Y           Z
 ---------------------------------------------------------------------
      1          7           0       -1.120388   -0.329574   -4.058959
      2          1           0       -1.153588   -0.454580   -5.066029
      3          1           0       -0.158226   -0.436576   -3.746811
      4          6           0       -1.639634    0.981623   -3.656203
      5          1           0       -0.841619    1.712897   -3.480041
      6          6           0       -2.355137    0.847422   -2.313205
      7          6           0       -2.635244    1.592382   -4.684481
      8          1           0       -2.818783    2.627188   -4.380801
      9          1           0       -2.117700    1.630981   -5.650575
     10          8           0       -2.782069    1.711003   -1.611151
     11          6           0       -3.947201    0.843765   -4.790408
     12          6           0       -4.062251   -0.327345   -5.553744
     13          1           0       -3.219129   -0.675920   -6.145159
     14          6           0       -5.068788    1.295217   -4.078650
     15          1           0       -4.999478    2.210215   -3.495781
     16          6           0       -5.259817   -1.044501   -5.583867
     17          1           0       -5.334324   -1.945444   -6.186077
     18          6           0       -6.270254    0.584447   -4.112773
     19          1           0       -7.132014    0.955588   -3.565446
     20          6           0       -6.366030   -0.592578   -4.857925
     21          1           0       -7.301127   -1.143922   -4.890962
     22          7           0       -2.564385   -0.612581   -1.893661
     23          6           0       -2.107571   -0.879753   -0.487257
     24          1           0       -2.569230   -0.094855    0.122906
     25          6           0       -0.586231   -0.725473   -0.448079
     26          6           0       -2.702617   -2.263005   -0.166586
     27          1           0       -1.972291   -3.045219   -0.395945
     28          1           0       -2.949110   -2.340756    0.895564
     29          8           0       -0.006152   -0.189587   -1.395264
     30          6           0       -3.961369   -2.381189   -1.074463
     31          1           0       -3.889568   -3.265276   -1.712968
     32          1           0       -4.882806   -2.472611   -0.495130
     33          6           0       -3.995021   -1.098942   -1.926744
     34          1           0       -4.601991   -0.307364   -1.483386
     35          1           0       -4.297967   -1.243765   -2.962839
     36          7           0        0.020648   -1.171855    0.665789
     37          1           0       -0.519421   -1.706270    1.334968
     38          6           0        1.474608   -1.252732    0.779625
     39          1           0        1.887522   -0.448183    0.164381
     40          6           0        2.032677   -2.558465    0.205132
     41          6           0        1.934441   -1.071301    2.236895
     42          1           0        3.014827   -1.246135    2.257096
     43          1           0        1.481799   -1.857857    2.859111
     44          8           0        3.212122   -2.800630    0.150563
     45          6           0        1.604999    0.312161    2.805755
     46          1           0        2.074333    1.076180    2.170319
     47          1           0        0.521188    0.490430    2.753106
     48          6           0        2.076959    0.482948    4.253967
     49          1           0        3.162808    0.316332    4.306234
     50          1           0        1.613541   -0.292367    4.881690
     51          6           0        1.747027    1.868546    4.845089
     52          1           0        0.659622    2.023920    4.815466
     53          1           0        2.028182    1.875591    5.904853
     54          7           0        2.377534    3.026592    4.213253
     55          1           0        2.107250    3.105149    3.235253
     56          1           0        3.392000    2.934883    4.232346
     57          8           0        1.066540   -3.416172   -0.214459
     58          1           0        1.531993   -4.212627   -0.536426
     59          1           0       -1.989063   -1.115698   -2.613467
 ---------------------------------------------------------------------

 SCF Done:  E(RB3LYP) =  -1300.57846186     A.U. after    2 cycles

 Alpha  occ. eigenvalues --  -19.31322 -19.30854 -19.26520 -19.24494 -14.57450
 Alpha  occ. eigenvalues --  -14.50270 -14.46842 -14.37625 -10.46470 -10.43726
 Alpha  occ. eigenvalues --  -10.42779 -10.39461 -10.37500 -10.37449 -10.35507
 Alpha  occ. eigenvalues --  -10.34311 -10.33566 -10.32297 -10.31200 -10.30243
 Alpha  occ. eigenvalues --  -10.29920 -10.29901 -10.29749 -10.29685 -10.29445
 Alpha  occ. eigenvalues --  -10.27618 -10.27370 -10.25805  -1.23086  -1.21367
 Alpha  occ. eigenvalues --   -1.18469  -1.13175  -1.12424  -1.06886  -1.04066
 Alpha  occ. eigenvalues --   -0.96714  -0.94663  -0.94475  -0.91882  -0.90325
 Alpha  occ. eigenvalues --   -0.89503  -0.85387  -0.85097  -0.84930  -0.81014
 Alpha  occ. eigenvalues --   -0.78480  -0.77602  -0.75128  -0.74094  -0.73323
 Alpha  occ. eigenvalues --   -0.72416  -0.71831  -0.71515  -0.69573  -0.68205
 Alpha  occ. eigenvalues --   -0.66182  -0.64508  -0.64216  -0.63785  -0.62989
 Alpha  occ. eigenvalues --   -0.62113  -0.60760  -0.59975  -0.59660  -0.59180
 Alpha  occ. eigenvalues --   -0.58527  -0.57932  -0.57063  -0.56388  -0.56260
 Alpha  occ. eigenvalues --   -0.55930  -0.55614  -0.55407  -0.55147  -0.53899
 Alpha  occ. eigenvalues --   -0.53380  -0.52765  -0.52407  -0.51367  -0.51201
 Alpha  occ. eigenvalues --   -0.50947  -0.50774  -0.50700  -0.50133  -0.49951
 Alpha  occ. eigenvalues --   -0.49297  -0.48288  -0.47843  -0.46521  -0.46270
 Alpha  occ. eigenvalues --   -0.44963  -0.44830  -0.44485  -0.43881  -0.43315
 Alpha  occ. eigenvalues --   -0.42442  -0.42020  -0.41084  -0.40556  -0.40318
 Alpha  occ. eigenvalues --   -0.39461  -0.36928  -0.36070  -0.35707  -0.29572
 Alpha virt. eigenvalues --   -0.17617  -0.12430  -0.11633  -0.11273  -0.09770
 Alpha virt. eigenvalues --   -0.06995  -0.05470  -0.04556  -0.04100  -0.02376
 Alpha virt. eigenvalues --   -0.01951  -0.01383  -0.00698  -0.00282   0.00179

 Mulliken charges:
               1
     1  N   -0.787367
     2  H    0.343798
     3  H    0.365918
     4  C   -0.036077
     5  H    0.214785
     6  C    0.620818
     7  C   -0.391446
     8  H    0.198821
     9  H    0.186313
    10  O   -0.393716
    11  C    0.142461
    12  C   -0.187689
    13  H    0.133476
    14  C   -0.194366
    15  H    0.158106
    16  C   -0.136272
    17  H    0.160344
    18  C   -0.133873
    19  H    0.161041
    20  C   -0.135661
    21  H    0.162179
    22  N   -0.579808
    23  C   -0.087831
    24  H    0.235219
    25  C    0.653183
    26  C   -0.322253
    27  H    0.198043
    28  H    0.190452
    29  O   -0.538296
    30  C   -0.308218
    31  H    0.192004
    32  H    0.199833
    33  C   -0.172191
    34  H    0.213433
    35  H    0.228688
    36  N   -0.593918
    37  H    0.351664
    38  C   -0.067257
    39  H    0.220155
    40  C    0.601112
    41  C   -0.293954
    42  H    0.196795
    43  H    0.144633
    44  O   -0.430945
    45  C   -0.258479
    46  H    0.134495
    47  H    0.127630
    48  C   -0.264403
    49  H    0.140314
    50  H    0.133215
    51  C   -0.145691
    52  H    0.138612
    53  H    0.158912
    54  N   -0.700174
    55  H    0.294198
    56  H    0.300400
    57  O   -0.585450
    58  H    0.427934
    59  H    0.416353
 Sum of Mulliken charges =   1.00000

 Dipole moment (field-independent basis, Debye):
    X=            -11.2680    Y=             -6.4422    Z=             -8.8788  Tot=             15.7259
 Quadrupole moment (field-independent basis, Debye-Ang):
   XX=           -112.9246   YY=           -150.4695   ZZ=           -111.1780
   XY=             15.7722   XZ=             33.1160   YZ=             -3.8920

 Normal termination of Gaussian 16 at Thu Jun  2 03:08:34 2022.
