 Gaussian 16, Revision C.01,
 Gaussian 16:  ES64L-G16RevC.01  3-Jul-2019

 ----------------------------------------------------------------------
 # B3LYP/6-31G* empiricaldispersion=gd3 guess=read geom=check nosymm in
 tegral(ultrafinegrid)
 ----------------------------------------------------------------------

 ------------------------------------------------------
 Candidate Structure: Conf:883 Charge calc in gas phase
 ------------------------------------------------------
 Structure from the checkpoint file:  "conf-883.chk"
 Charge =  1 Multiplicity = 1

                          Input orientation:
 ---------------------------------------------------------------------
 Center     Atomic      Atomic             Coordinates (Angstroms)
 Number     Number       Type             X           Y           Z
 ---------------------------------------------------------------------
      1          7           0       -4.822036    1.466173    2.127258
      2          1           0       -5.802628    1.366677    2.374530
      3          1           0       -4.287112    0.950646    2.823001
      4          6           0       -4.440364    2.873945    2.112264
      5          1           0       -5.331272    3.478125    1.901874
      6          6           0       -3.496146    3.221112    0.959385
      7          6           0       -3.810133    3.422328    3.435854
      8          1           0       -3.654096    4.498798    3.318469
      9          1           0       -4.556521    3.278396    4.224198
     10          8           0       -3.140656    4.326752    0.678598
     11          6           0       -2.513599    2.724221    3.778342
     12          6           0       -2.510675    1.534652    4.523243
     13          1           0       -3.437149    1.171861    4.963970
     14          6           0       -1.291900    3.209210    3.280027
     15          1           0       -1.272206    4.140629    2.720500
     16          6           0       -1.321983    0.831002    4.743821
     17          1           0       -1.336818   -0.080803    5.334057
     18          6           0       -0.104275    2.513641    3.508226
     19          1           0        0.832409    2.908920    3.126300
     20          6           0       -0.117226    1.318092    4.233340
     21          1           0        0.810484    0.785262    4.422727
     22          7           0       -2.961424    2.102932    0.073621
     23          6           0       -2.180536    0.970029    0.727660
     24          1           0       -2.248196    1.038284    1.812087
     25          6           0       -0.730498    1.187866    0.253411
     26          6           0       -2.785324   -0.322302    0.139107
     27          1           0       -2.024263   -1.098687    0.027709
     28          1           0       -3.577846   -0.684306    0.798280
     29          8           0       -0.507831    1.970042   -0.674484
     30          6           0       -3.366090    0.130874   -1.209624
     31          1           0       -2.569520    0.242213   -1.952819
     32          1           0       -4.113199   -0.561575   -1.604625
     33          6           0       -3.984135    1.488265   -0.881859
     34          1           0       -4.915980    1.384264   -0.328567
     35          1           0       -4.103878    2.166950   -1.727915
     36          7           0        0.203972    0.450440    0.865655
     37          1           0       -0.069539   -0.176640    1.611151
     38          6           0        1.568978    0.357594    0.353109
     39          1           0        1.914166    1.367202    0.114796
     40          6           0        1.633615   -0.431554   -0.956312
     41          6           0        2.481356   -0.267008    1.428152
     42          1           0        2.175796   -1.310026    1.596573
     43          1           0        2.290681    0.276336    2.363532
     44          8           0        2.554658   -0.365173   -1.730769
     45          6           0        3.977497   -0.199157    1.103968
     46          1           0        4.184732   -0.745916    0.176810
     47          1           0        4.249849    0.848102    0.921763
     48          6           0        4.834435   -0.753311    2.248074
     49          1           0        4.554856   -1.798216    2.445965
     50          1           0        4.634406   -0.180391    3.163278
     51          6           0        6.338767   -0.686747    1.957493
     52          1           0        6.876044   -1.089722    2.823339
     53          1           0        6.572505   -1.350327    1.105311
     54          7           0        6.774391    0.702982    1.762745
     55          1           0        6.598450    0.993634    0.802861
     56          1           0        7.781976    0.770792    1.889009
     57          8           0        0.564398   -1.253523   -1.129105
     58          1           0        0.725363   -1.734789   -1.963762
     59          1           0       -2.218782    2.560880   -0.508648
 ---------------------------------------------------------------------

 SCF Done:  E(RB3LYP) =  -1300.57369147     A.U. after    1 cycles

 Alpha  occ. eigenvalues --  -19.31771 -19.30426 -19.26527 -19.24215 -14.57871
 Alpha  occ. eigenvalues --  -14.49911 -14.46794 -14.37249 -10.47032 -10.43178
 Alpha  occ. eigenvalues --  -10.42421 -10.39238 -10.38368 -10.37754 -10.35334
 Alpha  occ. eigenvalues --  -10.33470 -10.33112 -10.32587 -10.32292 -10.31299
 Alpha  occ. eigenvalues --  -10.31165 -10.30968 -10.30876 -10.30844 -10.29855
 Alpha  occ. eigenvalues --  -10.27051 -10.26497 -10.25156  -1.23551  -1.20990
 Alpha  occ. eigenvalues --   -1.18673  -1.12616  -1.12056  -1.06687  -1.04393
 Alpha  occ. eigenvalues --   -0.97724  -0.94643  -0.94070  -0.91858  -0.90923
 Alpha  occ. eigenvalues --   -0.89470  -0.86516  -0.85951  -0.84403  -0.80490
 Alpha  occ. eigenvalues --   -0.78684  -0.77981  -0.75421  -0.74521  -0.73201
 Alpha  occ. eigenvalues --   -0.72572  -0.71675  -0.70789  -0.69986  -0.68238
 Alpha  occ. eigenvalues --   -0.65706  -0.64996  -0.64640  -0.63542  -0.62928
 Alpha  occ. eigenvalues --   -0.62051  -0.61820  -0.60178  -0.59968  -0.59079
 Alpha  occ. eigenvalues --   -0.58232  -0.57866  -0.57423  -0.56900  -0.56194
 Alpha  occ. eigenvalues --   -0.55953  -0.55487  -0.55291  -0.55135  -0.54420
 Alpha  occ. eigenvalues --   -0.53878  -0.53170  -0.52765  -0.51843  -0.51547
 Alpha  occ. eigenvalues --   -0.50696  -0.50560  -0.50088  -0.49914  -0.49496
 Alpha  occ. eigenvalues --   -0.48859  -0.48791  -0.47746  -0.47503  -0.45966
 Alpha  occ. eigenvalues --   -0.45897  -0.45736  -0.44999  -0.44012  -0.42458
 Alpha  occ. eigenvalues --   -0.41679  -0.41218  -0.40762  -0.40372  -0.39896
 Alpha  occ. eigenvalues --   -0.39204  -0.37392  -0.36874  -0.36272  -0.29611
 Alpha virt. eigenvalues --   -0.18566  -0.13373  -0.12794  -0.11390  -0.09583
 Alpha virt. eigenvalues --   -0.07108  -0.05031  -0.04881  -0.03957  -0.02887
 Alpha virt. eigenvalues --   -0.02508  -0.01794  -0.01262  -0.01020   0.00489

 Mulliken charges:
               1
     1  N   -0.754685
     2  H    0.343784
     3  H    0.327818
     4  C   -0.079304
     5  H    0.214939
     6  C    0.596371
     7  C   -0.369019
     8  H    0.201881
     9  H    0.183935
    10  O   -0.359974
    11  C    0.139382
    12  C   -0.212842
    13  H    0.150158
    14  C   -0.205120
    15  H    0.169346
    16  C   -0.133484
    17  H    0.164844
    18  C   -0.124740
    19  H    0.166437
    20  C   -0.153581
    21  H    0.163689
    22  N   -0.597885
    23  C   -0.088685
    24  H    0.207483
    25  C    0.651885
    26  C   -0.293399
    27  H    0.202043
    28  H    0.187907
    29  O   -0.522630
    30  C   -0.314013
    31  H    0.197117
    32  H    0.200773
    33  C   -0.151506
    34  H    0.220292
    35  H    0.216453
    36  N   -0.605831
    37  H    0.348683
    38  C   -0.026022
    39  H    0.215013
    40  C    0.604284
    41  C   -0.318053
    42  H    0.152094
    43  H    0.158068
    44  O   -0.430952
    45  C   -0.275713
    46  H    0.167544
    47  H    0.155778
    48  C   -0.236933
    49  H    0.127649
    50  H    0.139889
    51  C   -0.150561
    52  H    0.150202
    53  H    0.126016
    54  N   -0.721330
    55  H    0.300979
    56  H    0.309905
    57  O   -0.584174
    58  H    0.426990
    59  H    0.420806
 Sum of Mulliken charges =   1.00000

 Dipole moment (field-independent basis, Debye):
    X=            -12.0296    Y=              2.7139    Z=              7.1713  Tot=             14.2655
 Quadrupole moment (field-independent basis, Debye-Ang):
   XX=            -77.3127   YY=           -151.6815   ZZ=           -136.7164
   XY=            -27.3259   XZ=            -14.3546   YZ=             10.5257

 Normal termination of Gaussian 16 at Thu Jun  2 03:15:11 2022.
