 Gaussian 16, Revision C.01,
 Gaussian 16:  ES64L-G16RevC.01  3-Jul-2019

 ----------------------------------------------------------------------
 # B3LYP/6-31G* empiricaldispersion=gd3 guess=read geom=check nosymm in
 tegral(ultrafinegrid)
 ----------------------------------------------------------------------

 ------------------------------------------------------
 Candidate Structure: Conf:684 Charge calc in gas phase
 ------------------------------------------------------
 Structure from the checkpoint file:  "conf-684.chk"
 Charge =  1 Multiplicity = 1

                          Input orientation:
 ---------------------------------------------------------------------
 Center     Atomic      Atomic             Coordinates (Angstroms)
 Number     Number       Type             X           Y           Z
 ---------------------------------------------------------------------
      1          7           0       -2.092193    0.943727    3.421796
      2          1           0       -1.232545    1.489259    3.603427
      3          1           0       -1.896743    0.056713    2.976591
      4          6           0       -3.212642    1.697470    2.882343
      5          1           0       -3.921549    1.005671    2.413487
      6          6           0       -2.646151    2.643446    1.842133
      7          6           0       -3.953372    2.495865    3.980340
      8          1           0       -3.209465    3.089545    4.522221
      9          1           0       -4.639473    3.205502    3.501303
     10          8           0       -2.179358    3.731310    2.008626
     11          6           0       -4.710066    1.572297    4.905291
     12          6           0       -6.065928    1.303769    4.676216
     13          1           0       -6.582870    1.801484    3.857408
     14          6           0       -4.065067    0.937628    5.974617
     15          1           0       -3.013492    1.136740    6.156354
     16          6           0       -6.766656    0.420692    5.498642
     17          1           0       -7.820593    0.231053    5.315597
     18          6           0       -4.763585    0.054716    6.798491
     19          1           0       -4.253827   -0.425612    7.628981
     20          6           0       -6.115037   -0.206770    6.562141
     21          1           0       -6.659535   -0.889416    7.208211
     22          7           0       -2.557384    2.143084    0.365566
     23          6           0       -2.265172    0.694039    0.036550
     24          1           0       -2.560559    0.065185    0.873975
     25          6           0       -0.733234    0.657536   -0.152076
     26          6           0       -3.097770    0.388544   -1.238785
     27          1           0       -2.509117   -0.154703   -1.982169
     28          1           0       -3.955453   -0.235624   -0.971303
     29          8           0       -0.135480    1.724633   -0.326774
     30          6           0       -3.566616    1.766874   -1.743252
     31          1           0       -2.797090    2.239123   -2.363482
     32          1           0       -4.487104    1.710810   -2.328699
     33          6           0       -3.757853    2.563632   -0.455475
     34          1           0       -4.655743    2.258702    0.091247
     35          1           0       -3.744079    3.649448   -0.560557
     36          7           0       -0.150439   -0.541990   -0.066428
     37          1           0       -0.698000   -1.396010   -0.035953
     38          6           0        1.300719   -0.710402   -0.013295
     39          1           0        1.760114    0.149356   -0.504829
     40          6           0        1.634010   -1.987474   -0.772197
     41          6           0        1.798341   -0.832380    1.455440
     42          1           0        2.892811   -0.879652    1.433263
     43          1           0        1.445602   -1.795410    1.847124
     44          8           0        0.814036   -2.838432   -1.042837
     45          6           0        1.309405    0.297908    2.372910
     46          1           0        0.233558    0.428099    2.227532
     47          1           0        1.415768   -0.033436    3.411763
     48          6           0        2.020422    1.651666    2.188972
     49          1           0        2.361000    1.771815    1.153404
     50          1           0        2.925115    1.669287    2.810773
     51          6           0        1.136747    2.866123    2.507814
     52          1           0        1.766841    3.767996    2.528710
     53          1           0        0.418153    3.001038    1.694160
     54          7           0        0.350512    2.693949    3.749505
     55          1           0       -0.130024    3.569985    3.955476
     56          1           0        0.976511    2.529706    4.538565
     57          8           0        2.943651   -2.067679   -1.040592
     58          1           0        3.110613   -2.925947   -1.476898
     59          1           0       -1.702873    2.626241    0.003317
 ---------------------------------------------------------------------

 SCF Done:  E(RB3LYP) =  -1300.57055362     A.U. after    1 cycles

 Alpha  occ. eigenvalues --  -19.31402 -19.31025 -19.27350 -19.25597 -14.58429
 Alpha  occ. eigenvalues --  -14.50825 -14.44114 -14.42649 -10.46420 -10.44369
 Alpha  occ. eigenvalues --  -10.43715 -10.40520 -10.39130 -10.36857 -10.36123
 Alpha  occ. eigenvalues --  -10.34892 -10.34308 -10.30408 -10.30395 -10.29668
 Alpha  occ. eigenvalues --  -10.28826 -10.28006 -10.27849 -10.26885 -10.26480
 Alpha  occ. eigenvalues --  -10.26475 -10.26335 -10.26271  -1.23169  -1.22114
 Alpha  occ. eigenvalues --   -1.19546  -1.13505  -1.13259  -1.07377  -1.02031
 Alpha  occ. eigenvalues --   -0.98525  -0.95187  -0.93335  -0.92946  -0.90627
 Alpha  occ. eigenvalues --   -0.87918  -0.86592  -0.83219  -0.81932  -0.80945
 Alpha  occ. eigenvalues --   -0.79741  -0.77679  -0.76454  -0.74846  -0.73278
 Alpha  occ. eigenvalues --   -0.72529  -0.71362  -0.69818  -0.68230  -0.67852
 Alpha  occ. eigenvalues --   -0.67315  -0.65786  -0.64285  -0.63551  -0.61817
 Alpha  occ. eigenvalues --   -0.61145  -0.60990  -0.60526  -0.59726  -0.59343
 Alpha  occ. eigenvalues --   -0.58784  -0.58423  -0.57807  -0.57444  -0.56921
 Alpha  occ. eigenvalues --   -0.56247  -0.55484  -0.54702  -0.54355  -0.53998
 Alpha  occ. eigenvalues --   -0.53289  -0.53018  -0.52691  -0.51871  -0.51657
 Alpha  occ. eigenvalues --   -0.51088  -0.50367  -0.50080  -0.49756  -0.49515
 Alpha  occ. eigenvalues --   -0.49395  -0.48576  -0.48516  -0.47234  -0.46860
 Alpha  occ. eigenvalues --   -0.44197  -0.43881  -0.43562  -0.43294  -0.43098
 Alpha  occ. eigenvalues --   -0.42595  -0.42047  -0.41697  -0.41619  -0.39968
 Alpha  occ. eigenvalues --   -0.39053  -0.36022  -0.34754  -0.32428  -0.32170
 Alpha virt. eigenvalues --   -0.17738  -0.13446  -0.10385  -0.08850  -0.07772
 Alpha virt. eigenvalues --   -0.07653  -0.06539  -0.04918  -0.04224  -0.03581
 Alpha virt. eigenvalues --   -0.02731  -0.02423  -0.02059  -0.00535   0.00025

 Mulliken charges:
               1
     1  N   -0.754959
     2  H    0.408444
     3  H    0.320416
     4  C   -0.038736
     5  H    0.157848
     6  C    0.584252
     7  C   -0.349295
     8  H    0.175607
     9  H    0.155286
    10  O   -0.388133
    11  C    0.159906
    12  C   -0.187436
    13  H    0.117348
    14  C   -0.153389
    15  H    0.133832
    16  C   -0.128360
    17  H    0.145142
    18  C   -0.132816
    19  H    0.145621
    20  C   -0.126205
    21  H    0.149094
    22  N   -0.605966
    23  C   -0.072742
    24  H    0.194069
    25  C    0.638460
    26  C   -0.312244
    27  H    0.208407
    28  H    0.192233
    29  O   -0.518183
    30  C   -0.300306
    31  H    0.198869
    32  H    0.209990
    33  C   -0.169835
    34  H    0.204020
    35  H    0.230215
    36  N   -0.593974
    37  H    0.361255
    38  C   -0.064486
    39  H    0.219388
    40  C    0.598831
    41  C   -0.279009
    42  H    0.187323
    43  H    0.154920
    44  O   -0.460657
    45  C   -0.260429
    46  H    0.107771
    47  H    0.161475
    48  C   -0.278582
    49  H    0.158938
    50  H    0.154266
    51  C   -0.156577
    52  H    0.149429
    53  H    0.155984
    54  N   -0.758810
    55  H    0.327771
    56  H    0.319969
    57  O   -0.550945
    58  H    0.435706
    59  H    0.419989
 Sum of Mulliken charges =   1.00000

 Dipole moment (field-independent basis, Debye):
    X=             -8.6604    Y=              4.0064    Z=              3.6973  Tot=             10.2335
 Quadrupole moment (field-independent basis, Debye-Ang):
   XX=           -101.8321   YY=           -146.9033   ZZ=           -132.4331
   XY=            -20.7226   XZ=             -2.1938   YZ=              4.6458

 Normal termination of Gaussian 16 at Thu Jun  2 03:08:11 2022.
