 Gaussian 16, Revision C.01,
 Gaussian 16:  ES64L-G16RevC.01  3-Jul-2019

 ----------------------------------------------------------------------
 # B3LYP/6-31G* empiricaldispersion=gd3 guess=read geom=check nosymm in
 tegral(ultrafinegrid)
 ----------------------------------------------------------------------

 ------------------------------------------------------
 Candidate Structure: Conf:215 Charge calc in gas phase
 ------------------------------------------------------
 Structure from the checkpoint file:  "conf-215.chk"
 Charge =  1 Multiplicity = 1

                          Input orientation:
 ---------------------------------------------------------------------
 Center     Atomic      Atomic             Coordinates (Angstroms)
 Number     Number       Type             X           Y           Z
 ---------------------------------------------------------------------
      1          7           0       -4.703737    1.965471    4.087180
      2          1           0       -5.334370    2.750109    3.944035
      3          1           0       -4.275287    2.070016    5.004140
      4          6           0       -3.677856    1.897014    3.075952
      5          1           0       -3.133543    2.841026    2.881336
      6          6           0       -4.290333    1.452167    1.762229
      7          6           0       -2.612578    0.828517    3.491288
      8          1           0       -3.164595   -0.079078    3.755882
      9          1           0       -1.955919    0.592446    2.651601
     10          8           0       -5.297399    0.861081    1.537836
     11          6           0       -1.760719    1.311442    4.643069
     12          6           0       -0.691140    2.188904    4.398603
     13          1           0       -0.479269    2.516365    3.383321
     14          6           0       -2.018881    0.898189    5.956047
     15          1           0       -2.836174    0.208145    6.153105
     16          6           0        0.115325    2.629084    5.448589
     17          1           0        0.952153    3.289156    5.241057
     18          6           0       -1.219144    1.351479    7.008872
     19          1           0       -1.426336    1.021501    8.022627
     20          6           0       -0.150256    2.212727    6.756796
     21          1           0        0.477166    2.555192    7.574265
     22          7           0       -3.409121    1.825650    0.532324
     23          6           0       -2.593047    0.663232   -0.026167
     24          1           0       -2.870069   -0.253582    0.499009
     25          6           0       -1.126917    1.050688    0.282316
     26          6           0       -2.931385    0.618516   -1.531821
     27          1           0       -2.072685    0.295109   -2.125479
     28          1           0       -3.751190   -0.085999   -1.702215
     29          8           0       -0.893856    2.171517    0.752323
     30          6           0       -3.377565    2.054644   -1.846687
     31          1           0       -2.513674    2.721196   -1.944176
     32          1           0       -3.967946    2.123577   -2.763282
     33          6           0       -4.203766    2.419722   -0.617275
     34          1           0       -5.176572    1.923647   -0.614475
     35          1           0       -4.330972    3.488581   -0.436046
     36          7           0       -0.189434    0.132764    0.029316
     37          1           0       -0.472946   -0.793725   -0.261317
     38          6           0        1.228372    0.353288    0.387305
     39          1           0        1.709800   -0.625134    0.276748
     40          6           0        1.326355    0.723696    1.878943
     41          6           0        1.914071    1.374724   -0.530827
     42          1           0        1.547031    2.374288   -0.278405
     43          1           0        1.595740    1.155533   -1.558249
     44          8           0        2.024262    1.593079    2.335427
     45          6           0        3.446240    1.338965   -0.450985
     46          1           0        3.754070    1.587626    0.568651
     47          1           0        3.801724    0.318948   -0.665899
     48          6           0        4.089160    2.322876   -1.436328
     49          1           0        3.744842    3.339302   -1.207077
     50          1           0        3.760604    2.085709   -2.458711
     51          6           0        5.621578    2.311871   -1.392896
     52          1           0        5.984512    1.312207   -1.698051
     53          1           0        5.993768    3.019629   -2.142397
     54          7           0        6.114652    2.751510   -0.082238
     55          1           0        7.104967    2.978800   -0.142759
     56          1           0        6.045578    1.993221    0.593615
     57          8           0        0.533543   -0.080040    2.627800
     58          1           0        0.601136    0.231663    3.553395
     59          1           0       -2.654079    2.488509    0.824679
 ---------------------------------------------------------------------

 SCF Done:  E(RB3LYP) =  -1300.56397225     A.U. after    3 cycles

 Alpha  occ. eigenvalues --  -19.32374 -19.30261 -19.28377 -19.24788 -14.58705
 Alpha  occ. eigenvalues --  -14.51838 -14.43969 -14.36963 -10.47150 -10.45040
 Alpha  occ. eigenvalues --  -10.43001 -10.41115 -10.38750 -10.37569 -10.36364
 Alpha  occ. eigenvalues --  -10.35118 -10.34286 -10.32283 -10.30454 -10.29021
 Alpha  occ. eigenvalues --  -10.28857 -10.28641 -10.28617 -10.28507 -10.28407
 Alpha  occ. eigenvalues --  -10.26819 -10.26156 -10.24790  -1.23957  -1.21402
 Alpha  occ. eigenvalues --   -1.20279  -1.13638  -1.12437  -1.08023  -1.02705
 Alpha  occ. eigenvalues --   -0.95974  -0.95593  -0.93831  -0.92796  -0.89858
 Alpha  occ. eigenvalues --   -0.89511  -0.85206  -0.84577  -0.84186  -0.80192
 Alpha  occ. eigenvalues --   -0.78362  -0.77481  -0.77037  -0.74861  -0.74075
 Alpha  occ. eigenvalues --   -0.72349  -0.70684  -0.70458  -0.68326  -0.67973
 Alpha  occ. eigenvalues --   -0.66173  -0.65541  -0.64496  -0.63349  -0.62788
 Alpha  occ. eigenvalues --   -0.62555  -0.61176  -0.60312  -0.59731  -0.59536
 Alpha  occ. eigenvalues --   -0.58762  -0.58445  -0.57866  -0.57147  -0.55756
 Alpha  occ. eigenvalues --   -0.55164  -0.54823  -0.54732  -0.54591  -0.54493
 Alpha  occ. eigenvalues --   -0.53595  -0.52485  -0.51841  -0.51577  -0.51497
 Alpha  occ. eigenvalues --   -0.51212  -0.50906  -0.50701  -0.50134  -0.49874
 Alpha  occ. eigenvalues --   -0.49208  -0.48912  -0.47087  -0.45758  -0.45560
 Alpha  occ. eigenvalues --   -0.45017  -0.44729  -0.43758  -0.43241  -0.42883
 Alpha  occ. eigenvalues --   -0.42185  -0.42029  -0.40850  -0.40505  -0.39520
 Alpha  occ. eigenvalues --   -0.37463  -0.36680  -0.34870  -0.34530  -0.29251
 Alpha virt. eigenvalues --   -0.18727  -0.14238  -0.10677  -0.10515  -0.10160
 Alpha virt. eigenvalues --   -0.07508  -0.06878  -0.06035  -0.03776  -0.02947
 Alpha virt. eigenvalues --   -0.02007  -0.01051  -0.00590  -0.00056   0.00108

 Mulliken charges:
               1
     1  N   -0.709279
     2  H    0.326105
     3  H    0.338343
     4  C   -0.055671
     5  H    0.164042
     6  C    0.580098
     7  C   -0.392256
     8  H    0.195671
     9  H    0.167330
    10  O   -0.348018
    11  C    0.141509
    12  C   -0.245485
    13  H    0.168003
    14  C   -0.192538
    15  H    0.153367
    16  C   -0.127018
    17  H    0.168696
    18  C   -0.127044
    19  H    0.161363
    20  C   -0.124945
    21  H    0.162136
    22  N   -0.601842
    23  C   -0.097133
    24  H    0.223434
    25  C    0.651952
    26  C   -0.297828
    27  H    0.196903
    28  H    0.200107
    29  O   -0.530169
    30  C   -0.310573
    31  H    0.194992
    32  H    0.211290
    33  C   -0.162618
    34  H    0.230361
    35  H    0.215046
    36  N   -0.595650
    37  H    0.357483
    38  C   -0.056681
    39  H    0.193698
    40  C    0.613527
    41  C   -0.257609
    42  H    0.182040
    43  H    0.137881
    44  O   -0.433306
    45  C   -0.288562
    46  H    0.183814
    47  H    0.124977
    48  C   -0.238816
    49  H    0.151367
    50  H    0.123436
    51  C   -0.147352
    52  H    0.117205
    53  H    0.149819
    54  N   -0.716068
    55  H    0.307689
    56  H    0.297424
    57  O   -0.587283
    58  H    0.434396
    59  H    0.418239
 Sum of Mulliken charges =   1.00000

 Dipole moment (field-independent basis, Debye):
    X=             -9.5455    Y=              5.1482    Z=              3.4794  Tot=             11.3897
 Quadrupole moment (field-independent basis, Debye-Ang):
   XX=           -109.6667   YY=           -149.2829   ZZ=           -112.5362
   XY=            -30.8948   XZ=             -7.5743   YZ=              9.0134

 Normal termination of Gaussian 16 at Thu Jun  2 03:00:31 2022.
