 Gaussian 16, Revision C.01,
 Gaussian 16:  ES64L-G16RevC.01  3-Jul-2019

 ----------------------------------------------------------------------
 # B3LYP/6-31G* empiricaldispersion=gd3 guess=read geom=check nosymm in
 tegral(ultrafinegrid)
 ----------------------------------------------------------------------

 ------------------------------------------------------
 Candidate Structure: Conf:591 Charge calc in gas phase
 ------------------------------------------------------
 Structure from the checkpoint file:  "conf-591.chk"
 Charge =  1 Multiplicity = 1

                          Input orientation:
 ---------------------------------------------------------------------
 Center     Atomic      Atomic             Coordinates (Angstroms)
 Number     Number       Type             X           Y           Z
 ---------------------------------------------------------------------
      1          7           0       -5.552340   -1.218709    2.999191
      2          1           0       -6.041001   -1.684943    2.238214
      3          1           0       -6.147229   -0.471347    3.347230
      4          6           0       -4.266143   -0.738953    2.574948
      5          1           0       -3.764947   -0.267601    3.435516
      6          6           0       -4.353191    0.335733    1.491320
      7          6           0       -3.346398   -1.923585    2.118386
      8          1           0       -2.371564   -1.540116    1.784439
      9          1           0       -3.162142   -2.500043    3.029468
     10          8           0       -5.291263    0.649681    0.802304
     11          6           0       -3.959803   -2.801089    1.050905
     12          6           0       -4.833427   -3.839255    1.407569
     13          1           0       -5.042354   -4.023860    2.457723
     14          6           0       -3.690473   -2.589200   -0.307287
     15          1           0       -2.973444   -1.825624   -0.603888
     16          6           0       -5.435124   -4.628394    0.426080
     17          1           0       -6.107139   -5.429767    0.718353
     18          6           0       -4.286781   -3.377466   -1.291453
     19          1           0       -4.058421   -3.203486   -2.338894
     20          6           0       -5.167326   -4.396821   -0.924655
     21          1           0       -5.632182   -5.014772   -1.686821
     22          7           0       -3.032772    1.141009    1.307202
     23          6           0       -2.542903    1.129718   -0.149040
     24          1           0       -2.792209    0.157082   -0.575319
     25          6           0       -1.022274    1.356735   -0.062465
     26          6           0       -3.303414    2.287529   -0.798487
     27          1           0       -2.707825    2.713380   -1.607954
     28          1           0       -4.241217    1.912007   -1.210304
     29          8           0       -0.570449    2.486217    0.051043
     30          6           0       -3.582541    3.314152    0.327956
     31          1           0       -2.967366    4.207405    0.209541
     32          1           0       -4.632818    3.611092    0.324646
     33          6           0       -3.206509    2.627741    1.650908
     34          1           0       -3.952265    2.710816    2.443434
     35          1           0       -2.235498    2.959871    2.018000
     36          7           0       -0.282190    0.214800    0.027145
     37          1           0       -0.667377   -0.626799   -0.388217
     38          6           0        1.182453    0.294275    0.043242
     39          1           0        1.460037    1.067579    0.760807
     40          6           0        1.755288    0.740122   -1.302584
     41          6           0        1.764712   -1.070096    0.471037
     42          1           0        1.418639   -1.835216   -0.239059
     43          1           0        1.323019   -1.312921    1.446497
     44          8           0        2.834615    1.261887   -1.429984
     45          6           0        3.296933   -1.118373    0.570778
     46          1           0        3.564142   -2.132896    0.892059
     47          1           0        3.739762   -0.978167   -0.422392
     48          6           0        3.903838   -0.098221    1.540425
     49          1           0        3.402705   -0.173886    2.518803
     50          1           0        3.726928    0.916857    1.162314
     51          6           0        5.423706   -0.280566    1.737430
     52          1           0        5.925794   -0.171072    0.767517
     53          1           0        5.793947    0.537262    2.367410
     54          7           0        5.873806   -1.537646    2.331671
     55          1           0        5.658825   -2.330403    1.731506
     56          1           0        5.410071   -1.702564    3.223482
     57          8           0        0.936982    0.423358   -2.336087
     58          1           0        1.394590    0.702914   -3.152682
     59          1           0       -2.321213    0.723681    1.915247
 ---------------------------------------------------------------------

 SCF Done:  E(RB3LYP) =  -1300.54348635     A.U. after    1 cycles

 Alpha  occ. eigenvalues --  -19.33821 -19.30464 -19.26732 -19.24382 -14.61156
 Alpha  occ. eigenvalues --  -14.50806 -14.45432 -14.37295 -10.48550 -10.43871
 Alpha  occ. eigenvalues --  -10.42579 -10.40695 -10.39472 -10.39291 -10.35547
 Alpha  occ. eigenvalues --  -10.34021 -10.33415 -10.33202 -10.31638 -10.30871
 Alpha  occ. eigenvalues --  -10.30361 -10.30001 -10.29870 -10.29590 -10.29500
 Alpha  occ. eigenvalues --  -10.27224 -10.26942 -10.25528  -1.24542  -1.21143
 Alpha  occ. eigenvalues --   -1.18936  -1.14904  -1.12236  -1.06991  -1.04145
 Alpha  occ. eigenvalues --   -0.96818  -0.95427  -0.94191  -0.92626  -0.90760
 Alpha  occ. eigenvalues --   -0.90134  -0.86171  -0.85485  -0.84564  -0.81343
 Alpha  occ. eigenvalues --   -0.78812  -0.78104  -0.76169  -0.75054  -0.73822
 Alpha  occ. eigenvalues --   -0.72444  -0.71904  -0.71306  -0.69932  -0.69428
 Alpha  occ. eigenvalues --   -0.67314  -0.66559  -0.65222  -0.64254  -0.62703
 Alpha  occ. eigenvalues --   -0.62417  -0.62354  -0.61187  -0.59633  -0.59465
 Alpha  occ. eigenvalues --   -0.58070  -0.57640  -0.57452  -0.57171  -0.56472
 Alpha  occ. eigenvalues --   -0.55990  -0.55572  -0.55518  -0.55390  -0.54316
 Alpha  occ. eigenvalues --   -0.53435  -0.53141  -0.52558  -0.52488  -0.51553
 Alpha  occ. eigenvalues --   -0.51305  -0.51028  -0.50754  -0.50280  -0.50111
 Alpha  occ. eigenvalues --   -0.49573  -0.48525  -0.47761  -0.46949  -0.46918
 Alpha  occ. eigenvalues --   -0.45590  -0.45174  -0.44807  -0.44388  -0.43147
 Alpha  occ. eigenvalues --   -0.42260  -0.42148  -0.41199  -0.40055  -0.39934
 Alpha  occ. eigenvalues --   -0.38154  -0.37039  -0.36052  -0.35653  -0.29195
 Alpha virt. eigenvalues --   -0.20317  -0.14662  -0.12133  -0.11308  -0.10292
 Alpha virt. eigenvalues --   -0.09672  -0.08911  -0.06475  -0.04395  -0.03358
 Alpha virt. eigenvalues --   -0.02989  -0.02417  -0.02044  -0.01096  -0.00428

 Mulliken charges:
               1
     1  N   -0.681017
     2  H    0.341867
     3  H    0.331725
     4  C   -0.084572
     5  H    0.179581
     6  C    0.577392
     7  C   -0.383423
     8  H    0.136882
     9  H    0.212975
    10  O   -0.364824
    11  C    0.158227
    12  C   -0.190751
    13  H    0.165690
    14  C   -0.194041
    15  H    0.095912
    16  C   -0.122058
    17  H    0.166032
    18  C   -0.122150
    19  H    0.154476
    20  C   -0.123684
    21  H    0.165349
    22  N   -0.585083
    23  C   -0.108506
    24  H    0.204889
    25  C    0.605289
    26  C   -0.276369
    27  H    0.211240
    28  H    0.202440
    29  O   -0.475867
    30  C   -0.281272
    31  H    0.214333
    32  H    0.197821
    33  C   -0.179898
    34  H    0.210540
    35  H    0.232825
    36  N   -0.622236
    37  H    0.352279
    38  C   -0.043403
    39  H    0.213685
    40  C    0.611621
    41  C   -0.301680
    42  H    0.148947
    43  H    0.152287
    44  O   -0.431922
    45  C   -0.264641
    46  H    0.136925
    47  H    0.165609
    48  C   -0.274584
    49  H    0.115089
    50  H    0.153249
    51  C   -0.147410
    52  H    0.155107
    53  H    0.154278
    54  N   -0.700117
    55  H    0.299387
    56  H    0.293671
    57  O   -0.586292
    58  H    0.430545
    59  H    0.397637
 Sum of Mulliken charges =   1.00000

 Dipole moment (field-independent basis, Debye):
    X=            -15.6114    Y=             -0.9046    Z=              4.0886  Tot=             16.1632
 Quadrupole moment (field-independent basis, Debye-Ang):
   XX=           -118.0898   YY=           -138.8325   ZZ=           -135.6324
   XY=             -1.8005   XZ=            -21.4726   YZ=              6.4384

 Normal termination of Gaussian 16 at Thu Jun  2 03:08:23 2022.
