 Gaussian 16, Revision C.01,
 Gaussian 16:  ES64L-G16RevC.01  3-Jul-2019

 ----------------------------------------------------------------------
 # B3LYP/6-31G* empiricaldispersion=gd3 guess=read geom=check nosymm in
 tegral(ultrafinegrid)
 ----------------------------------------------------------------------

 ------------------------------------------------------
 Candidate Structure: Conf:234 Charge calc in gas phase
 ------------------------------------------------------
 Structure from the checkpoint file:  "conf-234.chk"
 Charge =  1 Multiplicity = 1

                          Input orientation:
 ---------------------------------------------------------------------
 Center     Atomic      Atomic             Coordinates (Angstroms)
 Number     Number       Type             X           Y           Z
 ---------------------------------------------------------------------
      1          7           0       -3.679832    4.151332    1.482229
      2          1           0       -3.288082    4.639869    2.281182
      3          1           0       -4.205977    4.823599    0.927752
      4          6           0       -4.516718    3.030514    1.891610
      5          1           0       -4.146903    2.655392    2.855652
      6          6           0       -4.311779    1.846926    0.944024
      7          6           0       -6.045391    3.311827    2.042057
      8          1           0       -6.520625    2.407636    2.434343
      9          1           0       -6.150344    4.096504    2.798605
     10          8           0       -4.874983    0.794318    0.970971
     11          6           0       -6.674765    3.724621    0.731258
     12          6           0       -6.643186    5.062032    0.306165
     13          1           0       -6.276521    5.833665    0.980393
     14          6           0       -7.223383    2.758242   -0.128274
     15          1           0       -7.278991    1.723161    0.197508
     16          6           0       -7.112797    5.420917   -0.960094
     17          1           0       -7.085627    6.461301   -1.270629
     18          6           0       -7.698974    3.117009   -1.390775
     19          1           0       -8.132651    2.360014   -2.038202
     20          6           0       -7.633138    4.447181   -1.814855
     21          1           0       -8.006597    4.726439   -2.795570
     22          7           0       -3.254750    2.099307   -0.123671
     23          6           0       -2.536605    0.861399   -0.601842
     24          1           0       -3.003335    0.001853   -0.115097
     25          6           0       -1.073397    1.037790   -0.160016
     26          6           0       -2.752313    0.821400   -2.132344
     27          1           0       -1.905607    1.291665   -2.644673
     28          1           0       -2.839139   -0.205316   -2.495768
     29          8           0       -0.723016    2.093852    0.368724
     30          6           0       -4.031904    1.644589   -2.339514
     31          1           0       -4.145476    2.011947   -3.362551
     32          1           0       -4.922358    1.059902   -2.084085
     33          6           0       -3.862493    2.790032   -1.350567
     34          1           0       -4.786755    3.296934   -1.074019
     35          1           0       -3.124057    3.525346   -1.678375
     36          7           0       -0.255832    0.007025   -0.422566
     37          1           0       -0.646178   -0.849620   -0.789866
     38          6           0        1.174882    0.038393   -0.084563
     39          1           0        1.542248   -0.977774   -0.273965
     40          6           0        1.396668    0.286976    1.414376
     41          6           0        1.970705    1.028404   -0.946120
     42          1           0        3.006294    1.001992   -0.593241
     43          1           0        1.600391    2.039821   -0.748843
     44          8           0        2.376029    0.822067    1.869262
     45          6           0        1.912183    0.709647   -2.442908
     46          1           0        2.279659   -0.312288   -2.612019
     47          1           0        0.867029    0.733552   -2.790692
     48          6           0        2.748439    1.688770   -3.274932
     49          1           0        3.794326    1.633469   -2.949160
     50          1           0        2.402045    2.714974   -3.085932
     51          6           0        2.695517    1.414215   -4.782048
     52          1           0        1.660356    1.569732   -5.143403
     53          1           0        3.316084    2.159882   -5.291502
     54          7           0        3.240219    0.088272   -5.097812
     55          1           0        3.481957    0.033884   -6.084686
     56          1           0        2.537684   -0.631575   -4.942489
     57          8           0        0.400657   -0.231740    2.171371
     58          1           0        0.655632   -0.073209    3.100476
     59          1           0       -2.550417    2.740216    0.310190
 ---------------------------------------------------------------------

 SCF Done:  E(RB3LYP) =  -1300.57311490     A.U. after    1 cycles

 Alpha  occ. eigenvalues --  -19.32388 -19.29115 -19.25973 -19.23272 -14.57720
 Alpha  occ. eigenvalues --  -14.49810 -14.46662 -14.37744 -10.47232 -10.42993
 Alpha  occ. eigenvalues --  -10.41612 -10.39000 -10.38278 -10.38221 -10.35001
 Alpha  occ. eigenvalues --  -10.34091 -10.33541 -10.32244 -10.31527 -10.30470
 Alpha  occ. eigenvalues --  -10.30222 -10.30156 -10.30141 -10.29914 -10.27536
 Alpha  occ. eigenvalues --  -10.27365 -10.26747 -10.25088  -1.23959  -1.20040
 Alpha  occ. eigenvalues --   -1.18134  -1.12946  -1.11064  -1.06145  -1.04309
 Alpha  occ. eigenvalues --   -0.96949  -0.95009  -0.94528  -0.91684  -0.90439
 Alpha  occ. eigenvalues --   -0.88861  -0.85785  -0.85468  -0.84415  -0.80771
 Alpha  occ. eigenvalues --   -0.78228  -0.77094  -0.75588  -0.74196  -0.73353
 Alpha  occ. eigenvalues --   -0.71781  -0.71621  -0.70855  -0.69122  -0.67231
 Alpha  occ. eigenvalues --   -0.66199  -0.65134  -0.64959  -0.64034  -0.62660
 Alpha  occ. eigenvalues --   -0.62204  -0.61090  -0.59614  -0.58942  -0.58268
 Alpha  occ. eigenvalues --   -0.58174  -0.57527  -0.57154  -0.56549  -0.56382
 Alpha  occ. eigenvalues --   -0.55703  -0.55631  -0.54925  -0.54253  -0.53992
 Alpha  occ. eigenvalues --   -0.53165  -0.52922  -0.52426  -0.51878  -0.51427
 Alpha  occ. eigenvalues --   -0.50796  -0.50558  -0.50254  -0.49963  -0.49291
 Alpha  occ. eigenvalues --   -0.48925  -0.48490  -0.46950  -0.46863  -0.45502
 Alpha  occ. eigenvalues --   -0.45406  -0.45109  -0.44559  -0.44118  -0.41540
 Alpha  occ. eigenvalues --   -0.41424  -0.41018  -0.40278  -0.39747  -0.39500
 Alpha  occ. eigenvalues --   -0.39279  -0.36446  -0.36143  -0.35882  -0.29970
 Alpha virt. eigenvalues --   -0.18640  -0.11980  -0.11816  -0.11592  -0.08797
 Alpha virt. eigenvalues --   -0.06657  -0.05322  -0.04785  -0.03901  -0.02876
 Alpha virt. eigenvalues --   -0.01833  -0.01210  -0.00990  -0.00769  -0.00316

 Mulliken charges:
               1
     1  N   -0.764218
     2  H    0.351443
     3  H    0.336086
     4  C   -0.080535
     5  H    0.218110
     6  C    0.594143
     7  C   -0.361722
     8  H    0.194640
     9  H    0.184684
    10  O   -0.374779
    11  C    0.136795
    12  C   -0.210808
    13  H    0.147649
    14  C   -0.202413
    15  H    0.160229
    16  C   -0.127282
    17  H    0.164161
    18  C   -0.133929
    19  H    0.159618
    20  C   -0.132580
    21  H    0.163528
    22  N   -0.594997
    23  C   -0.080234
    24  H    0.229572
    25  C    0.650173
    26  C   -0.310533
    27  H    0.191604
    28  H    0.190822
    29  O   -0.521163
    30  C   -0.290060
    31  H    0.201531
    32  H    0.190141
    33  C   -0.183267
    34  H    0.226091
    35  H    0.211920
    36  N   -0.593127
    37  H    0.352051
    38  C   -0.072682
    39  H    0.194242
    40  C    0.619535
    41  C   -0.264146
    42  H    0.188595
    43  H    0.173075
    44  O   -0.436807
    45  C   -0.278071
    46  H    0.145285
    47  H    0.105946
    48  C   -0.234017
    49  H    0.159944
    50  H    0.126397
    51  C   -0.147704
    52  H    0.103621
    53  H    0.153732
    54  N   -0.712509
    55  H    0.309454
    56  H    0.291936
    57  O   -0.582407
    58  H    0.424437
    59  H    0.438800
 Sum of Mulliken charges =   1.00000

 Dipole moment (field-independent basis, Debye):
    X=            -18.0513    Y=              9.6651    Z=             -3.2980  Tot=             20.7398
 Quadrupole moment (field-independent basis, Debye-Ang):
   XX=            -88.7674   YY=           -114.2692   ZZ=           -123.2543
   XY=            -59.7156   XZ=              1.2869   YZ=              1.3294

 Normal termination of Gaussian 16 at Thu Jun  2 03:00:17 2022.
