 Gaussian 16, Revision C.01,
 Gaussian 16:  ES64L-G16RevC.01  3-Jul-2019

 ----------------------------------------------------------------------
 # B3LYP/6-31G* empiricaldispersion=gd3 guess=read geom=check nosymm in
 tegral(ultrafinegrid)
 ----------------------------------------------------------------------

 ------------------------------------------------------
 Candidate Structure: Conf:746 Charge calc in gas phase
 ------------------------------------------------------
 Structure from the checkpoint file:  "conf-746.chk"
 Charge =  1 Multiplicity = 1

                          Input orientation:
 ---------------------------------------------------------------------
 Center     Atomic      Atomic             Coordinates (Angstroms)
 Number     Number       Type             X           Y           Z
 ---------------------------------------------------------------------
      1          7           0       -1.505138    2.156030   -3.686148
      2          1           0       -2.028123    2.176913   -4.559363
      3          1           0       -0.558074    1.850045   -3.897271
      4          6           0       -2.143616    1.286635   -2.727748
      5          1           0       -1.528605    1.267344   -1.821719
      6          6           0       -2.288037   -0.139249   -3.252903
      7          6           0       -3.555246    1.842201   -2.336987
      8          1           0       -4.013837    1.190497   -1.582087
      9          1           0       -3.357678    2.805360   -1.856473
     10          8           0       -2.371474   -0.488582   -4.375844
     11          6           0       -4.492697    2.008162   -3.510778
     12          6           0       -4.434454    3.160197   -4.309101
     13          1           0       -3.733083    3.950736   -4.056098
     14          6           0       -5.418295    1.008643   -3.836295
     15          1           0       -5.503436    0.124907   -3.205560
     16          6           0       -5.272295    3.296807   -5.416759
     17          1           0       -5.219132    4.195646   -6.023990
     18          6           0       -6.259240    1.143842   -4.940564
     19          1           0       -6.976808    0.362840   -5.174621
     20          6           0       -6.183327    2.288228   -5.736778
     21          1           0       -6.838478    2.397831   -6.595784
     22          7           0       -2.309745   -1.320227   -2.217266
     23          6           0       -2.203883   -1.057529   -0.737441
     24          1           0       -2.817661   -0.190994   -0.491361
     25          6           0       -0.706300   -0.815872   -0.483697
     26          6           0       -2.752291   -2.353522   -0.069991
     27          1           0       -1.954008   -2.881017    0.457520
     28          1           0       -3.515616   -2.093060    0.666608
     29          8           0        0.100728   -1.267676   -1.303175
     30          6           0       -3.323657   -3.224840   -1.221483
     31          1           0       -2.635795   -4.040574   -1.463255
     32          1           0       -4.287053   -3.671177   -0.965272
     33          6           0       -3.458872   -2.280108   -2.414966
     34          1           0       -4.376318   -1.687474   -2.380998
     35          1           0       -3.366816   -2.740008   -3.398315
     36          7           0       -0.390562   -0.139145    0.622121
     37          1           0       -1.099153    0.196492    1.269467
     38          6           0        0.993500    0.133725    1.019059
     39          1           0        1.587322   -0.770734    0.864246
     40          6           0        0.936195    0.462380    2.504990
     41          6           0        1.583957    1.294226    0.176529
     42          1           0        0.972288    2.187788    0.355644
     43          1           0        1.441085    1.001278   -0.870365
     44          8           0       -0.086196    0.774133    3.080977
     45          6           0        3.069585    1.602955    0.413525
     46          1           0        3.340446    2.414744   -0.274531
     47          1           0        3.217119    1.996789    1.425496
     48          6           0        4.000241    0.406736    0.179100
     49          1           0        3.770421   -0.078228   -0.778770
     50          1           0        3.839471   -0.347712    0.962400
     51          6           0        5.479801    0.801007    0.179291
     52          1           0        5.658626    1.514182   -0.635689
     53          1           0        5.710338    1.336926    1.119573
     54          7           0        6.315536   -0.377153   -0.066406
     55          1           0        6.299913   -0.987247    0.750186
     56          1           0        7.286973   -0.096647   -0.187443
     57          8           0        2.140254    0.387198    3.084571
     58          1           0        2.038661    0.645569    4.021786
     59          1           0       -1.402987   -1.796237   -2.417552
 ---------------------------------------------------------------------

 SCF Done:  E(RB3LYP) =  -1300.55765634     A.U. after    1 cycles

 Alpha  occ. eigenvalues --  -19.32337 -19.31458 -19.26931 -19.26045 -14.58928
 Alpha  occ. eigenvalues --  -14.50637 -14.44321 -14.37366 -10.46970 -10.44074
 Alpha  occ. eigenvalues --  -10.44057 -10.40394 -10.38784 -10.37678 -10.36000
 Alpha  occ. eigenvalues --  -10.34767 -10.34160 -10.32436 -10.30075 -10.29775
 Alpha  occ. eigenvalues --  -10.29161 -10.28475 -10.28465 -10.28203 -10.28099
 Alpha  occ. eigenvalues --  -10.27418 -10.27171 -10.25586  -1.24670  -1.22569
 Alpha  occ. eigenvalues --   -1.19253  -1.13918  -1.13641  -1.07100  -1.02820
 Alpha  occ. eigenvalues --   -0.95331  -0.94914  -0.94280  -0.92842  -0.90255
 Alpha  occ. eigenvalues --   -0.89433  -0.85202  -0.84439  -0.83967  -0.80676
 Alpha  occ. eigenvalues --   -0.78954  -0.78146  -0.76466  -0.75137  -0.72926
 Alpha  occ. eigenvalues --   -0.72516  -0.70821  -0.70257  -0.69172  -0.68749
 Alpha  occ. eigenvalues --   -0.66408  -0.65821  -0.63914  -0.63277  -0.62720
 Alpha  occ. eigenvalues --   -0.61745  -0.61370  -0.61016  -0.60616  -0.59372
 Alpha  occ. eigenvalues --   -0.58099  -0.57839  -0.57437  -0.56811  -0.56714
 Alpha  occ. eigenvalues --   -0.55706  -0.55481  -0.55365  -0.55153  -0.53728
 Alpha  occ. eigenvalues --   -0.53059  -0.52830  -0.52581  -0.51476  -0.51355
 Alpha  occ. eigenvalues --   -0.51191  -0.51049  -0.50779  -0.49983  -0.49741
 Alpha  occ. eigenvalues --   -0.49023  -0.48873  -0.48846  -0.46645  -0.45513
 Alpha  occ. eigenvalues --   -0.45070  -0.44259  -0.43740  -0.43370  -0.43246
 Alpha  occ. eigenvalues --   -0.42163  -0.41516  -0.40975  -0.40749  -0.39794
 Alpha  occ. eigenvalues --   -0.39120  -0.37129  -0.34546  -0.34165  -0.29638
 Alpha virt. eigenvalues --   -0.18089  -0.12979  -0.10801  -0.10382  -0.09769
 Alpha virt. eigenvalues --   -0.08433  -0.06537  -0.04967  -0.03850  -0.03544
 Alpha virt. eigenvalues --   -0.03161  -0.02410  -0.01865  -0.00415  -0.00236

 Mulliken charges:
               1
     1  N   -0.686250
     2  H    0.340925
     3  H    0.328674
     4  C   -0.080790
     5  H    0.172369
     6  C    0.585648
     7  C   -0.379502
     8  H    0.149006
     9  H    0.205381
    10  O   -0.351532
    11  C    0.155400
    12  C   -0.192735
    13  H    0.159741
    14  C   -0.189084
    15  H    0.109452
    16  C   -0.124079
    17  H    0.159753
    18  C   -0.123263
    19  H    0.151514
    20  C   -0.123486
    21  H    0.159849
    22  N   -0.594698
    23  C   -0.079766
    24  H    0.205604
    25  C    0.634133
    26  C   -0.314169
    27  H    0.206172
    28  H    0.197923
    29  O   -0.526903
    30  C   -0.303710
    31  H    0.198537
    32  H    0.207851
    33  C   -0.172779
    34  H    0.207634
    35  H    0.234761
    36  N   -0.619919
    37  H    0.367144
    38  C   -0.039647
    39  H    0.215551
    40  C    0.593017
    41  C   -0.281266
    42  H    0.152256
    43  H    0.167311
    44  O   -0.464645
    45  C   -0.268442
    46  H    0.152944
    47  H    0.153585
    48  C   -0.258991
    49  H    0.153402
    50  H    0.134107
    51  C   -0.138039
    52  H    0.145034
    53  H    0.119313
    54  N   -0.716853
    55  H    0.295666
    56  H    0.307234
    57  O   -0.546520
    58  H    0.435346
    59  H    0.414827
 Sum of Mulliken charges =   1.00000

 Dipole moment (field-independent basis, Debye):
    X=             -9.1206    Y=             -1.8292    Z=             -4.5388  Tot=             10.3505
 Quadrupole moment (field-independent basis, Debye-Ang):
   XX=            -97.3748   YY=           -141.8444   ZZ=           -125.2112
   XY=             17.4083   XZ=             46.8612   YZ=             -6.3411

 Normal termination of Gaussian 16 at Thu Jun  2 03:08:13 2022.
