 Gaussian 16, Revision C.01,
 Gaussian 16:  ES64L-G16RevC.01  3-Jul-2019

 ----------------------------------------------------------------------
 # B3LYP/6-31G* empiricaldispersion=gd3 guess=read geom=check nosymm in
 tegral(ultrafinegrid)
 ----------------------------------------------------------------------

 -----------------------------------------------------
 Candidate Structure: Conf:34 Charge calc in gas phase
 -----------------------------------------------------
 Structure from the checkpoint file:  "conf-34.chk"
 Charge =  1 Multiplicity = 1

                          Input orientation:
 ---------------------------------------------------------------------
 Center     Atomic      Atomic             Coordinates (Angstroms)
 Number     Number       Type             X           Y           Z
 ---------------------------------------------------------------------
      1          7           0       -2.222282    3.835868    1.218251
      2          1           0       -1.281867    4.067900    1.588656
      3          1           0       -2.720863    4.713606    1.082158
      4          6           0       -2.925412    2.985194    2.169567
      5          1           0       -2.167344    2.435165    2.748771
      6          6           0       -3.688613    1.890235    1.422280
      7          6           0       -3.863946    3.700972    3.177482
      8          1           0       -4.638486    4.233589    2.610964
      9          1           0       -4.373908    2.942640    3.780043
     10          8           0       -4.545810    1.164830    1.830665
     11          6           0       -3.083571    4.660233    4.045175
     12          6           0       -2.398501    4.191974    5.174031
     13          1           0       -2.488403    3.146374    5.461596
     14          6           0       -2.971362    6.013049    3.701349
     15          1           0       -3.515841    6.398530    2.841892
     16          6           0       -1.608390    5.052938    5.936667
     17          1           0       -1.089056    4.676063    6.812971
     18          6           0       -2.181021    6.879321    4.460812
     19          1           0       -2.110564    7.927816    4.185916
     20          6           0       -1.492281    6.398827    5.577696
     21          1           0       -0.881821    7.071411    6.172984
     22          7           0       -3.223242    1.749880   -0.020455
     23          6           0       -2.519028    0.420126   -0.277840
     24          1           0       -2.767168   -0.246503    0.552340
     25          6           0       -1.021667    0.740758   -0.379864
     26          6           0       -3.135070   -0.087489   -1.593549
     27          1           0       -2.582362    0.335190   -2.439641
     28          1           0       -3.088137   -1.177246   -1.656758
     29          8           0       -0.683997    1.803236   -0.896802
     30          6           0       -4.565934    0.462581   -1.550955
     31          1           0       -5.053579    0.461679   -2.529051
     32          1           0       -5.184468   -0.112260   -0.853981
     33          6           0       -4.365113    1.881677   -1.024352
     34          1           0       -5.236879    2.306317   -0.525279
     35          1           0       -4.013273    2.566302   -1.799586
     36          7           0       -0.178844   -0.177238    0.125885
     37          1           0       -0.504374   -1.090516    0.425474
     38          6           0        1.268945    0.000650    0.070377
     39          1           0        1.493265    0.647659   -0.782282
     40          6           0        1.884748   -1.373973   -0.150128
     41          6           0        1.841925    0.644209    1.359947
     42          1           0        2.886947    0.903189    1.155418
     43          1           0        1.853583   -0.103287    2.164740
     44          8           0        1.277239   -2.415651   -0.021444
     45          6           0        1.056708    1.878033    1.823386
     46          1           0        0.872877    2.548764    0.979124
     47          1           0        0.066408    1.553010    2.174278
     48          6           0        1.764677    2.632109    2.955157
     49          1           0        2.644303    3.153535    2.551245
     50          1           0        2.149193    1.921665    3.699418
     51          6           0        0.861007    3.628189    3.685180
     52          1           0        0.057256    3.085693    4.197268
     53          1           0        1.443598    4.136444    4.469036
     54          7           0        0.215400    4.581379    2.758881
     55          1           0        0.935905    5.095276    2.249823
     56          1           0       -0.289936    5.278405    3.307093
     57          8           0        3.187495   -1.282167   -0.452727
     58          1           0        3.538942   -2.189595   -0.539628
     59          1           0       -2.527802    2.541326   -0.120446
 ---------------------------------------------------------------------

 SCF Done:  E(RB3LYP) =  -1300.59720255     A.U. after    1 cycles

 Alpha  occ. eigenvalues --  -19.31462 -19.30247 -19.24846 -19.24551 -14.56448
 Alpha  occ. eigenvalues --  -14.48952 -14.44156 -14.42248 -10.46132 -10.42888
 Alpha  occ. eigenvalues --  -10.42134 -10.38736 -10.37539 -10.36841 -10.34914
 Alpha  occ. eigenvalues --  -10.33029 -10.32583 -10.31287 -10.30421 -10.30104
 Alpha  occ. eigenvalues --  -10.29414 -10.29076 -10.28956 -10.28829 -10.28784
 Alpha  occ. eigenvalues --  -10.28631 -10.28069 -10.27797  -1.22924  -1.21329
 Alpha  occ. eigenvalues --   -1.17041  -1.12570  -1.11843  -1.05375  -1.02507
 Alpha  occ. eigenvalues --   -0.98323  -0.95587  -0.94128  -0.91541  -0.89426
 Alpha  occ. eigenvalues --   -0.88974  -0.86008  -0.84494  -0.84223  -0.80103
 Alpha  occ. eigenvalues --   -0.79423  -0.76616  -0.74503  -0.73385  -0.72538
 Alpha  occ. eigenvalues --   -0.72375  -0.70652  -0.70431  -0.68744  -0.68362
 Alpha  occ. eigenvalues --   -0.67558  -0.64652  -0.63426  -0.62842  -0.61174
 Alpha  occ. eigenvalues --   -0.60796  -0.60408  -0.59446  -0.59298  -0.58703
 Alpha  occ. eigenvalues --   -0.58159  -0.57945  -0.56872  -0.56369  -0.55782
 Alpha  occ. eigenvalues --   -0.55440  -0.55277  -0.55248  -0.54712  -0.54399
 Alpha  occ. eigenvalues --   -0.53452  -0.53175  -0.51875  -0.51409  -0.50912
 Alpha  occ. eigenvalues --   -0.50762  -0.50531  -0.50296  -0.49571  -0.49486
 Alpha  occ. eigenvalues --   -0.48289  -0.47888  -0.47836  -0.47406  -0.45727
 Alpha  occ. eigenvalues --   -0.45322  -0.44393  -0.44294  -0.43909  -0.43392
 Alpha  occ. eigenvalues --   -0.43242  -0.42715  -0.42232  -0.39278  -0.38419
 Alpha  occ. eigenvalues --   -0.38119  -0.37510  -0.34964  -0.34909  -0.34181
 Alpha virt. eigenvalues --   -0.18210  -0.11683  -0.10414  -0.10245  -0.09534
 Alpha virt. eigenvalues --   -0.06231  -0.04295  -0.03519  -0.02782  -0.02097
 Alpha virt. eigenvalues --   -0.01888  -0.01179  -0.00682  -0.00105   0.00767

 Mulliken charges:
               1
     1  N   -0.813706
     2  H    0.411544
     3  H    0.320472
     4  C   -0.072008
     5  H    0.209296
     6  C    0.576780
     7  C   -0.379082
     8  H    0.162687
     9  H    0.193331
    10  O   -0.376908
    11  C    0.183293
    12  C   -0.186395
    13  H    0.138523
    14  C   -0.194622
    15  H    0.132261
    16  C   -0.127719
    17  H    0.157008
    18  C   -0.140625
    19  H    0.158053
    20  C   -0.139205
    21  H    0.159747
    22  N   -0.601369
    23  C   -0.064035
    24  H    0.199847
    25  C    0.632525
    26  C   -0.302299
    27  H    0.196725
    28  H    0.198925
    29  O   -0.514890
    30  C   -0.292713
    31  H    0.200253
    32  H    0.194860
    33  C   -0.159930
    34  H    0.209569
    35  H    0.212466
    36  N   -0.606993
    37  H    0.359726
    38  C   -0.055827
    39  H    0.215518
    40  C    0.591194
    41  C   -0.273473
    42  H    0.180447
    43  H    0.153401
    44  O   -0.461896
    45  C   -0.261926
    46  H    0.179060
    47  H    0.110720
    48  C   -0.277666
    49  H    0.149059
    50  H    0.151124
    51  C   -0.138439
    52  H    0.140227
    53  H    0.144384
    54  N   -0.768577
    55  H    0.315521
    56  H    0.337877
    57  O   -0.552512
    58  H    0.433421
    59  H    0.452972
 Sum of Mulliken charges =   1.00000

 Dipole moment (field-independent basis, Debye):
    X=             -8.2191    Y=             10.5798    Z=              5.1928  Tot=             14.3684
 Quadrupole moment (field-independent basis, Debye-Ang):
   XX=           -110.8834   YY=           -104.4612   ZZ=           -129.1951
   XY=            -26.3721   XZ=              7.9295   YZ=             34.8075

 Normal termination of Gaussian 16 at Thu Jun  2 03:00:13 2022.
