 Gaussian 16, Revision C.01,
 Gaussian 16:  ES64L-G16RevC.01  3-Jul-2019

 ----------------------------------------------------------------------
 # B3LYP/6-31G* empiricaldispersion=gd3 guess=read geom=check nosymm in
 tegral(ultrafinegrid)
 ----------------------------------------------------------------------

 ------------------------------------------------------
 Candidate Structure: Conf:172 Charge calc in gas phase
 ------------------------------------------------------
 Structure from the checkpoint file:  "conf-172.chk"
 Charge =  1 Multiplicity = 1

                          Input orientation:
 ---------------------------------------------------------------------
 Center     Atomic      Atomic             Coordinates (Angstroms)
 Number     Number       Type             X           Y           Z
 ---------------------------------------------------------------------
      1          7           0       -2.563739    0.354487   -5.158829
      2          1           0       -1.910220    0.241636   -5.930540
      3          1           0       -3.042996    1.243932   -5.291397
      4          6           0       -1.850708    0.351903   -3.899554
      5          1           0       -1.282559   -0.585955   -3.830217
      6          6           0       -2.874252    0.365542   -2.794396
      7          6           0       -0.834090    1.539537   -3.634684
      8          1           0       -0.403890    1.452649   -2.627564
      9          1           0       -0.011165    1.370960   -4.338876
     10          8           0       -3.940383    0.885434   -2.750256
     11          6           0       -1.451650    2.899695   -3.840310
     12          6           0       -1.557190    3.435954   -5.133012
     13          1           0       -1.135134    2.895325   -5.977203
     14          6           0       -1.965872    3.629241   -2.759388
     15          1           0       -1.857391    3.251633   -1.746259
     16          6           0       -2.176467    4.668360   -5.343040
     17          1           0       -2.245038    5.073934   -6.348178
     18          6           0       -2.580867    4.863960   -2.969429
     19          1           0       -2.964296    5.424377   -2.121710
     20          6           0       -2.693890    5.382759   -4.260597
     21          1           0       -3.171496    6.344617   -4.421875
     22          7           0       -2.418035   -0.391532   -1.500031
     23          6           0       -2.561101    0.428998   -0.205046
     24          1           0       -3.232659    1.256454   -0.428030
     25          6           0       -1.188967    1.022043    0.146532
     26          6           0       -3.157336   -0.556569    0.833609
     27          1           0       -2.629850   -0.494039    1.789490
     28          1           0       -4.201780   -0.291765    1.017277
     29          8           0       -1.023775    2.226743    0.195624
     30          6           0       -3.066063   -1.952589    0.185057
     31          1           0       -2.095676   -2.429071    0.370799
     32          1           0       -3.836918   -2.636216    0.548912
     33          6           0       -3.239120   -1.659754   -1.300627
     34          1           0       -4.269684   -1.394648   -1.548692
     35          1           0       -2.880560   -2.429282   -1.987133
     36          7           0       -0.182923    0.095459    0.299009
     37          1           0       -0.466205   -0.793484    0.698059
     38          6           0        1.151713    0.554632    0.741801
     39          1           0        1.727131   -0.362379    0.919781
     40          6           0        1.058048    1.271843    2.097464
     41          6           0        1.873757    1.392472   -0.326586
     42          1           0        1.464661    2.406195   -0.322197
     43          1           0        1.638407    0.947665   -1.303119
     44          8           0        1.783619    2.158307    2.465997
     45          6           0        3.396543    1.430647   -0.141486
     46          1           0        3.628682    1.843353    0.845574
     47          1           0        3.793120    0.404122   -0.160661
     48          6           0        4.092583    2.265678   -1.222653
     49          1           0        3.706054    3.294952   -1.195449
     50          1           0        3.847314    1.867321   -2.219698
     51          6           0        5.622753    2.297648   -1.056657
     52          1           0        5.868893    2.685211   -0.059431
     53          1           0        6.012085    1.270982   -1.090001
     54          7           0        6.361256    3.088613   -2.038697
     55          1           0        6.055694    4.060239   -2.008820
     56          1           0        6.164192    2.754789   -2.981148
     57          8           0        0.072996    0.734894    2.866039
     58          1           0        0.091447    1.212687    3.717815
     59          1           0       -1.426199   -0.644383   -1.589813
 ---------------------------------------------------------------------

 SCF Done:  E(RB3LYP) =  -1300.54135746     A.U. after    2 cycles

 Alpha  occ. eigenvalues --  -19.33556 -19.30822 -19.27576 -19.24954 -14.61151
 Alpha  occ. eigenvalues --  -14.51268 -14.44703 -14.37009 -10.48298 -10.44471
 Alpha  occ. eigenvalues --  -10.43165 -10.40746 -10.40629 -10.38624 -10.36419
 Alpha  occ. eigenvalues --  -10.35912 -10.35569 -10.32784 -10.30009 -10.29086
 Alpha  occ. eigenvalues --  -10.28755 -10.28421 -10.28221 -10.28124 -10.28000
 Alpha  occ. eigenvalues --  -10.26919 -10.26763 -10.25523  -1.25253  -1.21572
 Alpha  occ. eigenvalues --   -1.19507  -1.15613  -1.12723  -1.07294  -1.03402
 Alpha  occ. eigenvalues --   -0.96878  -0.95231  -0.93966  -0.93445  -0.90089
 Alpha  occ. eigenvalues --   -0.89870  -0.85475  -0.84888  -0.83808  -0.80935
 Alpha  occ. eigenvalues --   -0.79211  -0.78546  -0.77360  -0.75511  -0.74132
 Alpha  occ. eigenvalues --   -0.72157  -0.71440  -0.70120  -0.69251  -0.67936
 Alpha  occ. eigenvalues --   -0.66941  -0.66803  -0.65793  -0.64029  -0.62469
 Alpha  occ. eigenvalues --   -0.62257  -0.61110  -0.60853  -0.60299  -0.59540
 Alpha  occ. eigenvalues --   -0.59311  -0.58201  -0.57596  -0.56764  -0.56581
 Alpha  occ. eigenvalues --   -0.56181  -0.55544  -0.55342  -0.54667  -0.54370
 Alpha  occ. eigenvalues --   -0.53820  -0.53497  -0.53082  -0.52379  -0.51734
 Alpha  occ. eigenvalues --   -0.51407  -0.50700  -0.50614  -0.50415  -0.50209
 Alpha  occ. eigenvalues --   -0.49928  -0.49588  -0.47210  -0.45869  -0.45715
 Alpha  occ. eigenvalues --   -0.44929  -0.44449  -0.43769  -0.43675  -0.43485
 Alpha  occ. eigenvalues --   -0.42722  -0.41880  -0.41793  -0.40253  -0.40093
 Alpha  occ. eigenvalues --   -0.37540  -0.37317  -0.34350  -0.34076  -0.29013
 Alpha virt. eigenvalues --   -0.19538  -0.15173  -0.11603  -0.10354  -0.09725
 Alpha virt. eigenvalues --   -0.09544  -0.08337  -0.06647  -0.05000  -0.04430
 Alpha virt. eigenvalues --   -0.03180  -0.02354  -0.01712  -0.01278  -0.00886

 Mulliken charges:
               1
     1  N   -0.698137
     2  H    0.330830
     3  H    0.343389
     4  C   -0.085127
     5  H    0.162617
     6  C    0.626853
     7  C   -0.417390
     8  H    0.166816
     9  H    0.189224
    10  O   -0.350940
    11  C    0.172992
    12  C   -0.198901
    13  H    0.130354
    14  C   -0.206895
    15  H    0.159745
    16  C   -0.124652
    17  H    0.157139
    18  C   -0.130212
    19  H    0.154188
    20  C   -0.122806
    21  H    0.158914
    22  N   -0.598745
    23  C   -0.065261
    24  H    0.246951
    25  C    0.607604
    26  C   -0.332824
    27  H    0.212366
    28  H    0.211253
    29  O   -0.456895
    30  C   -0.312091
    31  H    0.174380
    32  H    0.220390
    33  C   -0.174894
    34  H    0.238539
    35  H    0.221837
    36  N   -0.624871
    37  H    0.349553
    38  C   -0.067369
    39  H    0.191358
    40  C    0.618129
    41  C   -0.267095
    42  H    0.191314
    43  H    0.128804
    44  O   -0.422444
    45  C   -0.281622
    46  H    0.183699
    47  H    0.129193
    48  C   -0.266639
    49  H    0.137082
    50  H    0.114793
    51  C   -0.141738
    52  H    0.152546
    53  H    0.142764
    54  N   -0.697749
    55  H    0.297796
    56  H    0.292681
    57  O   -0.594499
    58  H    0.432465
    59  H    0.391241
 Sum of Mulliken charges =   1.00000

 Dipole moment (field-independent basis, Debye):
    X=             -9.6817    Y=             -2.3548    Z=             -6.7807  Tot=             12.0523
 Quadrupole moment (field-independent basis, Debye-Ang):
   XX=           -154.7894   YY=           -144.2429   ZZ=           -113.7575
   XY=             -1.7444   XZ=              4.4103   YZ=            -16.0644

 Normal termination of Gaussian 16 at Thu Jun  2 03:00:20 2022.
