 Gaussian 16, Revision C.01,
 Gaussian 16:  ES64L-G16RevC.01  3-Jul-2019

 ----------------------------------------------------------------------
 # B3LYP/6-31G* empiricaldispersion=gd3 guess=read geom=check nosymm in
 tegral(ultrafinegrid)
 ----------------------------------------------------------------------

 ------------------------------------------------------
 Candidate Structure: Conf:448 Charge calc in gas phase
 ------------------------------------------------------
 Structure from the checkpoint file:  "conf-448.chk"
 Charge =  1 Multiplicity = 1

                          Input orientation:
 ---------------------------------------------------------------------
 Center     Atomic      Atomic             Coordinates (Angstroms)
 Number     Number       Type             X           Y           Z
 ---------------------------------------------------------------------
      1          7           0       -5.427711    2.480758   -2.585555
      2          1           0       -5.668168    2.438783   -3.572719
      3          1           0       -5.190199    3.445554   -2.364680
      4          6           0       -4.311886    1.622894   -2.261578
      5          1           0       -3.443958    1.692176   -2.941333
      6          6           0       -4.777675    0.176448   -2.252324
      7          6           0       -3.798694    1.977005   -0.824284
      8          1           0       -4.678093    1.997540   -0.172531
      9          1           0       -3.128574    1.197663   -0.451782
     10          8           0       -5.845746   -0.290508   -2.021657
     11          6           0       -3.065767    3.298857   -0.816265
     12          6           0       -1.746394    3.366748   -1.288714
     13          1           0       -1.258790    2.466930   -1.658685
     14          6           0       -3.689788    4.465489   -0.357841
     15          1           0       -4.707609    4.419593    0.023116
     16          6           0       -1.057805    4.578983   -1.296130
     17          1           0       -0.022727    4.612314   -1.619762
     18          6           0       -3.002962    5.682730   -0.369362
     19          1           0       -3.494802    6.581617   -0.009010
     20          6           0       -1.688545    5.739240   -0.834347
     21          1           0       -1.154072    6.685139   -0.839972
     22          7           0       -3.622834   -0.831698   -2.563242
     23          6           0       -2.891566   -1.338891   -1.325530
     24          1           0       -3.491928   -1.117336   -0.440995
     25          6           0       -1.558824   -0.566687   -1.323959
     26          6           0       -2.708286   -2.862168   -1.552234
     27          1           0       -1.713099   -3.189458   -1.238927
     28          1           0       -3.452178   -3.409957   -0.966661
     29          8           0       -1.203528    0.011156   -2.356966
     30          6           0       -2.952053   -3.054970   -3.059126
     31          1           0       -2.048533   -2.820197   -3.632149
     32          1           0       -3.259526   -4.072999   -3.309107
     33          6           0       -4.052561   -2.042548   -3.360535
     34          1           0       -5.025820   -2.348281   -2.970757
     35          1           0       -4.151896   -1.753968   -4.408694
     36          7           0       -0.864346   -0.565152   -0.179090
     37          1           0       -1.163391   -1.165529    0.580379
     38          6           0        0.500476   -0.035450   -0.123796
     39          1           0        0.509776    0.900026   -0.685828
     40          6           0        1.500536   -0.961779   -0.815041
     41          6           0        0.894600    0.231918    1.343444
     42          1           0        0.891139   -0.720991    1.891116
     43          1           0        0.099616    0.851661    1.775115
     44          8           0        2.588738   -0.605992   -1.190868
     45          6           0        2.259517    0.919632    1.523285
     46          1           0        2.395548    1.085740    2.599461
     47          1           0        3.054967    0.236196    1.209742
     48          6           0        2.424677    2.249139    0.771288
     49          1           0        2.404847    2.083560   -0.312289
     50          1           0        3.428647    2.635876    0.992657
     51          6           0        1.392440    3.317145    1.143551
     52          1           0        0.383422    2.987747    0.859405
     53          1           0        1.383326    3.438518    2.243134
     54          7           0        1.657349    4.556637    0.406251
     55          1           0        2.569341    4.926834    0.672898
     56          1           0        0.974404    5.264637    0.670518
     57          8           0        1.046605   -2.238850   -0.915524
     58          1           0        1.767477   -2.755905   -1.324953
     59          1           0       -2.855638   -0.330768   -3.064878
 ---------------------------------------------------------------------

 SCF Done:  E(RB3LYP) =  -1300.56622525     A.U. after    2 cycles

 Alpha  occ. eigenvalues --  -19.32268 -19.31216 -19.28244 -19.25036 -14.58673
 Alpha  occ. eigenvalues --  -14.51633 -14.43746 -14.38771 -10.47000 -10.44913
 Alpha  occ. eigenvalues --  -10.43238 -10.40976 -10.38500 -10.37293 -10.36157
 Alpha  occ. eigenvalues --  -10.34893 -10.34120 -10.32271 -10.30428 -10.29874
 Alpha  occ. eigenvalues --  -10.28467 -10.28453 -10.28280 -10.28079 -10.27836
 Alpha  occ. eigenvalues --  -10.27673 -10.27436 -10.25904  -1.23813  -1.21810
 Alpha  occ. eigenvalues --   -1.20284  -1.13665  -1.12889  -1.08134  -1.02441
 Alpha  occ. eigenvalues --   -0.95669  -0.95505  -0.94992  -0.93059  -0.90524
 Alpha  occ. eigenvalues --   -0.89152  -0.85267  -0.84637  -0.83572  -0.80109
 Alpha  occ. eigenvalues --   -0.78966  -0.77414  -0.76833  -0.74749  -0.73979
 Alpha  occ. eigenvalues --   -0.73008  -0.71748  -0.69900  -0.69580  -0.67808
 Alpha  occ. eigenvalues --   -0.65856  -0.65365  -0.64854  -0.63562  -0.63038
 Alpha  occ. eigenvalues --   -0.62253  -0.60982  -0.60285  -0.59795  -0.59286
 Alpha  occ. eigenvalues --   -0.58805  -0.58359  -0.57818  -0.57057  -0.56754
 Alpha  occ. eigenvalues --   -0.55559  -0.54966  -0.54589  -0.54363  -0.54273
 Alpha  occ. eigenvalues --   -0.54177  -0.52820  -0.52129  -0.51537  -0.51169
 Alpha  occ. eigenvalues --   -0.51054  -0.50645  -0.50565  -0.50279  -0.50149
 Alpha  occ. eigenvalues --   -0.49647  -0.48887  -0.48565  -0.47037  -0.46376
 Alpha  occ. eigenvalues --   -0.45168  -0.44291  -0.43510  -0.43181  -0.42988
 Alpha  occ. eigenvalues --   -0.42498  -0.42340  -0.41911  -0.41371  -0.40707
 Alpha  occ. eigenvalues --   -0.37653  -0.36437  -0.34183  -0.33960  -0.31058
 Alpha virt. eigenvalues --   -0.18597  -0.14047  -0.10478  -0.10076  -0.09498
 Alpha virt. eigenvalues --   -0.07584  -0.06839  -0.06201  -0.03515  -0.03087
 Alpha virt. eigenvalues --   -0.02685  -0.01288  -0.01123  -0.00213  -0.00003

 Mulliken charges:
               1
     1  N   -0.708680
     2  H    0.324617
     3  H    0.338377
     4  C   -0.058208
     5  H    0.168611
     6  C    0.581291
     7  C   -0.389436
     8  H    0.199456
     9  H    0.148763
    10  O   -0.345426
    11  C    0.147516
    12  C   -0.209950
    13  H    0.151181
    14  C   -0.196398
    15  H    0.149439
    16  C   -0.129233
    17  H    0.184290
    18  C   -0.125769
    19  H    0.156845
    20  C   -0.141004
    21  H    0.154679
    22  N   -0.601385
    23  C   -0.093669
    24  H    0.218212
    25  C    0.649122
    26  C   -0.309834
    27  H    0.209194
    28  H    0.197131
    29  O   -0.527008
    30  C   -0.307751
    31  H    0.194325
    32  H    0.209673
    33  C   -0.161343
    34  H    0.229948
    35  H    0.214566
    36  N   -0.599805
    37  H    0.353959
    38  C   -0.046020
    39  H    0.227300
    40  C    0.611625
    41  C   -0.316705
    42  H    0.153751
    43  H    0.170683
    44  O   -0.427109
    45  C   -0.274336
    46  H    0.155214
    47  H    0.170923
    48  C   -0.270287
    49  H    0.163366
    50  H    0.149291
    51  C   -0.139370
    52  H    0.128686
    53  H    0.122827
    54  N   -0.723566
    55  H    0.305816
    56  H    0.304541
    57  O   -0.588198
    58  H    0.430113
    59  H    0.415155
 Sum of Mulliken charges =   1.00000

 Dipole moment (field-independent basis, Debye):
    X=            -11.5027    Y=             -1.8535    Z=             -5.8414  Tot=             13.0333
 Quadrupole moment (field-independent basis, Debye-Ang):
   XX=           -126.1037   YY=           -109.3731   ZZ=           -132.4432
   XY=              4.4728   XZ=             37.4947   YZ=             15.6383

 Normal termination of Gaussian 16 at Thu Jun  2 03:00:28 2022.
