 Gaussian 16, Revision C.01,
 Gaussian 16:  ES64L-G16RevC.01  3-Jul-2019

 ----------------------------------------------------------------------
 # B3LYP/6-31G* empiricaldispersion=gd3 guess=read geom=check nosymm in
 tegral(ultrafinegrid)
 ----------------------------------------------------------------------

 ------------------------------------------------------
 Candidate Structure: Conf:966 Charge calc in gas phase
 ------------------------------------------------------
 Structure from the checkpoint file:  "conf-966.chk"
 Charge =  1 Multiplicity = 1

                          Input orientation:
 ---------------------------------------------------------------------
 Center     Atomic      Atomic             Coordinates (Angstroms)
 Number     Number       Type             X           Y           Z
 ---------------------------------------------------------------------
      1          7           0       -3.338982    3.155396   -2.984705
      2          1           0       -3.269505    2.909070   -3.970583
      3          1           0       -2.402195    3.106303   -2.585359
      4          6           0       -4.256569    2.265682   -2.297392
      5          1           0       -4.347295    2.590885   -1.256989
      6          6           0       -3.735148    0.826544   -2.336952
      7          6           0       -5.664592    2.303455   -2.932714
      8          1           0       -5.969596    3.354817   -2.933664
      9          1           0       -5.588418    1.978141   -3.976011
     10          8           0       -3.599593    0.126924   -3.293590
     11          6           0       -6.636395    1.435582   -2.165971
     12          6           0       -7.119646    1.856221   -0.916494
     13          1           0       -6.867080    2.849774   -0.551141
     14          6           0       -6.996424    0.165190   -2.636506
     15          1           0       -6.634164   -0.169050   -3.605472
     16          6           0       -7.931669    1.020110   -0.148434
     17          1           0       -8.308242    1.363554    0.810983
     18          6           0       -7.812639   -0.672287   -1.870884
     19          1           0       -8.090967   -1.650313   -2.252880
     20          6           0       -8.274996   -0.250156   -0.622510
     21          1           0       -8.913377   -0.898493   -0.029514
     22          7           0       -3.259771    0.167685   -0.989845
     23          6           0       -2.409717    1.009255   -0.028259
     24          1           0       -2.818534    2.019798   -0.030703
     25          6           0       -1.036959    1.064785   -0.706496
     26          6           0       -2.666286    0.345517    1.323337
     27          1           0       -2.109009   -0.594391    1.423770
     28          1           0       -2.381001    1.000143    2.150294
     29          8           0       -0.900070    1.813098   -1.670516
     30          6           0       -4.175215    0.054873    1.264285
     31          1           0       -4.496621   -0.683688    2.002105
     32          1           0       -4.748664    0.971582    1.436634
     33          6           0       -4.409597   -0.443706   -0.167145
     34          1           0       -5.359687   -0.126910   -0.592815
     35          1           0       -4.319001   -1.526361   -0.266590
     36          7           0       -0.121351    0.142750   -0.339612
     37          1           0       -0.323026   -0.488114    0.423142
     38          6           0        0.903586   -0.268009   -1.296118
     39          1           0        1.417300    0.627048   -1.655401
     40          6           0        0.280156   -0.907257   -2.544372
     41          6           0        1.927534   -1.228096   -0.662081
     42          1           0        2.442379   -0.691866    0.144031
     43          1           0        2.675457   -1.442000   -1.432652
     44          8           0        0.884538   -1.106540   -3.562085
     45          6           0        1.340318   -2.545852   -0.136462
     46          1           0        0.611362   -2.354356    0.668519
     47          1           0        0.782879   -3.051177   -0.937667
     48          6           0        2.417126   -3.493509    0.407313
     49          1           0        2.987583   -2.988097    1.200067
     50          1           0        3.133971   -3.724937   -0.393054
     51          6           0        1.830948   -4.805372    0.961023
     52          1           0        1.115097   -4.570454    1.761579
     53          1           0        1.253281   -5.304293    0.170909
     54          7           0        2.789364   -5.770015    1.489324
     55          1           0        3.341897   -5.351314    2.235870
     56          1           0        3.448241   -6.049889    0.764556
     57          8           0       -1.036199   -1.277700   -2.382496
     58          1           0       -1.330175   -1.628752   -3.246117
     59          1           0       -2.650104   -0.589271   -1.339998
 ---------------------------------------------------------------------

 SCF Done:  E(RB3LYP) =  -1300.55859772     A.U. after    2 cycles

 Alpha  occ. eigenvalues --  -19.33117 -19.32341 -19.27060 -19.26401 -14.59412
 Alpha  occ. eigenvalues --  -14.51057 -14.44159 -14.38292 -10.47281 -10.44527
 Alpha  occ. eigenvalues --  -10.44389 -10.40785 -10.38947 -10.37261 -10.36773
 Alpha  occ. eigenvalues --  -10.35653 -10.34710 -10.31221 -10.31079 -10.30808
 Alpha  occ. eigenvalues --  -10.30121 -10.29991 -10.29943 -10.29840 -10.29731
 Alpha  occ. eigenvalues --  -10.29730 -10.28690 -10.27242  -1.24021  -1.23059
 Alpha  occ. eigenvalues --   -1.19238  -1.14393  -1.13774  -1.07662  -1.02441
 Alpha  occ. eigenvalues --   -0.96727  -0.96137  -0.95409  -0.93133  -0.90929
 Alpha  occ. eigenvalues --   -0.89958  -0.86370  -0.85364  -0.84374  -0.80828
 Alpha  occ. eigenvalues --   -0.79556  -0.79457  -0.76387  -0.75469  -0.74186
 Alpha  occ. eigenvalues --   -0.72603  -0.71777  -0.71501  -0.69835  -0.69163
 Alpha  occ. eigenvalues --   -0.68107  -0.67077  -0.65057  -0.63801  -0.62882
 Alpha  occ. eigenvalues --   -0.62099  -0.61874  -0.60756  -0.60485  -0.59933
 Alpha  occ. eigenvalues --   -0.59204  -0.58602  -0.58230  -0.57551  -0.57268
 Alpha  occ. eigenvalues --   -0.57047  -0.56143  -0.55716  -0.55247  -0.54824
 Alpha  occ. eigenvalues --   -0.53964  -0.53320  -0.52788  -0.52427  -0.52300
 Alpha  occ. eigenvalues --   -0.52007  -0.51702  -0.51216  -0.51022  -0.50563
 Alpha  occ. eigenvalues --   -0.49831  -0.49075  -0.48544  -0.47467  -0.46310
 Alpha  occ. eigenvalues --   -0.45704  -0.45183  -0.44950  -0.44787  -0.44520
 Alpha  occ. eigenvalues --   -0.44181  -0.43633  -0.42604  -0.41958  -0.40744
 Alpha  occ. eigenvalues --   -0.38599  -0.36489  -0.36165  -0.35649  -0.30355
 Alpha virt. eigenvalues --   -0.18601  -0.14658  -0.11699  -0.11467  -0.11309
 Alpha virt. eigenvalues --   -0.08928  -0.07201  -0.06216  -0.04819  -0.03832
 Alpha virt. eigenvalues --   -0.03197  -0.02232  -0.01406  -0.00553  -0.00101

 Mulliken charges:
               1
     1  N   -0.697158
     2  H    0.329440
     3  H    0.354487
     4  C   -0.050559
     5  H    0.155960
     6  C    0.584915
     7  C   -0.354461
     8  H    0.202513
     9  H    0.179913
    10  O   -0.390484
    11  C    0.132309
    12  C   -0.200378
    13  H    0.147214
    14  C   -0.198524
    15  H    0.155824
    16  C   -0.135607
    17  H    0.158885
    18  C   -0.132833
    19  H    0.161088
    20  C   -0.136569
    21  H    0.161485
    22  N   -0.621556
    23  C   -0.075713
    24  H    0.220625
    25  C    0.621204
    26  C   -0.309182
    27  H    0.164569
    28  H    0.214138
    29  O   -0.499950
    30  C   -0.303011
    31  H    0.205868
    32  H    0.189720
    33  C   -0.174755
    34  H    0.245428
    35  H    0.209579
    36  N   -0.607117
    37  H    0.354235
    38  C   -0.046449
    39  H    0.229892
    40  C    0.618779
    41  C   -0.302268
    42  H    0.173751
    43  H    0.196986
    44  O   -0.418073
    45  C   -0.289177
    46  H    0.112165
    47  H    0.153686
    48  C   -0.266842
    49  H    0.138366
    50  H    0.147494
    51  C   -0.139476
    52  H    0.136093
    53  H    0.145314
    54  N   -0.697545
    55  H    0.300232
    56  H    0.302967
    57  O   -0.618873
    58  H    0.438265
    59  H    0.423171
 Sum of Mulliken charges =   1.00000

 Dipole moment (field-independent basis, Debye):
    X=            -14.4515    Y=             -0.6544    Z=             -0.4176  Tot=             14.4724
 Quadrupole moment (field-independent basis, Debye-Ang):
   XX=            -70.6640   YY=           -164.0711   ZZ=           -155.0128
   XY=             -8.7467   XZ=             10.5193   YZ=              5.1868

 Normal termination of Gaussian 16 at Thu Jun  2 03:15:18 2022.
