 Gaussian 16, Revision C.01,
 Gaussian 16:  ES64L-G16RevC.01  3-Jul-2019

 ----------------------------------------------------------------------
 # B3LYP/6-31G* empiricaldispersion=gd3 guess=read geom=check nosymm in
 tegral(ultrafinegrid)
 ----------------------------------------------------------------------

 ------------------------------------------------------
 Candidate Structure: Conf:367 Charge calc in gas phase
 ------------------------------------------------------
 Structure from the checkpoint file:  "conf-367.chk"
 Charge =  1 Multiplicity = 1

                          Input orientation:
 ---------------------------------------------------------------------
 Center     Atomic      Atomic             Coordinates (Angstroms)
 Number     Number       Type             X           Y           Z
 ---------------------------------------------------------------------
      1          7           0       -3.360254    4.798619    1.579659
      2          1           0       -4.349024    4.987542    1.728251
      3          1           0       -3.087045    5.146994    0.664465
      4          6           0       -3.035945    3.397642    1.789606
      5          1           0       -1.988765    3.246635    1.507997
      6          6           0       -3.926957    2.512425    0.908673
      7          6           0       -3.228569    3.002928    3.271287
      8          1           0       -2.613419    3.692729    3.856852
      9          1           0       -4.274984    3.176145    3.545737
     10          8           0       -5.111112    2.380776    0.987699
     11          6           0       -2.839448    1.561190    3.513581
     12          6           0       -3.806369    0.543213    3.509912
     13          1           0       -4.857479    0.804925    3.419132
     14          6           0       -1.488967    1.207643    3.645487
     15          1           0       -0.730223    1.986764    3.663854
     16          6           0       -3.430055   -0.798419    3.614451
     17          1           0       -4.190694   -1.573851    3.617914
     18          6           0       -1.110718   -0.132097    3.757952
     19          1           0       -0.061520   -0.387457    3.881651
     20          6           0       -2.079207   -1.140264    3.731259
     21          1           0       -1.787156   -2.181961    3.829610
     22          7           0       -3.199560    1.796659   -0.245319
     23          6           0       -2.377877    0.594058    0.229112
     24          1           0       -2.614990    0.372850    1.269356
     25          6           0       -0.915900    1.042553    0.067771
     26          6           0       -2.766172   -0.552836   -0.731856
     27          1           0       -1.906128   -1.191993   -0.947179
     28          1           0       -3.547384   -1.163775   -0.269281
     29          8           0       -0.672821    2.092159   -0.541764
     30          6           0       -3.298249    0.167671   -1.980270
     31          1           0       -2.468728    0.529446   -2.597602
     32          1           0       -3.934295   -0.468701   -2.599862
     33          6           0       -4.077980    1.338054   -1.388581
     34          1           0       -5.030845    1.031188   -0.953558
     35          1           0       -4.243135    2.182162   -2.060400
     36          7           0        0.011736    0.229801    0.580617
     37          1           0       -0.287260   -0.610552    1.060323
     38          6           0        1.431680    0.374558    0.261000
     39          1           0        1.699043    1.429997    0.357270
     40          6           0        1.725009   -0.006269   -1.192375
     41          6           0        2.267609   -0.471632    1.243002
     42          1           0        2.012369   -1.532532    1.106211
     43          1           0        1.947537   -0.194560    2.256628
     44          8           0        2.707769    0.352281   -1.789681
     45          6           0        3.782743   -0.278261    1.116246
     46          1           0        4.114367   -0.573212    0.114215
     47          1           0        4.014933    0.790507    1.213560
     48          6           0        4.556926   -1.074177    2.173219
     49          1           0        4.293565   -2.139524    2.096103
     50          1           0        4.248460   -0.748676    3.178579
     51          6           0        6.087234   -0.929078    2.042437
     52          1           0        6.565378   -1.577833    2.786258
     53          1           0        6.401486   -1.304128    1.059552
     54          7           0        6.640969    0.413808    2.200447
     55          1           0        6.359593    0.818813    3.091684
     56          1           0        6.310625    1.038740    1.468730
     57          8           0        0.781665   -0.831941   -1.718501
     58          1           0        1.084314   -1.051624   -2.621077
     59          1           0       -2.433337    2.417268   -0.609310
 ---------------------------------------------------------------------

 SCF Done:  E(RB3LYP) =  -1300.57101825     A.U. after    1 cycles

 Alpha  occ. eigenvalues --  -19.32420 -19.31300 -19.28039 -19.25090 -14.58741
 Alpha  occ. eigenvalues --  -14.51122 -14.45907 -14.37450 -10.47231 -10.44507
 Alpha  occ. eigenvalues --  -10.43306 -10.40123 -10.38240 -10.37739 -10.36365
 Alpha  occ. eigenvalues --  -10.34518 -10.33861 -10.32021 -10.31702 -10.31173
 Alpha  occ. eigenvalues --  -10.31045 -10.31014 -10.30968 -10.30921 -10.30799
 Alpha  occ. eigenvalues --  -10.27513 -10.27218 -10.25981  -1.23989  -1.21871
 Alpha  occ. eigenvalues --   -1.19999  -1.13554  -1.12957  -1.07908  -1.03514
 Alpha  occ. eigenvalues --   -0.97772  -0.95530  -0.94407  -0.92856  -0.90846
 Alpha  occ. eigenvalues --   -0.90256  -0.86436  -0.85378  -0.85015  -0.80867
 Alpha  occ. eigenvalues --   -0.78830  -0.77826  -0.76790  -0.74857  -0.73798
 Alpha  occ. eigenvalues --   -0.72741  -0.72407  -0.71537  -0.70275  -0.68853
 Alpha  occ. eigenvalues --   -0.67319  -0.66233  -0.64987  -0.64078  -0.63034
 Alpha  occ. eigenvalues --   -0.62919  -0.61464  -0.61120  -0.60324  -0.59417
 Alpha  occ. eigenvalues --   -0.58903  -0.58512  -0.58294  -0.57144  -0.57041
 Alpha  occ. eigenvalues --   -0.56557  -0.56176  -0.55831  -0.55039  -0.54378
 Alpha  occ. eigenvalues --   -0.53832  -0.53553  -0.52490  -0.52149  -0.51608
 Alpha  occ. eigenvalues --   -0.51498  -0.51104  -0.50761  -0.50326  -0.49850
 Alpha  occ. eigenvalues --   -0.49456  -0.49054  -0.48927  -0.47295  -0.46859
 Alpha  occ. eigenvalues --   -0.46138  -0.45792  -0.44917  -0.44730  -0.43747
 Alpha  occ. eigenvalues --   -0.42983  -0.42354  -0.42007  -0.41226  -0.40613
 Alpha  occ. eigenvalues --   -0.37912  -0.37680  -0.36935  -0.36600  -0.29365
 Alpha virt. eigenvalues --   -0.18746  -0.13856  -0.12668  -0.12155  -0.10486
 Alpha virt. eigenvalues --   -0.07517  -0.05842  -0.05239  -0.04150  -0.03625
 Alpha virt. eigenvalues --   -0.02904  -0.02407  -0.01709  -0.00731  -0.00336

 Mulliken charges:
               1
     1  N   -0.684818
     2  H    0.337049
     3  H    0.328308
     4  C   -0.063742
     5  H    0.177945
     6  C    0.571267
     7  C   -0.346594
     8  H    0.201069
     9  H    0.182388
    10  O   -0.380951
    11  C    0.130218
    12  C   -0.201775
    13  H    0.163201
    14  C   -0.186131
    15  H    0.151710
    16  C   -0.134291
    17  H    0.164901
    18  C   -0.153637
    19  H    0.158749
    20  C   -0.146844
    21  H    0.162348
    22  N   -0.609375
    23  C   -0.112996
    24  H    0.236604
    25  C    0.659139
    26  C   -0.301005
    27  H    0.207616
    28  H    0.190573
    29  O   -0.536776
    30  C   -0.309155
    31  H    0.191884
    32  H    0.205848
    33  C   -0.155150
    34  H    0.227626
    35  H    0.211872
    36  N   -0.602334
    37  H    0.353034
    38  C   -0.029940
    39  H    0.214133
    40  C    0.603843
    41  C   -0.316178
    42  H    0.154694
    43  H    0.160762
    44  O   -0.427152
    45  C   -0.266468
    46  H    0.172135
    47  H    0.136867
    48  C   -0.266556
    49  H    0.133221
    50  H    0.125523
    51  C   -0.145789
    52  H    0.156312
    53  H    0.150581
    54  N   -0.700153
    55  H    0.295177
    56  H    0.300802
    57  O   -0.584931
    58  H    0.429400
    59  H    0.415944
 Sum of Mulliken charges =   1.00000

 Dipole moment (field-independent basis, Debye):
    X=            -12.3308    Y=              2.9743    Z=              2.4118  Tot=             12.9117
 Quadrupole moment (field-independent basis, Debye-Ang):
   XX=           -133.4898   YY=           -137.9905   ZZ=           -141.6719
   XY=            -22.9446   XZ=              4.8865   YZ=              3.2846

 Normal termination of Gaussian 16 at Thu Jun  2 03:08:06 2022.
