 Gaussian 16, Revision C.01,
 Gaussian 16:  ES64L-G16RevC.01  3-Jul-2019

 ----------------------------------------------------------------------
 # B3LYP/6-31G* empiricaldispersion=gd3 guess=read geom=check nosymm in
 tegral(ultrafinegrid)
 ----------------------------------------------------------------------

 ------------------------------------------------------
 Candidate Structure: Conf:961 Charge calc in gas phase
 ------------------------------------------------------
 Structure from the checkpoint file:  "conf-961.chk"
 Charge =  1 Multiplicity = 1

                          Input orientation:
 ---------------------------------------------------------------------
 Center     Atomic      Atomic             Coordinates (Angstroms)
 Number     Number       Type             X           Y           Z
 ---------------------------------------------------------------------
      1          7           0       -2.908260    2.103308    3.569014
      2          1           0       -2.189224    2.159769    4.282491
      3          1           0       -3.537505    2.893938    3.681229
      4          6           0       -3.625407    0.833637    3.605553
      5          1           0       -3.022374    0.094230    4.149063
      6          6           0       -3.734469    0.251686    2.192795
      7          6           0       -5.042803    0.865864    4.255769
      8          1           0       -5.426113   -0.158675    4.281964
      9          1           0       -4.909535    1.195804    5.291468
     10          8           0       -4.258074   -0.771890    1.869550
     11          6           0       -5.993710    1.774129    3.508159
     12          6           0       -6.036824    3.151521    3.773832
     13          1           0       -5.468256    3.559114    4.607915
     14          6           0       -6.805489    1.261475    2.483813
     15          1           0       -6.806371    0.192516    2.286731
     16          6           0       -6.838930    4.002584    3.009261
     17          1           0       -6.864329    5.065193    3.232559
     18          6           0       -7.616067    2.108974    1.726296
     19          1           0       -8.251626    1.694069    0.948900
     20          6           0       -7.624124    3.483560    1.977889
     21          1           0       -8.257717    4.142117    1.391248
     22          7           0       -3.080065    1.116710    1.130461
     23          6           0       -2.409715    0.368676    0.002150
     24          1           0       -2.671540   -0.688377    0.083092
     25          6           0       -0.895716    0.586976    0.219967
     26          6           0       -2.957295    1.015194   -1.292127
     27          1           0       -2.196852    1.050746   -2.075744
     28          1           0       -3.804517    0.430984   -1.665128
     29          8           0       -0.513014    1.359372    1.101631
     30          6           0       -3.422398    2.407399   -0.838228
     31          1           0       -2.570954    3.087840   -0.726895
     32          1           0       -4.139081    2.863561   -1.525498
     33          6           0       -4.054187    2.120436    0.519075
     34          1           0       -5.023734    1.627216    0.428912
     35          1           0       -4.146127    2.969481    1.196588
     36          7           0       -0.091716   -0.083219   -0.617673
     37          1           0       -0.477247   -0.748275   -1.276940
     38          6           0        1.371947    0.013677   -0.544553
     39          1           0        1.615400    1.017623   -0.195138
     40          6           0        1.983266   -0.146584   -1.927336
     41          6           0        1.951024   -1.034766    0.438317
     42          1           0        1.614124   -2.028330    0.115573
     43          1           0        1.482631   -0.830667    1.409390
     44          8           0        3.019215    0.360577   -2.276930
     45          6           0        3.478214   -1.012520    0.580848
     46          1           0        3.762565   -1.762496    1.326177
     47          1           0        3.946359   -1.316074   -0.364281
     48          6           0        4.054328    0.342894    1.010582
     49          1           0        3.477105    0.739575    1.861060
     50          1           0        3.961013    1.069791    0.194419
     51          6           0        5.531795    0.244959    1.411995
     52          1           0        6.095932   -0.200287    0.582608
     53          1           0        5.933501    1.263295    1.554038
     54          7           0        5.693543   -0.627983    2.582115
     55          1           0        5.372953   -0.141498    3.418649
     56          1           0        6.679592   -0.830064    2.734677
     57          8           0        1.256166   -0.992023   -2.704946
     58          1           0        1.733581   -1.091905   -3.551003
     59          1           0       -2.331764    1.655450    1.638018
 ---------------------------------------------------------------------

 SCF Done:  E(RB3LYP) =  -1300.57787726     A.U. after    1 cycles

 Alpha  occ. eigenvalues --  -19.31933 -19.30223 -19.25645 -19.24064 -14.57179
 Alpha  occ. eigenvalues --  -14.49420 -14.46513 -14.37068 -10.46804 -10.42778
 Alpha  occ. eigenvalues --  -10.42287 -10.38846 -10.38007 -10.37736 -10.34449
 Alpha  occ. eigenvalues --  -10.33694 -10.33232 -10.32116 -10.31289 -10.30257
 Alpha  occ. eigenvalues --  -10.29954 -10.29908 -10.29856 -10.29651 -10.28218
 Alpha  occ. eigenvalues --  -10.26639 -10.25063 -10.24553  -1.23498  -1.20792
 Alpha  occ. eigenvalues --   -1.17863  -1.12604  -1.11923  -1.05890  -1.04091
 Alpha  occ. eigenvalues --   -0.96667  -0.94692  -0.93786  -0.91382  -0.90232
 Alpha  occ. eigenvalues --   -0.88731  -0.85510  -0.85192  -0.83601  -0.80312
 Alpha  occ. eigenvalues --   -0.78029  -0.76716  -0.75709  -0.73227  -0.73026
 Alpha  occ. eigenvalues --   -0.71982  -0.71547  -0.69976  -0.69086  -0.68182
 Alpha  occ. eigenvalues --   -0.65964  -0.64494  -0.64249  -0.63674  -0.62038
 Alpha  occ. eigenvalues --   -0.61711  -0.61178  -0.59785  -0.58829  -0.58169
 Alpha  occ. eigenvalues --   -0.57972  -0.57412  -0.56816  -0.56387  -0.56284
 Alpha  occ. eigenvalues --   -0.55654  -0.54898  -0.54506  -0.53952  -0.53559
 Alpha  occ. eigenvalues --   -0.52875  -0.52569  -0.52110  -0.51504  -0.50636
 Alpha  occ. eigenvalues --   -0.50556  -0.50395  -0.50174  -0.49990  -0.49123
 Alpha  occ. eigenvalues --   -0.48643  -0.48213  -0.47362  -0.46685  -0.45881
 Alpha  occ. eigenvalues --   -0.45226  -0.44878  -0.44057  -0.43393  -0.42258
 Alpha  occ. eigenvalues --   -0.40851  -0.40543  -0.39853  -0.39590  -0.39062
 Alpha  occ. eigenvalues --   -0.38445  -0.36494  -0.36135  -0.35612  -0.29294
 Alpha virt. eigenvalues --   -0.18502  -0.11783  -0.11551  -0.11476  -0.09262
 Alpha virt. eigenvalues --   -0.06100  -0.04274  -0.04116  -0.03483  -0.02431
 Alpha virt. eigenvalues --   -0.01471  -0.01075  -0.00241   0.00481   0.00944

 Mulliken charges:
               1
     1  N   -0.772266
     2  H    0.352440
     3  H    0.338882
     4  C   -0.072523
     5  H    0.215152
     6  C    0.598696
     7  C   -0.369209
     8  H    0.195791
     9  H    0.185517
    10  O   -0.377122
    11  C    0.149542
    12  C   -0.214184
    13  H    0.146396
    14  C   -0.204331
    15  H    0.159379
    16  C   -0.128720
    17  H    0.162944
    18  C   -0.134781
    19  H    0.159884
    20  C   -0.130417
    21  H    0.162925
    22  N   -0.601437
    23  C   -0.078920
    24  H    0.224656
    25  C    0.634143
    26  C   -0.305493
    27  H    0.195506
    28  H    0.189532
    29  O   -0.521541
    30  C   -0.301340
    31  H    0.193750
    32  H    0.202462
    33  C   -0.170746
    34  H    0.214162
    35  H    0.213840
    36  N   -0.612604
    37  H    0.362648
    38  C   -0.049517
    39  H    0.216152
    40  C    0.597276
    41  C   -0.278303
    42  H    0.148113
    43  H    0.159164
    44  O   -0.432733
    45  C   -0.266009
    46  H    0.183242
    47  H    0.148587
    48  C   -0.266469
    49  H    0.121925
    50  H    0.151583
    51  C   -0.145907
    52  H    0.149202
    53  H    0.126282
    54  N   -0.717058
    55  H    0.294466
    56  H    0.308209
    57  O   -0.590101
    58  H    0.432295
    59  H    0.446984
 Sum of Mulliken charges =   1.00000

 Dipole moment (field-independent basis, Debye):
    X=            -13.8890    Y=              5.9005    Z=              5.4441  Tot=             16.0424
 Quadrupole moment (field-independent basis, Debye-Ang):
   XX=            -78.0354   YY=           -143.7525   ZZ=           -116.0073
   XY=            -36.2049   XZ=            -18.1835   YZ=             20.3255

 Normal termination of Gaussian 16 at Thu Jun  2 03:15:17 2022.
