 Gaussian 16, Revision C.01,
 Gaussian 16:  ES64L-G16RevC.01  3-Jul-2019

 ----------------------------------------------------------------------
 # B3LYP/6-31G* empiricaldispersion=gd3 guess=read geom=check nosymm in
 tegral(ultrafinegrid)
 ----------------------------------------------------------------------

 ------------------------------------------------------
 Candidate Structure: Conf:797 Charge calc in gas phase
 ------------------------------------------------------
 Structure from the checkpoint file:  "conf-797.chk"
 Charge =  1 Multiplicity = 1

                          Input orientation:
 ---------------------------------------------------------------------
 Center     Atomic      Atomic             Coordinates (Angstroms)
 Number     Number       Type             X           Y           Z
 ---------------------------------------------------------------------
      1          7           0       -1.089950   -1.675657   -4.708047
      2          1           0       -1.775242   -2.188691   -5.257698
      3          1           0       -0.603528   -2.312571   -4.081356
      4          6           0       -1.679466   -0.550497   -4.000515
      5          1           0       -0.910522   -0.120804   -3.355450
      6          6           0       -2.845609   -1.056350   -3.146688
      7          6           0       -2.201555    0.549811   -4.948200
      8          1           0       -1.354925    0.863648   -5.565925
      9          1           0       -2.961699    0.122933   -5.611754
     10          8           0       -3.904917   -1.455843   -3.521440
     11          6           0       -2.765291    1.696523   -4.134622
     12          6           0       -4.131063    1.749258   -3.816510
     13          1           0       -4.811226    1.025023   -4.257159
     14          6           0       -1.902660    2.646260   -3.567599
     15          1           0       -0.840598    2.609712   -3.793881
     16          6           0       -4.620691    2.717620   -2.935890
     17          1           0       -5.682570    2.752281   -2.708164
     18          6           0       -2.390035    3.615783   -2.689491
     19          1           0       -1.708179    4.343555   -2.259375
     20          6           0       -3.749461    3.649017   -2.364992
     21          1           0       -4.129560    4.406897   -1.685844
     22          7           0       -2.524962   -1.187678   -1.619812
     23          6           0       -2.263137    0.206216   -0.969540
     24          1           0       -2.472777    0.962112   -1.724367
     25          6           0       -0.758010    0.248404   -0.680372
     26          6           0       -3.271580    0.291923    0.185823
     27          1           0       -2.827456   -0.023493    1.137155
     28          1           0       -3.609511    1.323646    0.305634
     29          8           0        0.000663    0.882056   -1.396641
     30          6           0       -4.394549   -0.670273   -0.230187
     31          1           0       -5.032234   -0.973855    0.603209
     32          1           0       -5.026075   -0.212968   -0.999443
     33          6           0       -3.629310   -1.848060   -0.824933
     34          1           0       -4.209880   -2.486167   -1.489794
     35          1           0       -3.148782   -2.459236   -0.055122
     36          7           0       -0.316904   -0.600637    0.299335
     37          1           0       -0.992990   -1.142042    0.822813
     38          6           0        1.011146   -1.180364    0.172316
     39          1           0        1.727213   -0.371618    0.009209
     40          6           0        1.043887   -2.061309   -1.081395
     41          6           0        1.402841   -1.983549    1.427675
     42          1           0        2.396259   -2.407756    1.249827
     43          1           0        0.712568   -2.833069    1.536160
     44          8           0        0.059395   -2.386586   -1.740640
     45          6           0        1.418206   -1.143587    2.714226
     46          1           0        0.405139   -0.780010    2.939793
     47          1           0        1.703204   -1.815800    3.531631
     48          6           0        2.394874    0.036834    2.677155
     49          1           0        2.082497    0.767025    1.917150
     50          1           0        3.391172   -0.328946    2.396869
     51          6           0        2.510258    0.761496    4.026023
     52          1           0        3.230774    1.578902    3.913622
     53          1           0        1.540169    1.232014    4.269501
     54          7           0        3.006064   -0.143525    5.069823
     55          1           0        2.234790   -0.634732    5.515866
     56          1           0        3.463040    0.385955    5.808081
     57          8           0        2.274391   -2.455911   -1.377820
     58          1           0        2.251379   -3.022358   -2.173998
     59          1           0       -1.639128   -1.737878   -1.575232
 ---------------------------------------------------------------------

 SCF Done:  E(RB3LYP) =  -1300.57352202     A.U. after    1 cycles

 Alpha  occ. eigenvalues --  -19.34217 -19.31602 -19.29876 -19.26277 -14.58029
 Alpha  occ. eigenvalues --  -14.50391 -14.44760 -14.38547 -10.47158 -10.46243
 Alpha  occ. eigenvalues --  -10.43497 -10.39028 -10.37929 -10.37147 -10.36075
 Alpha  occ. eigenvalues --  -10.34053 -10.33373 -10.31187 -10.30126 -10.29943
 Alpha  occ. eigenvalues --  -10.29006 -10.28952 -10.28825 -10.28772 -10.28716
 Alpha  occ. eigenvalues --  -10.28588 -10.28461 -10.26638  -1.25680  -1.23131
 Alpha  occ. eigenvalues --   -1.18566  -1.16531  -1.12751  -1.07063  -1.02302
 Alpha  occ. eigenvalues --   -0.95709  -0.95452  -0.94935  -0.92831  -0.90204
 Alpha  occ. eigenvalues --   -0.89033  -0.86123  -0.84261  -0.83506  -0.80300
 Alpha  occ. eigenvalues --   -0.80166  -0.77347  -0.75866  -0.74586  -0.73761
 Alpha  occ. eigenvalues --   -0.72709  -0.71876  -0.70477  -0.69736  -0.68109
 Alpha  occ. eigenvalues --   -0.66506  -0.66441  -0.65440  -0.63856  -0.63197
 Alpha  occ. eigenvalues --   -0.62529  -0.61276  -0.60726  -0.60022  -0.59192
 Alpha  occ. eigenvalues --   -0.58687  -0.58460  -0.57576  -0.56870  -0.56730
 Alpha  occ. eigenvalues --   -0.56353  -0.55598  -0.55180  -0.54884  -0.54590
 Alpha  occ. eigenvalues --   -0.54133  -0.53110  -0.52676  -0.51743  -0.51549
 Alpha  occ. eigenvalues --   -0.51297  -0.50631  -0.50226  -0.50055  -0.49459
 Alpha  occ. eigenvalues --   -0.49273  -0.48808  -0.47824  -0.47742  -0.46872
 Alpha  occ. eigenvalues --   -0.46151  -0.45377  -0.44629  -0.43818  -0.43664
 Alpha  occ. eigenvalues --   -0.43484  -0.42824  -0.42471  -0.41208  -0.40404
 Alpha  occ. eigenvalues --   -0.39359  -0.36450  -0.35032  -0.34548  -0.30861
 Alpha virt. eigenvalues --   -0.17643  -0.14345  -0.13639  -0.10534  -0.10169
 Alpha virt. eigenvalues --   -0.08425  -0.05830  -0.05355  -0.03456  -0.02732
 Alpha virt. eigenvalues --   -0.01447  -0.00983  -0.00680  -0.00433   0.00417

 Mulliken charges:
               1
     1  N   -0.701615
     2  H    0.330810
     3  H    0.329567
     4  C   -0.063832
     5  H    0.198669
     6  C    0.562711
     7  C   -0.342673
     8  H    0.194127
     9  H    0.175331
    10  O   -0.385195
    11  C    0.115439
    12  C   -0.198102
    13  H    0.155423
    14  C   -0.173435
    15  H    0.156805
    16  C   -0.141032
    17  H    0.153812
    18  C   -0.133590
    19  H    0.158828
    20  C   -0.140698
    21  H    0.155420
    22  N   -0.640147
    23  C   -0.081566
    24  H    0.250785
    25  C    0.589436
    26  C   -0.305740
    27  H    0.167840
    28  H    0.212014
    29  O   -0.471729
    30  C   -0.301291
    31  H    0.199479
    32  H    0.198294
    33  C   -0.160329
    34  H    0.234634
    35  H    0.182700
    36  N   -0.589432
    37  H    0.334196
    38  C   -0.052357
    39  H    0.235460
    40  C    0.631356
    41  C   -0.311340
    42  H    0.195505
    43  H    0.142402
    44  O   -0.518440
    45  C   -0.263219
    46  H    0.123515
    47  H    0.173325
    48  C   -0.245719
    49  H    0.130637
    50  H    0.155246
    51  C   -0.151635
    52  H    0.155547
    53  H    0.119755
    54  N   -0.717341
    55  H    0.299784
    56  H    0.314516
    57  O   -0.522931
    58  H    0.440219
    59  H    0.439800
 Sum of Mulliken charges =   1.00000

 Dipole moment (field-independent basis, Debye):
    X=             -8.2057    Y=             -4.8330    Z=             -2.3665  Tot=              9.8129
 Quadrupole moment (field-independent basis, Debye-Ang):
   XX=           -125.5056   YY=           -138.8653   ZZ=           -128.4604
   XY=             -0.8563   XZ=             10.0936   YZ=             11.5171

 Normal termination of Gaussian 16 at Thu Jun  2 03:08:13 2022.
