 Gaussian 16, Revision C.01,
 Gaussian 16:  ES64L-G16RevC.01  3-Jul-2019

 ----------------------------------------------------------------------
 # B3LYP/6-31G* empiricaldispersion=gd3 guess=read geom=check nosymm in
 tegral(ultrafinegrid)
 ----------------------------------------------------------------------

 ------------------------------------------------------
 Candidate Structure: Conf:879 Charge calc in gas phase
 ------------------------------------------------------
 Structure from the checkpoint file:  "conf-879.chk"
 Charge =  1 Multiplicity = 1

                          Input orientation:
 ---------------------------------------------------------------------
 Center     Atomic      Atomic             Coordinates (Angstroms)
 Number     Number       Type             X           Y           Z
 ---------------------------------------------------------------------
      1          7           0       -1.612500    2.578236    3.303712
      2          1           0       -0.616787    2.540907    3.095326
      3          1           0       -1.808806    3.429329    3.824713
      4          6           0       -2.029090    1.390732    4.052969
      5          1           0       -1.282526    1.013676    4.762572
      6          6           0       -2.268040    0.250042    3.079355
      7          6           0       -3.348136    1.690781    4.831390
      8          1           0       -3.087797    2.450810    5.579070
      9          1           0       -4.056616    2.162383    4.138891
     10          8           0       -2.313679   -0.924663    3.278217
     11          6           0       -3.969812    0.484176    5.492472
     12          6           0       -5.130491   -0.096215    4.968386
     13          1           0       -5.615882    0.354116    4.104058
     14          6           0       -3.374519   -0.090724    6.622501
     15          1           0       -2.477673    0.355930    7.046781
     16          6           0       -5.687610   -1.231916    5.558401
     17          1           0       -6.594604   -1.666059    5.147600
     18          6           0       -3.926225   -1.226827    7.212309
     19          1           0       -3.457383   -1.660824    8.090532
     20          6           0       -5.083349   -1.801089    6.679846
     21          1           0       -5.515343   -2.683456    7.142525
     22          7           0       -2.599731    0.767246    1.663902
     23          6           0       -1.887815    0.004234    0.584240
     24          1           0       -2.074912   -1.053427    0.805386
     25          6           0       -0.387997    0.280278    0.728181
     26          6           0       -2.614807    0.440858   -0.696064
     27          1           0       -2.144413    1.340681   -1.104438
     28          1           0       -2.563929   -0.335944   -1.463109
     29          8           0        0.035662    0.760554    1.784353
     30          6           0       -4.075403    0.731751   -0.245316
     31          1           0       -4.399066    1.713451   -0.598530
     32          1           0       -4.780019   -0.004684   -0.638020
     33          6           0       -4.060486    0.675942    1.298618
     34          1           0       -4.418487   -0.279022    1.690743
     35          1           0       -4.598088    1.488628    1.789313
     36          7           0        0.373612   -0.047222   -0.323749
     37          1           0       -0.037366   -0.473990   -1.144928
     38          6           0        1.838632    0.070311   -0.298172
     39          1           0        2.091048    0.927011    0.329425
     40          6           0        2.360473    0.358182   -1.697679
     41          6           0        2.493329   -1.209298    0.271706
     42          1           0        2.250677   -2.044750   -0.393873
     43          1           0        2.021388   -1.400642    1.243980
     44          8           0        3.332062    0.992077   -1.933906
     45          6           0        4.012914   -1.093652    0.429908
     46          1           0        4.462734   -0.918161   -0.550991
     47          1           0        4.251443   -0.217668    1.047649
     48          6           0        4.648858   -2.343561    1.058614
     49          1           0        4.327147   -2.450739    2.103431
     50          1           0        5.736897   -2.194512    1.087881
     51          6           0        4.338582   -3.652654    0.317629
     52          1           0        4.939205   -4.460251    0.770257
     53          1           0        3.287656   -3.927093    0.477507
     54          7           0        4.533902   -3.496448   -1.130533
     55          1           0        4.344747   -4.380188   -1.600827
     56          1           0        5.513957   -3.286159   -1.319975
     57          8           0        1.612738   -0.258299   -2.646822
     58          1           0        2.044263   -0.094405   -3.507430
     59          1           0       -2.280480    1.763762    1.725882
 ---------------------------------------------------------------------

 SCF Done:  E(RB3LYP) =  -1300.57302034     A.U. after    1 cycles

 Alpha  occ. eigenvalues --  -19.30901 -19.29768 -19.25838 -19.23815 -14.57577
 Alpha  occ. eigenvalues --  -14.49682 -14.46572 -14.38123 -10.46029 -10.43191
 Alpha  occ. eigenvalues --  -10.41846 -10.39279 -10.38497 -10.37153 -10.34441
 Alpha  occ. eigenvalues --  -10.34359 -10.33872 -10.32245 -10.29606 -10.28557
 Alpha  occ. eigenvalues --  -10.28191 -10.27965 -10.27854 -10.27802 -10.27655
 Alpha  occ. eigenvalues --  -10.27506 -10.25564 -10.25231  -1.22594  -1.21059
 Alpha  occ. eigenvalues --   -1.17832  -1.13192  -1.12438  -1.06093  -1.03826
 Alpha  occ. eigenvalues --   -0.95108  -0.94804  -0.94574  -0.91616  -0.89533
 Alpha  occ. eigenvalues --   -0.88854  -0.84186  -0.83955  -0.83534  -0.80510
 Alpha  occ. eigenvalues --   -0.78010  -0.77180  -0.75197  -0.73351  -0.73150
 Alpha  occ. eigenvalues --   -0.72553  -0.70709  -0.69836  -0.68798  -0.68303
 Alpha  occ. eigenvalues --   -0.64526  -0.63916  -0.63588  -0.62901  -0.62349
 Alpha  occ. eigenvalues --   -0.61159  -0.60630  -0.60039  -0.59012  -0.58280
 Alpha  occ. eigenvalues --   -0.57641  -0.57401  -0.56535  -0.56491  -0.55914
 Alpha  occ. eigenvalues --   -0.55536  -0.54766  -0.54352  -0.54239  -0.53833
 Alpha  occ. eigenvalues --   -0.52502  -0.51991  -0.51483  -0.51237  -0.51106
 Alpha  occ. eigenvalues --   -0.50862  -0.50454  -0.50169  -0.49849  -0.48796
 Alpha  occ. eigenvalues --   -0.48496  -0.48164  -0.47307  -0.45352  -0.45147
 Alpha  occ. eigenvalues --   -0.44443  -0.43599  -0.43275  -0.42908  -0.42626
 Alpha  occ. eigenvalues --   -0.41674  -0.40563  -0.40079  -0.39737  -0.39402
 Alpha  occ. eigenvalues --   -0.38815  -0.36450  -0.34065  -0.33672  -0.30452
 Alpha virt. eigenvalues --   -0.17162  -0.11859  -0.09744  -0.09340  -0.08566
 Alpha virt. eigenvalues --   -0.07119  -0.05645  -0.04085  -0.03528  -0.02454
 Alpha virt. eigenvalues --   -0.01937  -0.01746  -0.00481   0.00412   0.00672

 Mulliken charges:
               1
     1  N   -0.783405
     2  H    0.367982
     3  H    0.344985
     4  C   -0.044900
     5  H    0.208369
     6  C    0.620977
     7  C   -0.401104
     8  H    0.191909
     9  H    0.159309
    10  O   -0.378054
    11  C    0.177977
    12  C   -0.193554
    13  H    0.113859
    14  C   -0.174855
    15  H    0.135353
    16  C   -0.122879
    17  H    0.149134
    18  C   -0.123845
    19  H    0.156192
    20  C   -0.123315
    21  H    0.156636
    22  N   -0.581263
    23  C   -0.090256
    24  H    0.235618
    25  C    0.657858
    26  C   -0.311803
    27  H    0.190736
    28  H    0.195323
    29  O   -0.543304
    30  C   -0.309060
    31  H    0.197059
    32  H    0.201232
    33  C   -0.169004
    34  H    0.222453
    35  H    0.210212
    36  N   -0.621048
    37  H    0.366344
    38  C   -0.052238
    39  H    0.205027
    40  C    0.596203
    41  C   -0.273588
    42  H    0.171911
    43  H    0.155132
    44  O   -0.419763
    45  C   -0.254635
    46  H    0.173667
    47  H    0.139860
    48  C   -0.278714
    49  H    0.139153
    50  H    0.146686
    51  C   -0.139278
    52  H    0.134133
    53  H    0.134368
    54  N   -0.727491
    55  H    0.305945
    56  H    0.303174
    57  O   -0.591436
    58  H    0.431180
    59  H    0.412834
 Sum of Mulliken charges =   1.00000

 Dipole moment (field-independent basis, Debye):
    X=             -9.6052    Y=              1.0682    Z=              6.4322  Tot=             11.6093
 Quadrupole moment (field-independent basis, Debye-Ang):
   XX=           -104.2632   YY=           -140.6639   ZZ=           -109.0527
   XY=            -21.9192   XZ=            -25.3612   YZ=             14.0831

 Normal termination of Gaussian 16 at Thu Jun  2 03:15:07 2022.
