 Gaussian 16, Revision C.01,
 Gaussian 16:  ES64L-G16RevC.01  3-Jul-2019

 ----------------------------------------------------------------------
 # B3LYP/6-31G* empiricaldispersion=gd3 guess=read geom=check nosymm in
 tegral(ultrafinegrid)
 ----------------------------------------------------------------------

 ------------------------------------------------------
 Candidate Structure: Conf:669 Charge calc in gas phase
 ------------------------------------------------------
 Structure from the checkpoint file:  "conf-669.chk"
 Charge =  1 Multiplicity = 1

                          Input orientation:
 ---------------------------------------------------------------------
 Center     Atomic      Atomic             Coordinates (Angstroms)
 Number     Number       Type             X           Y           Z
 ---------------------------------------------------------------------
      1          7           0       -4.679190   -3.353721    0.862269
      2          1           0       -4.558660   -3.651723   -0.103231
      3          1           0       -5.647896   -3.070912    0.984992
      4          6           0       -3.751739   -2.309924    1.210305
      5          1           0       -3.985234   -1.942670    2.218553
      6          6           0       -3.766696   -1.117648    0.267292
      7          6           0       -2.282711   -2.863897    1.233954
      8          1           0       -2.175938   -3.517594    0.361182
      9          1           0       -1.557293   -2.053644    1.113659
     10          8           0       -4.150194   -1.045839   -0.860013
     11          6           0       -1.988335   -3.595823    2.520855
     12          6           0       -1.481047   -2.885837    3.618811
     13          1           0       -1.255637   -1.826139    3.518701
     14          6           0       -2.241402   -4.965382    2.647558
     15          1           0       -2.644291   -5.516864    1.803227
     16          6           0       -1.231130   -3.538565    4.827497
     17          1           0       -0.829374   -2.982431    5.669599
     18          6           0       -1.980946   -5.620065    3.852638
     19          1           0       -2.173368   -6.685489    3.939270
     20          6           0       -1.478584   -4.908853    4.944743
     21          1           0       -1.275582   -5.420178    5.881012
     22          7           0       -3.146868    0.166831    0.881922
     23          6           0       -2.083347    0.809317    0.007283
     24          1           0       -2.112939    0.312444   -0.964924
     25          6           0       -0.752094    0.561998    0.742681
     26          6           0       -2.500507    2.288957   -0.113173
     27          1           0       -2.053385    2.874834    0.697651
     28          1           0       -2.172881    2.718637   -1.062763
     29          8           0       -0.788848    0.123717    1.900296
     30          6           0       -4.028014    2.236698    0.030716
     31          1           0       -4.467418    3.204420    0.285154
     32          1           0       -4.493072    1.875331   -0.892094
     33          6           0       -4.227017    1.218533    1.150784
     34          1           0       -5.205290    0.735399    1.164234
     35          1           0       -4.016893    1.639056    2.137147
     36          7           0        0.356442    0.850994    0.058203
     37          1           0        0.280535    1.244568   -0.872247
     38          6           0        1.710160    0.663126    0.588624
     39          1           0        1.610014    0.385514    1.638507
     40          6           0        2.521366    1.953503    0.533373
     41          6           0        2.464359   -0.441778   -0.186543
     42          1           0        3.477688   -0.487794    0.227640
     43          1           0        2.562807   -0.121122   -1.232773
     44          8           0        3.517094    2.138756    1.184253
     45          6           0        1.805165   -1.826458   -0.120301
     46          1           0        0.779051   -1.769773   -0.514292
     47          1           0        2.353100   -2.479057   -0.812122
     48          6           0        1.801808   -2.467733    1.273646
     49          1           0        1.143246   -1.906757    1.952643
     50          1           0        2.808407   -2.428139    1.708005
     51          6           0        1.355502   -3.933782    1.241703
     52          1           0        0.335316   -3.990452    0.810861
     53          1           0        2.009473   -4.487190    0.555360
     54          7           0        1.482243   -4.536731    2.565739
     55          1           0        1.269483   -5.530976    2.519378
     56          1           0        0.794261   -4.132809    3.198074
     57          8           0        2.033780    2.827444   -0.383891
     58          1           0        2.643464    3.590492   -0.404015
     59          1           0       -2.623673   -0.067691    1.753075
 ---------------------------------------------------------------------

 SCF Done:  E(RB3LYP) =  -1300.56719860     A.U. after    2 cycles

 Alpha  occ. eigenvalues --  -19.33286 -19.30916 -19.27964 -19.24643 -14.59418
 Alpha  occ. eigenvalues --  -14.51549 -14.44981 -14.37328 -10.47759 -10.44984
 Alpha  occ. eigenvalues --  -10.43019 -10.40876 -10.39967 -10.37992 -10.35849
 Alpha  occ. eigenvalues --  -10.35330 -10.34665 -10.32199 -10.29801 -10.29529
 Alpha  occ. eigenvalues --  -10.28275 -10.28104 -10.28035 -10.28014 -10.27956
 Alpha  occ. eigenvalues --  -10.27789 -10.27714 -10.26086  -1.24814  -1.21504
 Alpha  occ. eigenvalues --   -1.20033  -1.14128  -1.12636  -1.08019  -1.03316
 Alpha  occ. eigenvalues --   -0.96432  -0.95091  -0.94473  -0.93259  -0.90546
 Alpha  occ. eigenvalues --   -0.89650  -0.85742  -0.84768  -0.83450  -0.80281
 Alpha  occ. eigenvalues --   -0.78970  -0.77548  -0.76790  -0.75304  -0.73946
 Alpha  occ. eigenvalues --   -0.73346  -0.71538  -0.69815  -0.69579  -0.68358
 Alpha  occ. eigenvalues --   -0.67149  -0.66727  -0.64921  -0.64225  -0.63065
 Alpha  occ. eigenvalues --   -0.62762  -0.61763  -0.60046  -0.59754  -0.59203
 Alpha  occ. eigenvalues --   -0.58728  -0.58069  -0.57697  -0.57235  -0.56507
 Alpha  occ. eigenvalues --   -0.55869  -0.55654  -0.55371  -0.54597  -0.54371
 Alpha  occ. eigenvalues --   -0.53410  -0.53346  -0.52720  -0.51871  -0.51369
 Alpha  occ. eigenvalues --   -0.51038  -0.50964  -0.50436  -0.50358  -0.49974
 Alpha  occ. eigenvalues --   -0.49673  -0.49137  -0.49034  -0.47005  -0.45723
 Alpha  occ. eigenvalues --   -0.44994  -0.44576  -0.43395  -0.43129  -0.42957
 Alpha  occ. eigenvalues --   -0.42732  -0.42079  -0.41740  -0.41276  -0.40974
 Alpha  occ. eigenvalues --   -0.37429  -0.37398  -0.34031  -0.33736  -0.29767
 Alpha virt. eigenvalues --   -0.19233  -0.13496  -0.10014  -0.09883  -0.09379
 Alpha virt. eigenvalues --   -0.08161  -0.07478  -0.06002  -0.04666  -0.04047
 Alpha virt. eigenvalues --   -0.03432  -0.02608  -0.01922  -0.01479  -0.00520

 Mulliken charges:
               1
     1  N   -0.674750
     2  H    0.329691
     3  H    0.329102
     4  C   -0.076946
     5  H    0.187385
     6  C    0.545797
     7  C   -0.398421
     8  H    0.180713
     9  H    0.172265
    10  O   -0.365983
    11  C    0.172358
    12  C   -0.220566
    13  H    0.151471
    14  C   -0.154886
    15  H    0.144366
    16  C   -0.139144
    17  H    0.155041
    18  C   -0.135554
    19  H    0.156638
    20  C   -0.123474
    21  H    0.158899
    22  N   -0.596479
    23  C   -0.088132
    24  H    0.226162
    25  C    0.649291
    26  C   -0.304081
    27  H    0.194303
    28  H    0.200999
    29  O   -0.529153
    30  C   -0.289500
    31  H    0.208654
    32  H    0.202144
    33  C   -0.170035
    34  H    0.215902
    35  H    0.217777
    36  N   -0.580933
    37  H    0.361197
    38  C   -0.084870
    39  H    0.230259
    40  C    0.601826
    41  C   -0.280392
    42  H    0.195313
    43  H    0.148893
    44  O   -0.424327
    45  C   -0.267281
    46  H    0.108845
    47  H    0.163011
    48  C   -0.270353
    49  H    0.137181
    50  H    0.166784
    51  C   -0.134072
    52  H    0.096907
    53  H    0.146473
    54  N   -0.727183
    55  H    0.302341
    56  H    0.313262
    57  O   -0.587679
    58  H    0.433456
    59  H    0.419487
 Sum of Mulliken charges =   1.00000

 Dipole moment (field-independent basis, Debye):
    X=            -13.2348    Y=              0.9317    Z=              1.3946  Tot=             13.3407
 Quadrupole moment (field-independent basis, Debye-Ang):
   XX=           -114.3902   YY=           -123.6199   ZZ=           -152.3144
   XY=              4.4702   XZ=            -22.8626   YZ=            -11.1627

 Normal termination of Gaussian 16 at Thu Jun  2 03:08:37 2022.
