 Gaussian 16, Revision C.01,
 Gaussian 16:  ES64L-G16RevC.01  3-Jul-2019

 ----------------------------------------------------------------------
 # B3LYP/6-31G* empiricaldispersion=gd3 guess=read geom=check nosymm in
 tegral(ultrafinegrid)
 ----------------------------------------------------------------------

 ------------------------------------------------------
 Candidate Structure: Conf:197 Charge calc in gas phase
 ------------------------------------------------------
 Structure from the checkpoint file:  "conf-197.chk"
 Charge =  1 Multiplicity = 1

                          Input orientation:
 ---------------------------------------------------------------------
 Center     Atomic      Atomic             Coordinates (Angstroms)
 Number     Number       Type             X           Y           Z
 ---------------------------------------------------------------------
      1          7           0       -2.519598   -2.960954    4.161193
      2          1           0       -1.627658   -2.934164    4.648531
      3          1           0       -2.648412   -3.890183    3.770161
      4          6           0       -2.609955   -1.956410    3.118506
      5          1           0       -1.868952   -2.084616    2.301138
      6          6           0       -2.258556   -0.623540    3.761066
      7          6           0       -4.027819   -1.985407    2.477757
      8          1           0       -3.983821   -1.565221    1.466948
      9          1           0       -4.266371   -3.047500    2.332644
     10          8           0       -1.931549   -0.447666    4.872080
     11          6           0       -5.134679   -1.289294    3.250306
     12          6           0       -5.172862   -1.263337    4.653205
     13          1           0       -4.412283   -1.789939    5.219951
     14          6           0       -6.158181   -0.650136    2.534670
     15          1           0       -6.160762   -0.690986    1.446621
     16          6           0       -6.190871   -0.572613    5.315986
     17          1           0       -6.204325   -0.555865    6.401944
     18          6           0       -7.180888    0.028857    3.198306
     19          1           0       -7.965553    0.516027    2.626628
     20          6           0       -7.192737    0.079085    4.594014
     21          1           0       -7.984318    0.610066    5.114316
     22          7           0       -2.219585    0.653504    2.894820
     23          6           0       -2.015482    0.594722    1.398116
     24          1           0       -2.454257   -0.318745    1.000967
     25          6           0       -0.488030    0.641108    1.200839
     26          6           0       -2.743912    1.847439    0.872455
     27          1           0       -2.072360    2.712047    0.919318
     28          1           0       -3.053297    1.716945   -0.167411
     29          8           0        0.213629    0.991320    2.154744
     30          6           0       -3.927864    2.013948    1.835349
     31          1           0       -4.324544    3.032318    1.837651
     32          1           0       -4.742658    1.334636    1.572928
     33          6           0       -3.365900    1.638708    3.207214
     34          1           0       -4.081577    1.146251    3.864386
     35          1           0       -2.911811    2.482489    3.728776
     36          7           0       -0.036020    0.344877   -0.022081
     37          1           0       -0.672461    0.039666   -0.748385
     38          6           0        1.391528    0.420332   -0.366517
     39          1           0        1.827324    1.231391    0.218340
     40          6           0        1.566589    0.772787   -1.835456
     41          6           0        2.114049   -0.908041   -0.027536
     42          1           0        1.608949   -1.719349   -0.567650
     43          1           0        1.952602   -1.075640    1.044617
     44          8           0        2.531264    1.336555   -2.284706
     45          6           0        3.618971   -0.920316   -0.334105
     46          1           0        3.998166   -1.905497   -0.034027
     47          1           0        3.781883   -0.841676   -1.416233
     48          6           0        4.422167    0.174706    0.377814
     49          1           0        4.191476    0.161430    1.454532
     50          1           0        4.121025    1.158849   -0.004236
     51          6           0        5.946494    0.030049    0.185119
     52          1           0        6.178700    0.074091   -0.886915
     53          1           0        6.439319    0.897342    0.640808
     54          7           0        6.575564   -1.172995    0.726893
     55          1           0        6.238047   -2.010953    0.259038
     56          1           0        6.361539   -1.276686    1.717411
     57          8           0        0.536386    0.311489   -2.593526
     58          1           0        0.738793    0.528687   -3.524135
     59          1           0       -1.311902    1.070877    3.206224
 ---------------------------------------------------------------------

 SCF Done:  E(RB3LYP) =  -1300.55007516     A.U. after    1 cycles

 Alpha  occ. eigenvalues --  -19.32289 -19.31513 -19.27476 -19.25285 -14.58782
 Alpha  occ. eigenvalues --  -14.51225 -14.45009 -14.37179 -10.47519 -10.44509
 Alpha  occ. eigenvalues --  -10.43580 -10.40657 -10.38638 -10.38420 -10.35963
 Alpha  occ. eigenvalues --  -10.34994 -10.33766 -10.33343 -10.31207 -10.29882
 Alpha  occ. eigenvalues --  -10.29875 -10.29475 -10.29215 -10.29131 -10.29089
 Alpha  occ. eigenvalues --  -10.27080 -10.26813 -10.25335  -1.25408  -1.22061
 Alpha  occ. eigenvalues --   -1.19687  -1.13399  -1.13210  -1.07620  -1.03442
 Alpha  occ. eigenvalues --   -0.96347  -0.95659  -0.94068  -0.92729  -0.90471
 Alpha  occ. eigenvalues --   -0.90141  -0.85324  -0.84911  -0.84784  -0.80560
 Alpha  occ. eigenvalues --   -0.79326  -0.78510  -0.75585  -0.74536  -0.74135
 Alpha  occ. eigenvalues --   -0.73489  -0.71161  -0.71030  -0.69922  -0.69673
 Alpha  occ. eigenvalues --   -0.66070  -0.65389  -0.64839  -0.63600  -0.63307
 Alpha  occ. eigenvalues --   -0.62316  -0.61122  -0.60398  -0.59784  -0.59219
 Alpha  occ. eigenvalues --   -0.58880  -0.58173  -0.57900  -0.57303  -0.56687
 Alpha  occ. eigenvalues --   -0.55799  -0.55671  -0.55480  -0.55268  -0.55016
 Alpha  occ. eigenvalues --   -0.53627  -0.53557  -0.52362  -0.52191  -0.51710
 Alpha  occ. eigenvalues --   -0.51190  -0.51052  -0.50941  -0.50239  -0.50062
 Alpha  occ. eigenvalues --   -0.49587  -0.49112  -0.48550  -0.46987  -0.46296
 Alpha  occ. eigenvalues --   -0.45126  -0.44489  -0.44360  -0.44064  -0.43742
 Alpha  occ. eigenvalues --   -0.42862  -0.41809  -0.41068  -0.40430  -0.39741
 Alpha  occ. eigenvalues --   -0.37988  -0.37286  -0.35560  -0.35091  -0.29086
 Alpha virt. eigenvalues --   -0.18095  -0.13212  -0.11334  -0.10844  -0.10533
 Alpha virt. eigenvalues --   -0.08516  -0.06367  -0.05305  -0.04992  -0.03787
 Alpha virt. eigenvalues --   -0.03253  -0.01829  -0.01073  -0.00834  -0.00151

 Mulliken charges:
               1
     1  N   -0.707431
     2  H    0.336086
     3  H    0.332319
     4  C   -0.077370
     5  H    0.160123
     6  C    0.597712
     7  C   -0.353623
     8  H    0.148687
     9  H    0.200121
    10  O   -0.342568
    11  C    0.120282
    12  C   -0.199417
    13  H    0.192269
    14  C   -0.201268
    15  H    0.134423
    16  C   -0.134013
    17  H    0.163064
    18  C   -0.129306
    19  H    0.157426
    20  C   -0.128074
    21  H    0.162167
    22  N   -0.609759
    23  C   -0.084798
    24  H    0.196255
    25  C    0.650003
    26  C   -0.305098
    27  H    0.195708
    28  H    0.194459
    29  O   -0.524134
    30  C   -0.301848
    31  H    0.204741
    32  H    0.187949
    33  C   -0.159918
    34  H    0.238715
    35  H    0.216817
    36  N   -0.617169
    37  H    0.364696
    38  C   -0.049948
    39  H    0.222489
    40  C    0.597130
    41  C   -0.275889
    42  H    0.147141
    43  H    0.162361
    44  O   -0.425516
    45  C   -0.268039
    46  H    0.136285
    47  H    0.160088
    48  C   -0.275252
    49  H    0.125644
    50  H    0.148880
    51  C   -0.147379
    52  H    0.152638
    53  H    0.154815
    54  N   -0.700272
    55  H    0.298450
    56  H    0.294416
    57  O   -0.592809
    58  H    0.435568
    59  H    0.420968
 Sum of Mulliken charges =   1.00000

 Dipole moment (field-independent basis, Debye):
    X=            -13.8355    Y=             -0.9519    Z=              6.7591  Tot=             15.4277
 Quadrupole moment (field-independent basis, Debye-Ang):
   XX=           -123.9153   YY=           -142.5653   ZZ=           -129.5257
   XY=            -12.5663   XZ=            -30.6230   YZ=             -1.1443

 Normal termination of Gaussian 16 at Thu Jun  2 03:00:13 2022.
