 Gaussian 16, Revision C.01,
 Gaussian 16:  ES64L-G16RevC.01  3-Jul-2019

 ----------------------------------------------------------------------
 # B3LYP/6-31G* empiricaldispersion=gd3 guess=read geom=check nosymm in
 tegral(ultrafinegrid)
 ----------------------------------------------------------------------

 ------------------------------------------------------
 Candidate Structure: Conf:308 Charge calc in gas phase
 ------------------------------------------------------
 Structure from the checkpoint file:  "conf-308.chk"
 Charge =  1 Multiplicity = 1

                          Input orientation:
 ---------------------------------------------------------------------
 Center     Atomic      Atomic             Coordinates (Angstroms)
 Number     Number       Type             X           Y           Z
 ---------------------------------------------------------------------
      1          7           0       -1.395680   -2.335868    2.948676
      2          1           0       -0.771093   -1.584602    2.674344
      3          1           0       -1.405243   -3.076673    2.254275
      4          6           0       -2.709857   -1.874910    3.363480
      5          1           0       -3.286485   -2.743377    3.696223
      6          6           0       -3.499916   -1.380728    2.143779
      7          6           0       -2.567609   -0.850014    4.508283
      8          1           0       -2.359488   -1.420132    5.420281
      9          1           0       -1.678137   -0.237550    4.323673
     10          8           0       -4.199814   -2.035875    1.430488
     11          6           0       -3.775332    0.048832    4.677964
     12          6           0       -3.609791    1.440631    4.739604
     13          1           0       -2.606910    1.861817    4.713287
     14          6           0       -5.075551   -0.477953    4.722007
     15          1           0       -5.228137   -1.554243    4.691096
     16          6           0       -4.716368    2.287796    4.843557
     17          1           0       -4.569771    3.362594    4.901010
     18          6           0       -6.183017    0.367390    4.819446
     19          1           0       -7.182252   -0.056498    4.856418
     20          6           0       -6.006694    1.752503    4.878077
     21          1           0       -6.868100    2.408653    4.959624
     22          7           0       -3.226968    0.068757    1.670819
     23          6           0       -2.374321    0.140246    0.414154
     24          1           0       -2.415072   -0.833227   -0.078332
     25          6           0       -0.947644    0.444332    0.909678
     26          6           0       -3.016851    1.253994   -0.456533
     27          1           0       -2.259271    1.917911   -0.879955
     28          1           0       -3.563754    0.794798   -1.284740
     29          8           0       -0.775014    0.773948    2.091882
     30          6           0       -3.986438    1.977711    0.495040
     31          1           0       -3.462820    2.731866    1.093379
     32          1           0       -4.803668    2.473457   -0.034143
     33          6           0       -4.493005    0.855751    1.392514
     34          1           0       -5.170439    0.176789    0.870062
     35          1           0       -4.927880    1.166100    2.341628
     36          7           0        0.017501    0.308230    0.000962
     37          1           0       -0.189373    0.008159   -0.949528
     38          6           0        1.447136    0.437428    0.294585
     39          1           0        1.653848    1.450955    0.655978
     40          6           0        2.155493    0.246544   -1.043448
     41          6           0        1.937160   -0.581825    1.350648
     42          1           0        1.475521   -0.309857    2.304944
     43          1           0        3.016469   -0.440917    1.468102
     44          8           0        1.589105   -0.085036   -2.064609
     45          6           0        1.622542   -2.041425    1.002997
     46          1           0        0.555721   -2.137449    0.749644
     47          1           0        2.170001   -2.339189    0.098074
     48          6           0        1.960174   -2.998324    2.151306
     49          1           0        1.438331   -2.672594    3.063628
     50          1           0        3.032319   -2.961091    2.376507
     51          6           0        1.574620   -4.449775    1.853437
     52          1           0        0.495796   -4.487862    1.588905
     53          1           0        2.116390   -4.792595    0.962792
     54          7           0        1.952285   -5.310996    2.970077
     55          1           0        1.805383   -6.289995    2.734444
     56          1           0        1.366463   -5.114910    3.780167
     57          8           0        3.469107    0.468289   -0.935673
     58          1           0        3.875648    0.315018   -1.810769
     59          1           0       -2.657021    0.559982    2.385910
 ---------------------------------------------------------------------

 SCF Done:  E(RB3LYP) =  -1300.57834539     A.U. after    1 cycles

 Alpha  occ. eigenvalues --  -19.31646 -19.31581 -19.27496 -19.26366 -14.58254
 Alpha  occ. eigenvalues --  -14.50741 -14.46036 -14.38508 -10.46598 -10.44425
 Alpha  occ. eigenvalues --  -10.44362 -10.40149 -10.37504 -10.37352 -10.36528
 Alpha  occ. eigenvalues --  -10.34341 -10.33566 -10.31616 -10.31564 -10.30421
 Alpha  occ. eigenvalues --  -10.30354 -10.30262 -10.30199 -10.29973 -10.29899
 Alpha  occ. eigenvalues --  -10.28990 -10.28792 -10.26771  -1.23334  -1.22807
 Alpha  occ. eigenvalues --   -1.19471  -1.14104  -1.13135  -1.07392  -1.03508
 Alpha  occ. eigenvalues --   -0.97126  -0.95584  -0.95012  -0.92725  -0.90348
 Alpha  occ. eigenvalues --   -0.90077  -0.86380  -0.85745  -0.84477  -0.80284
 Alpha  occ. eigenvalues --   -0.79476  -0.77987  -0.76462  -0.75071  -0.73993
 Alpha  occ. eigenvalues --   -0.73588  -0.71766  -0.70734  -0.69939  -0.68983
 Alpha  occ. eigenvalues --   -0.67557  -0.64977  -0.64708  -0.63822  -0.62582
 Alpha  occ. eigenvalues --   -0.61699  -0.61393  -0.60944  -0.60237  -0.59856
 Alpha  occ. eigenvalues --   -0.59510  -0.58116  -0.57833  -0.57575  -0.56784
 Alpha  occ. eigenvalues --   -0.56608  -0.56135  -0.55784  -0.54756  -0.54511
 Alpha  occ. eigenvalues --   -0.53922  -0.53129  -0.52968  -0.52644  -0.51999
 Alpha  occ. eigenvalues --   -0.51717  -0.51476  -0.51202  -0.50612  -0.49795
 Alpha  occ. eigenvalues --   -0.49295  -0.49047  -0.48691  -0.47294  -0.46542
 Alpha  occ. eigenvalues --   -0.45535  -0.45397  -0.44942  -0.44353  -0.43985
 Alpha  occ. eigenvalues --   -0.43656  -0.42910  -0.41914  -0.41309  -0.40074
 Alpha  occ. eigenvalues --   -0.39796  -0.37259  -0.36503  -0.36008  -0.30714
 Alpha virt. eigenvalues --   -0.18402  -0.13470  -0.11996  -0.11449  -0.10932
 Alpha virt. eigenvalues --   -0.07827  -0.05331  -0.04298  -0.03779  -0.03345
 Alpha virt. eigenvalues --   -0.02984  -0.01776  -0.01094  -0.00059   0.00257

 Mulliken charges:
               1
     1  N   -0.740769
     2  H    0.347030
     3  H    0.338765
     4  C   -0.029721
     5  H    0.204435
     6  C    0.557109
     7  C   -0.386260
     8  H    0.210779
     9  H    0.184808
    10  O   -0.380723
    11  C    0.117727
    12  C   -0.218193
    13  H    0.158838
    14  C   -0.191081
    15  H    0.152619
    16  C   -0.132317
    17  H    0.162643
    18  C   -0.129324
    19  H    0.166380
    20  C   -0.135520
    21  H    0.165679
    22  N   -0.595572
    23  C   -0.084114
    24  H    0.220935
    25  C    0.629823
    26  C   -0.305281
    27  H    0.199984
    28  H    0.197016
    29  O   -0.540050
    30  C   -0.306968
    31  H    0.186959
    32  H    0.206756
    33  C   -0.169739
    34  H    0.218629
    35  H    0.232680
    36  N   -0.613024
    37  H    0.372720
    38  C   -0.031750
    39  H    0.212181
    40  C    0.595716
    41  C   -0.296066
    42  H    0.177883
    43  H    0.190452
    44  O   -0.464216
    45  C   -0.280101
    46  H    0.099208
    47  H    0.158755
    48  C   -0.258344
    49  H    0.137028
    50  H    0.170150
    51  C   -0.130012
    52  H    0.087409
    53  H    0.152413
    54  N   -0.710418
    55  H    0.309233
    56  H    0.299260
    57  O   -0.551146
    58  H    0.438560
    59  H    0.420145
 Sum of Mulliken charges =   1.00000

 Dipole moment (field-independent basis, Debye):
    X=            -11.0398    Y=              0.8160    Z=              6.3955  Tot=             12.7846
 Quadrupole moment (field-independent basis, Debye-Ang):
   XX=            -95.9472   YY=           -141.7262   ZZ=           -138.2275
   XY=             -8.8471   XZ=            -40.2050   YZ=             -2.7411

 Normal termination of Gaussian 16 at Thu Jun  2 03:00:19 2022.
