 Gaussian 16, Revision C.01,
 Gaussian 16:  ES64L-G16RevC.01  3-Jul-2019

 ----------------------------------------------------------------------
 # B3LYP/6-31G* empiricaldispersion=gd3 guess=read geom=check nosymm in
 tegral(ultrafinegrid)
 ----------------------------------------------------------------------

 ------------------------------------------------------
 Candidate Structure: Conf:549 Charge calc in gas phase
 ------------------------------------------------------
 Structure from the checkpoint file:  "conf-549.chk"
 Charge =  1 Multiplicity = 1

                          Input orientation:
 ---------------------------------------------------------------------
 Center     Atomic      Atomic             Coordinates (Angstroms)
 Number     Number       Type             X           Y           Z
 ---------------------------------------------------------------------
      1          7           0       -3.216557    3.832289    1.205135
      2          1           0       -2.329022    3.692395    1.683098
      3          1           0       -3.454101    4.821874    1.249357
      4          6           0       -4.264770    3.028620    1.834220
      5          1           0       -4.120013    2.872316    2.910347
      6          6           0       -4.281965    1.643676    1.211690
      7          6           0       -5.674197    3.661789    1.621735
      8          1           0       -5.868478    3.746506    0.544966
      9          1           0       -6.413811    2.968731    2.035783
     10          8           0       -4.852094    0.661963    1.576343
     11          6           0       -5.769388    5.021113    2.276385
     12          6           0       -5.665609    6.192294    1.514307
     13          1           0       -5.571618    6.125261    0.432013
     14          6           0       -5.916719    5.125061    3.666693
     15          1           0       -6.008325    4.223039    4.268202
     16          6           0       -5.708198    7.446255    2.129469
     17          1           0       -5.635452    8.346386    1.526088
     18          6           0       -5.961190    6.375240    4.281248
     19          1           0       -6.085420    6.443139    5.358062
     20          6           0       -5.854472    7.538830    3.513549
     21          1           0       -5.892586    8.512245    3.993386
     22          7           0       -3.529321    1.602516   -0.124643
     23          6           0       -2.607531    0.424317   -0.251696
     24          1           0       -3.204809   -0.452939    0.022475
     25          6           0       -1.473330    0.620006    0.755354
     26          6           0       -2.239991    0.424749   -1.746581
     27          1           0       -1.334761    1.021285   -1.896790
     28          1           0       -2.038920   -0.590350   -2.098899
     29          8           0       -1.596599    1.454031    1.652278
     30          6           0       -3.464817    1.062798   -2.464831
     31          1           0       -3.149291    1.908312   -3.080519
     32          1           0       -3.976462    0.353942   -3.119541
     33          6           0       -4.415669    1.526739   -1.341811
     34          1           0       -5.194017    0.793423   -1.117034
     35          1           0       -4.873625    2.503931   -1.505048
     36          7           0       -0.389460   -0.169393    0.594823
     37          1           0       -0.317505   -0.692490   -0.269939
     38          6           0        0.883418    0.220967    1.194655
     39          1           0        0.689010    0.515449    2.230133
     40          6           0        1.395148    1.462633    0.448296
     41          6           0        1.895111   -0.936697    1.166731
     42          1           0        2.848849   -0.551355    1.540723
     43          1           0        2.072151   -1.236869    0.122953
     44          8           0        0.852426    1.959058   -0.516559
     45          6           0        1.451858   -2.145129    1.998966
     46          1           0        1.275629   -1.822185    3.035315
     47          1           0        0.488634   -2.516657    1.624448
     48          6           0        2.482562   -3.279480    1.984923
     49          1           0        3.445733   -2.900084    2.355030
     50          1           0        2.655034   -3.605318    0.947858
     51          6           0        2.064500   -4.497301    2.833609
     52          1           0        2.887991   -5.221112    2.840357
     53          1           0        1.925074   -4.181093    3.875910
     54          7           0        0.854188   -5.207592    2.420771
     55          1           0        0.935198   -5.520411    1.454590
     56          1           0        0.037820   -4.602231    2.471192
     57          8           0        2.524245    1.927463    1.002602
     58          1           0        2.814715    2.705288    0.488303
     59          1           0       -3.015000    2.519708   -0.098229
 ---------------------------------------------------------------------

 SCF Done:  E(RB3LYP) =  -1300.57883234     A.U. after    1 cycles

 Alpha  occ. eigenvalues --  -19.31151 -19.30905 -19.26460 -19.25572 -14.57490
 Alpha  occ. eigenvalues --  -14.49794 -14.46059 -14.37915 -10.46213 -10.43540
 Alpha  occ. eigenvalues --  -10.43452 -10.39294 -10.38424 -10.36910 -10.35625
 Alpha  occ. eigenvalues --  -10.33948 -10.33667 -10.31992 -10.29875 -10.29802
 Alpha  occ. eigenvalues --  -10.28686 -10.28422 -10.28164 -10.28087 -10.27895
 Alpha  occ. eigenvalues --  -10.27715 -10.27415 -10.25932  -1.22918  -1.21977
 Alpha  occ. eigenvalues --   -1.18456  -1.13358  -1.13028  -1.06599  -1.03587
 Alpha  occ. eigenvalues --   -0.95156  -0.94762  -0.94439  -0.92011  -0.89826
 Alpha  occ. eigenvalues --   -0.89321  -0.85042  -0.84588  -0.83714  -0.80534
 Alpha  occ. eigenvalues --   -0.78368  -0.77266  -0.75163  -0.74563  -0.73190
 Alpha  occ. eigenvalues --   -0.71833  -0.71498  -0.69992  -0.68941  -0.67879
 Alpha  occ. eigenvalues --   -0.66298  -0.64379  -0.63850  -0.62889  -0.61917
 Alpha  occ. eigenvalues --   -0.61466  -0.60782  -0.60467  -0.60197  -0.59237
 Alpha  occ. eigenvalues --   -0.58634  -0.57800  -0.56921  -0.56354  -0.56172
 Alpha  occ. eigenvalues --   -0.55588  -0.55412  -0.54842  -0.54442  -0.53676
 Alpha  occ. eigenvalues --   -0.53409  -0.52282  -0.51348  -0.51287  -0.51212
 Alpha  occ. eigenvalues --   -0.50708  -0.50458  -0.50176  -0.49849  -0.49672
 Alpha  occ. eigenvalues --   -0.48532  -0.48282  -0.47816  -0.46850  -0.45243
 Alpha  occ. eigenvalues --   -0.44486  -0.44217  -0.43814  -0.43385  -0.43112
 Alpha  occ. eigenvalues --   -0.42904  -0.41683  -0.40844  -0.40566  -0.39832
 Alpha  occ. eigenvalues --   -0.39230  -0.38483  -0.34368  -0.33979  -0.29793
 Alpha virt. eigenvalues --   -0.17489  -0.12511  -0.10349  -0.09782  -0.09663
 Alpha virt. eigenvalues --   -0.07053  -0.05416  -0.04162  -0.02995  -0.02355
 Alpha virt. eigenvalues --   -0.01958  -0.01630  -0.00632   0.00276   0.00511

 Mulliken charges:
               1
     1  N   -0.794486
     2  H    0.364800
     3  H    0.350090
     4  C   -0.040107
     5  H    0.210220
     6  C    0.612300
     7  C   -0.388674
     8  H    0.155741
     9  H    0.199198
    10  O   -0.390167
    11  C    0.158507
    12  C   -0.199978
    13  H    0.132638
    14  C   -0.178542
    15  H    0.141315
    16  C   -0.125073
    17  H    0.155680
    18  C   -0.125434
    19  H    0.158285
    20  C   -0.124245
    21  H    0.159199
    22  N   -0.579693
    23  C   -0.089043
    24  H    0.234493
    25  C    0.662057
    26  C   -0.329070
    27  H    0.215485
    28  H    0.188507
    29  O   -0.533255
    30  C   -0.308337
    31  H    0.198287
    32  H    0.200892
    33  C   -0.167934
    34  H    0.218883
    35  H    0.211489
    36  N   -0.587284
    37  H    0.348479
    38  C   -0.067309
    39  H    0.217199
    40  C    0.602741
    41  C   -0.298510
    42  H    0.191475
    43  H    0.145055
    44  O   -0.474448
    45  C   -0.257275
    46  H    0.147889
    47  H    0.122331
    48  C   -0.265344
    49  H    0.142482
    50  H    0.128936
    51  C   -0.147555
    52  H    0.159574
    53  H    0.148627
    54  N   -0.699425
    55  H    0.294718
    56  H    0.293013
    57  O   -0.549762
    58  H    0.431618
    59  H    0.418746
 Sum of Mulliken charges =   1.00000

 Dipole moment (field-independent basis, Debye):
    X=            -11.5585    Y=             10.1211    Z=             -0.1346  Tot=             15.3640
 Quadrupole moment (field-independent basis, Debye-Ang):
   XX=            -93.4218   YY=           -113.3072   ZZ=           -145.7613
   XY=            -46.8886   XZ=             -0.5496   YZ=             25.0606

 Normal termination of Gaussian 16 at Thu Jun  2 03:00:12 2022.
