 Gaussian 16, Revision C.01,
 Gaussian 16:  ES64L-G16RevC.01  3-Jul-2019

 ----------------------------------------------------------------------
 # B3LYP/6-31G* empiricaldispersion=gd3 guess=read geom=check nosymm in
 tegral(ultrafinegrid)
 ----------------------------------------------------------------------

 ------------------------------------------------------
 Candidate Structure: Conf:495 Charge calc in gas phase
 ------------------------------------------------------
 Structure from the checkpoint file:  "conf-495.chk"
 Charge =  1 Multiplicity = 1

                          Input orientation:
 ---------------------------------------------------------------------
 Center     Atomic      Atomic             Coordinates (Angstroms)
 Number     Number       Type             X           Y           Z
 ---------------------------------------------------------------------
      1          7           0       -1.701470    3.567554   -3.748187
      2          1           0       -1.593050    3.263613   -4.714496
      3          1           0       -0.879257    3.255188   -3.233309
      4          6           0       -2.914517    3.010650   -3.175911
      5          1           0       -3.018972    3.383535   -2.154034
      6          6           0       -2.854063    1.479227   -3.167428
      7          6           0       -4.163737    3.451859   -3.970879
      8          1           0       -4.141116    4.546284   -3.991614
      9          1           0       -4.065989    3.097792   -5.002856
     10          8           0       -2.827874    0.759107   -4.116487
     11          6           0       -5.434747    2.927397   -3.341909
     12          6           0       -6.133206    1.854330   -3.911944
     13          1           0       -5.794280    1.436936   -4.856692
     14          6           0       -5.888320    3.457460   -2.123315
     15          1           0       -5.371550    4.308524   -1.683688
     16          6           0       -7.254156    1.314838   -3.274209
     17          1           0       -7.789341    0.488246   -3.732697
     18          6           0       -7.004347    2.917739   -1.482122
     19          1           0       -7.351056    3.346729   -0.546057
     20          6           0       -7.686815    1.839438   -2.054385
     21          1           0       -8.560081    1.423449   -1.560500
     22          7           0       -2.785732    0.727634   -1.789848
     23          6           0       -1.960870    1.346124   -0.654774
     24          1           0       -2.083768    2.427627   -0.708197
     25          6           0       -0.516066    1.016895   -1.046973
     26          6           0       -2.641257    0.807105    0.602866
     27          1           0       -2.367864   -0.239475    0.787258
     28          1           0       -2.377058    1.393600    1.486200
     29          8           0       -0.054579    1.570500   -2.039993
     30          6           0       -4.130109    0.892649    0.230240
     31          1           0       -4.769053    0.290139    0.879885
     32          1           0       -4.482061    1.928239    0.279317
     33          6           0       -4.176364    0.397051   -1.218396
     34          1           0       -4.939692    0.878299   -1.826570
     35          1           0       -4.288362   -0.685651   -1.294987
     36          7           0        0.108192    0.011153   -0.386438
     37          1           0       -0.399117   -0.450565    0.356094
     38          6           0        1.035369   -0.832991   -1.131989
     39          1           0        1.729535   -0.181455   -1.669914
     40          6           0        0.218712   -1.592835   -2.193255
     41          6           0        1.825386   -1.781092   -0.212065
     42          1           0        2.390962   -1.157100    0.487036
     43          1           0        2.555006   -2.309067   -0.834661
     44          8           0       -0.991027   -1.510468   -2.338636
     45          6           0        0.963379   -2.807181    0.541534
     46          1           0        0.247507   -2.296308    1.205655
     47          1           0        0.363286   -3.377229   -0.181139
     48          6           0        1.791097   -3.785625    1.392136
     49          1           0        2.530405   -4.288843    0.752568
     50          1           0        1.124528   -4.571859    1.771275
     51          6           0        2.508395   -3.133984    2.590856
     52          1           0        3.222202   -2.378162    2.240052
     53          1           0        1.768116   -2.596415    3.200809
     54          7           0        3.236691   -4.043816    3.469391
     55          1           0        3.969967   -4.526172    2.952270
     56          1           0        2.614083   -4.766116    3.828317
     57          8           0        0.995085   -2.371366   -2.943880
     58          1           0        0.437430   -2.820795   -3.609079
     59          1           0       -2.312854   -0.160773   -2.046531
 ---------------------------------------------------------------------

 SCF Done:  E(RB3LYP) =  -1300.56679645     A.U. after    2 cycles

 Alpha  occ. eigenvalues --  -19.33103 -19.30977 -19.28361 -19.26726 -14.57976
 Alpha  occ. eigenvalues --  -14.50385 -14.43418 -14.38341 -10.46034 -10.45966
 Alpha  occ. eigenvalues --  -10.43998 -10.39915 -10.37859 -10.36947 -10.36374
 Alpha  occ. eigenvalues --  -10.34844 -10.33822 -10.30736 -10.30559 -10.30533
 Alpha  occ. eigenvalues --  -10.29731 -10.29647 -10.29534 -10.29404 -10.29338
 Alpha  occ. eigenvalues --  -10.29258 -10.28737 -10.27269  -1.24464  -1.22701
 Alpha  occ. eigenvalues --   -1.18946  -1.15408  -1.12552  -1.07289  -1.01642
 Alpha  occ. eigenvalues --   -0.96200  -0.95491  -0.95202  -0.92748  -0.90417
 Alpha  occ. eigenvalues --   -0.89318  -0.86373  -0.84876  -0.83625  -0.79975
 Alpha  occ. eigenvalues --   -0.79381  -0.78598  -0.75837  -0.75340  -0.73649
 Alpha  occ. eigenvalues --   -0.72230  -0.71762  -0.70964  -0.69929  -0.68606
 Alpha  occ. eigenvalues --   -0.67501  -0.66347  -0.64233  -0.63267  -0.62638
 Alpha  occ. eigenvalues --   -0.61821  -0.61120  -0.60577  -0.60303  -0.59558
 Alpha  occ. eigenvalues --   -0.59036  -0.58567  -0.57710  -0.57476  -0.56504
 Alpha  occ. eigenvalues --   -0.56331  -0.55714  -0.55398  -0.54821  -0.54187
 Alpha  occ. eigenvalues --   -0.53285  -0.53225  -0.52980  -0.52279  -0.51774
 Alpha  occ. eigenvalues --   -0.51738  -0.50786  -0.50595  -0.49987  -0.49778
 Alpha  occ. eigenvalues --   -0.49512  -0.49079  -0.48017  -0.47658  -0.45994
 Alpha  occ. eigenvalues --   -0.45792  -0.45533  -0.45104  -0.44511  -0.44271
 Alpha  occ. eigenvalues --   -0.43244  -0.43183  -0.42234  -0.41546  -0.40907
 Alpha  occ. eigenvalues --   -0.39756  -0.35809  -0.35622  -0.35122  -0.30389
 Alpha virt. eigenvalues --   -0.17411  -0.14193  -0.12821  -0.11218  -0.10790
 Alpha virt. eigenvalues --   -0.07397  -0.06186  -0.04751  -0.04251  -0.03665
 Alpha virt. eigenvalues --   -0.02277  -0.01745  -0.00833  -0.00026   0.00270

 Mulliken charges:
               1
     1  N   -0.696415
     2  H    0.326648
     3  H    0.349526
     4  C   -0.053649
     5  H    0.154666
     6  C    0.579235
     7  C   -0.352835
     8  H    0.200241
     9  H    0.178103
    10  O   -0.374935
    11  C    0.134737
    12  C   -0.197838
    13  H    0.156934
    14  C   -0.199490
    15  H    0.144891
    16  C   -0.132181
    17  H    0.160569
    18  C   -0.135877
    19  H    0.156255
    20  C   -0.136388
    21  H    0.159570
    22  N   -0.629606
    23  C   -0.066349
    24  H    0.217218
    25  C    0.606197
    26  C   -0.313486
    27  H    0.164601
    28  H    0.208542
    29  O   -0.498690
    30  C   -0.300417
    31  H    0.201490
    32  H    0.186422
    33  C   -0.171989
    34  H    0.240898
    35  H    0.210386
    36  N   -0.584256
    37  H    0.353742
    38  C   -0.076450
    39  H    0.232202
    40  C    0.626814
    41  C   -0.289239
    42  H    0.183898
    43  H    0.188532
    44  O   -0.501273
    45  C   -0.294778
    46  H    0.120672
    47  H    0.149691
    48  C   -0.268790
    49  H    0.142705
    50  H    0.142649
    51  C   -0.142202
    52  H    0.147907
    53  H    0.138450
    54  N   -0.697173
    55  H    0.302385
    56  H    0.300577
    57  O   -0.536876
    58  H    0.439099
    59  H    0.444729
 Sum of Mulliken charges =   1.00000

 Dipole moment (field-independent basis, Debye):
    X=            -11.9643    Y=             -0.7339    Z=             -5.2573  Tot=             13.0890
 Quadrupole moment (field-independent basis, Debye-Ang):
   XX=            -97.8437   YY=           -135.6993   ZZ=           -147.1511
   XY=            -24.2768   XZ=              9.8464   YZ=             -0.7693

 Normal termination of Gaussian 16 at Thu Jun  2 03:00:25 2022.
