 Gaussian 16, Revision C.01,
 Gaussian 16:  ES64L-G16RevC.01  3-Jul-2019

 -------------------------------------------------------------------
 # B3LYP/6-31G* guess=read geom=check nosymm integral(ultrafinegrid)
 -------------------------------------------------------------------

 ------------------------------------------------------
 Candidate Structure: Conf:204 Charge calc in gas phase
 ------------------------------------------------------
 Structure from the checkpoint file:  "conf-204.chk"
 Charge =  1 Multiplicity = 1

                          Input orientation:
 ---------------------------------------------------------------------
 Center     Atomic      Atomic             Coordinates (Angstroms)
 Number     Number       Type             X           Y           Z
 ---------------------------------------------------------------------
      1          7           0       -1.351752   -3.539589    2.755959
      2          1           0       -2.242620   -3.914454    3.089698
      3          1           0       -1.261512   -3.723370    1.718379
      4          1           0       -0.584602   -3.957476    3.310753
      5          6           0       -1.262777   -2.038263    2.836653
      6          1           0       -2.081058   -1.686130    3.468408
      7          6           0       -1.417807   -1.586397    1.359491
      8          6           0        0.119919   -1.629353    3.430340
      9          1           0        0.868805   -1.679589    2.633458
     10          1           0        0.046829   -0.570660    3.706831
     11          8           0       -1.387714   -2.466750    0.494778
     12          6           0        0.515024   -2.467559    4.608632
     13          6           0        1.555036   -3.377244    4.642032
     14          1           0        2.285110   -3.613762    3.878791
     15          6           0       -0.100127   -2.498923    5.917278
     16          6           0        0.621838   -3.446526    6.690930
     17          6           0       -1.176806   -1.814670    6.511794
     18          1           0       -1.736017   -1.062565    5.959670
     19          7           0        1.619966   -3.962493    5.883633
     20          1           0        2.322679   -4.625588    6.175732
     21          6           0       -0.775128   -3.044674    8.576932
     22          1           0       -1.053843   -3.238359    9.608228
     23          6           0        0.295712   -3.732587    8.020916
     24          1           0        0.859303   -4.459093    8.599134
     25          6           0       -1.503053   -2.093324    7.831875
     26          1           0       -2.326766   -1.567205    8.304826
     27          7           0       -1.601631   -0.268519    1.166546
     28          1           0       -1.540401    0.297989    2.004958
     29          6           0       -1.191047    0.451932   -0.056896
     30          1           0       -1.568243    1.471124    0.077474
     31          6           0        0.368253    0.477468   -0.042008
     32          6           0       -1.813978   -0.126215   -1.359567
     33          1           0       -1.353298   -1.104075   -1.529577
     34          8           0        1.006589   -0.444741    0.477699
     35          6           0       -1.496164    0.745545   -2.600012
     36          1           0       -0.410703    0.806623   -2.735166
     37          1           0       -1.874345    0.194146   -3.470308
     38          6           0       -3.328515   -0.337716   -1.196405
     39          1           0       -3.840387    0.576760   -0.875473
     40          1           0       -3.766276   -0.644670   -2.152641
     41          1           0       -3.548093   -1.122047   -0.467266
     42          6           0       -2.092474    2.160256   -2.622435
     43          1           0       -1.836173    2.659249   -3.562584
     44          1           0       -1.711912    2.800067   -1.816828
     45          1           0       -3.184938    2.145685   -2.547034
     46          7           0        0.925009    1.561567   -0.597691
     47          1           0        0.383110    2.359119   -0.935611
     48          6           0        2.355522    1.856660   -0.619917
     49          1           0        2.793481    1.568009    0.341455
     50          6           0        2.444393    3.406989   -0.797156
     51          6           0        3.044540    1.039568   -1.755140
     52          1           0        2.583873    0.047777   -1.716002
     53          1           0        2.761449    1.474185   -2.723527
     54          8           0        3.564920    3.939146   -0.483877
     55          6           0        4.580480    0.835752   -1.677090
     56          1           0        4.809887   -0.202821   -1.942329
     57          1           0        4.930245    0.963026   -0.644251
     58          6           0        5.442011    1.711826   -2.601861
     59          1           0        6.483615    1.366381   -2.556469
     60          1           0        5.102878    1.612695   -3.641445
     61          7           0        5.355525    3.111129   -2.184220
     62          1           0        4.823533    3.282682   -1.298812
     63          7           0        5.866567    4.115943   -4.230959
     64          1           0        5.862763    4.936379   -4.819091
     65          1           0        6.584903    3.433212   -4.422884
     66          7           0        4.724885    5.280660   -2.547987
     67          1           0        4.117834    5.172416   -1.711722
     68          1           0        4.765362    6.149517   -3.058278
     69          6           0        5.323980    4.171384   -2.989763
     70          8           0        1.440661    3.983283   -1.243282
 ---------------------------------------------------------------------

 SCF Done:  E(RB3LYP) =  -1582.14657021     A.U. after    1 cycles

 Alpha  occ. eigenvalues --  -19.24891 -19.19050 -19.15535 -19.14842 -14.57391
 Alpha  occ. eigenvalues --  -14.48299 -14.47933 -14.47346 -14.44745 -14.44027
 Alpha  occ. eigenvalues --  -14.42289 -10.42044 -10.41803 -10.38618 -10.36160
 Alpha  occ. eigenvalues --  -10.33080 -10.33042 -10.32577 -10.31966 -10.31739
 Alpha  occ. eigenvalues --  -10.31259 -10.29580 -10.28557 -10.28525 -10.28254
 Alpha  occ. eigenvalues --  -10.28087 -10.27488 -10.27253 -10.27109 -10.26951
 Alpha  occ. eigenvalues --  -10.25887 -10.25084 -10.24613 -10.23889  -1.17300
 Alpha  occ. eigenvalues --   -1.11756  -1.10820  -1.10643  -1.08438  -1.08245
 Alpha  occ. eigenvalues --   -1.04322  -1.00820  -0.99654  -0.98703  -0.98367
 Alpha  occ. eigenvalues --   -0.93593  -0.92282  -0.89297  -0.87186  -0.86715
 Alpha  occ. eigenvalues --   -0.83111  -0.82672  -0.81888  -0.80424  -0.78666
 Alpha  occ. eigenvalues --   -0.77671  -0.74641  -0.72536  -0.72125  -0.71905
 Alpha  occ. eigenvalues --   -0.71664  -0.70978  -0.69191  -0.68923  -0.68409
 Alpha  occ. eigenvalues --   -0.67094  -0.66804  -0.64823  -0.64619  -0.63934
 Alpha  occ. eigenvalues --   -0.63373  -0.63011  -0.60871  -0.60123  -0.59427
 Alpha  occ. eigenvalues --   -0.58931  -0.58328  -0.57724  -0.56605  -0.56171
 Alpha  occ. eigenvalues --   -0.55433  -0.55010  -0.54305  -0.53923  -0.53321
 Alpha  occ. eigenvalues --   -0.52954  -0.52583  -0.52135  -0.52049  -0.51043
 Alpha  occ. eigenvalues --   -0.50860  -0.50660  -0.50508  -0.49928  -0.49523
 Alpha  occ. eigenvalues --   -0.48749  -0.47989  -0.47736  -0.47300  -0.46985
 Alpha  occ. eigenvalues --   -0.46239  -0.45436  -0.45029  -0.44957  -0.44680
 Alpha  occ. eigenvalues --   -0.43618  -0.43164  -0.43044  -0.42878  -0.42095
 Alpha  occ. eigenvalues --   -0.41552  -0.40733  -0.40664  -0.39860  -0.39334
 Alpha  occ. eigenvalues --   -0.38460  -0.37898  -0.37881  -0.37168  -0.34613
 Alpha  occ. eigenvalues --   -0.33167  -0.32537  -0.32046  -0.30714  -0.30680
 Alpha  occ. eigenvalues --   -0.29966  -0.29132
 Alpha virt. eigenvalues --   -0.11365  -0.10270  -0.08614  -0.07008  -0.06629
 Alpha virt. eigenvalues --   -0.05590  -0.04961  -0.03512  -0.03328  -0.02202
 Alpha virt. eigenvalues --   -0.01240  -0.01081   0.00132   0.00446   0.00518

 Mulliken charges:
               1
     1  N   -0.748593
     2  H    0.410200
     3  H    0.425791
     4  H    0.393071
     5  C   -0.127513
     6  H    0.206609
     7  C    0.683709
     8  C   -0.383774
     9  H    0.229611
    10  H    0.186923
    11  O   -0.533574
    12  C   -0.014151
    13  C   -0.001248
    14  H    0.181952
    15  C    0.097707
    16  C    0.311192
    17  C   -0.218858
    18  H    0.120106
    19  N   -0.676767
    20  H    0.349392
    21  C   -0.147182
    22  H    0.155287
    23  C   -0.154495
    24  H    0.151023
    25  C   -0.133463
    26  H    0.148669
    27  N   -0.587152
    28  H    0.345562
    29  C   -0.084562
    30  H    0.165030
    31  C    0.624753
    32  C   -0.082727
    33  H    0.171001
    34  O   -0.558986
    35  C   -0.280998
    36  H    0.150286
    37  H    0.148859
    38  C   -0.453571
    39  H    0.147899
    40  H    0.160214
    41  H    0.146420
    42  C   -0.464360
    43  H    0.165157
    44  H    0.151978
    45  H    0.155341
    46  N   -0.615624
    47  H    0.372540
    48  C   -0.045703
    49  H    0.161402
    50  C    0.594129
    51  C   -0.274209
    52  H    0.170548
    53  H    0.146303
    54  O   -0.638331
    55  C   -0.305844
    56  H    0.158912
    57  H    0.167432
    58  C   -0.144470
    59  H    0.162757
    60  H    0.162957
    61  N   -0.613038
    62  H    0.409874
    63  N   -0.755272
    64  H    0.363788
    65  H    0.370551
    66  N   -0.774341
    67  H    0.419571
    68  H    0.350951
    69  C    0.772758
    70  O   -0.549407
 Sum of Mulliken charges =   1.00000

 Dipole moment (field-independent basis, Debye):
    X=              6.9282    Y=             -6.4559    Z=              5.5239  Tot=             10.9632
 Quadrupole moment (field-independent basis, Debye-Ang):
   XX=           -107.7347   YY=           -124.1624   ZZ=            -84.7419
   XY=             40.4074   XZ=            -60.3776   YZ=            -92.5819

 Normal termination of Gaussian 16 at Thu May 26 00:18:15 2022.
