 Gaussian 16, Revision C.01,
 Gaussian 16:  ES64L-G16RevC.01  3-Jul-2019

 -------------------------------------------------------------------
 # B3LYP/6-31G* guess=read geom=check nosymm integral(ultrafinegrid)
 -------------------------------------------------------------------

 ------------------------------------------------------
 Candidate Structure: Conf:684 Charge calc in gas phase
 ------------------------------------------------------
 Structure from the checkpoint file:  "conf-684.chk"
 Charge =  1 Multiplicity = 1

                          Input orientation:
 ---------------------------------------------------------------------
 Center     Atomic      Atomic             Coordinates (Angstroms)
 Number     Number       Type             X           Y           Z
 ---------------------------------------------------------------------
      1          7           0       -2.822502   -3.189252    2.792207
      2          1           0       -3.676087   -2.782597    3.182026
      3          1           0       -3.065030   -3.741051    1.931463
      4          1           0       -2.348945   -3.759659    3.515943
      5          6           0       -1.857406   -2.157841    2.263414
      6          1           0       -1.978369   -1.224328    2.812846
      7          6           0       -2.231483   -2.048742    0.762496
      8          6           0       -0.416511   -2.705036    2.450517
      9          1           0       -0.267918   -3.541733    1.756375
     10          1           0        0.249920   -1.893738    2.147374
     11          8           0       -2.750018   -3.054199    0.247676
     12          6           0       -0.150847   -3.131972    3.863541
     13          6           0       -0.147602   -4.430741    4.337619
     14          1           0       -0.227668   -5.364215    3.794358
     15          6           0        0.103445   -2.275248    5.000718
     16          6           0        0.253245   -3.123628    6.129879
     17          6           0        0.244740   -0.881820    5.156496
     18          1           0        0.174396   -0.207240    4.306005
     19          7           0        0.089561   -4.427585    5.695438
     20          1           0        0.213378   -5.251304    6.264307
     21          6           0        0.645931   -1.247968    7.538640
     22          1           0        0.858891   -0.824413    8.516168
     23          6           0        0.520346   -2.625374    7.409913
     24          1           0        0.631935   -3.286335    8.265078
     25          6           0        0.515170   -0.389675    6.426213
     26          1           0        0.639857    0.680251    6.563885
     27          7           0       -1.937207   -0.864574    0.228605
     28          1           0       -1.415571   -0.231039    0.885812
     29          6           0       -1.768996   -0.447673   -1.189631
     30          1           0       -2.307981    0.505191   -1.283501
     31          6           0       -0.244715   -0.158543   -1.220293
     32          6           0       -2.289247   -1.403981   -2.275088
     33          1           0       -1.876233   -2.397053   -2.074263
     34          8           0        0.584084   -0.977699   -1.589897
     35          6           0       -1.783376   -0.982454   -3.678965
     36          1           0       -0.699119   -1.124489   -3.716774
     37          1           0       -2.213966   -1.689908   -4.399164
     38          6           0       -3.824117   -1.496606   -2.238582
     39          1           0       -4.293938   -0.516010   -2.383389
     40          1           0       -4.178320   -2.154580   -3.040143
     41          1           0       -4.176411   -1.912170   -1.292325
     42          6           0       -2.124753    0.446667   -4.126168
     43          1           0       -1.780141    0.614087   -5.152906
     44          1           0       -1.638965    1.203510   -3.497232
     45          1           0       -3.202825    0.641522   -4.110203
     46          7           0        0.083106    1.049977   -0.641187
     47          1           0       -0.713193    1.549425   -0.258628
     48          6           0        1.238068    1.131067    0.261601
     49          1           0        1.852914    0.250565    0.043161
     50          6           0        0.784908    1.007096    1.769172
     51          6           0        2.081038    2.387960    0.034427
     52          1           0        1.445840    3.280477    0.130198
     53          1           0        2.807630    2.425810    0.852025
     54          8           0        1.621636    1.333795    2.615918
     55          6           0        2.776271    2.389092   -1.330648
     56          1           0        2.025180    2.346011   -2.129498
     57          1           0        3.400272    1.488496   -1.420751
     58          6           0        3.655289    3.624592   -1.518495
     59          1           0        3.050136    4.538087   -1.476864
     60          1           0        4.413311    3.668761   -0.725377
     61          7           0        4.330056    3.574632   -2.834472
     62          1           0        4.281624    2.693774   -3.332243
     63          7           0        5.335312    5.655718   -2.664591
     64          1           0        5.680821    6.492551   -3.112047
     65          1           0        5.121092    5.709245   -1.679325
     66          7           0        5.480209    4.467860   -4.645696
     67          1           0        5.181950    3.714170   -5.248388
     68          1           0        6.226574    5.058180   -4.984543
     69          6           0        5.046454    4.555104   -3.374414
     70          8           0       -0.392649    0.541904    1.964552
 ---------------------------------------------------------------------

 SCF Done:  E(RB3LYP) =  -1582.11721125     A.U. after    3 cycles

 Alpha  occ. eigenvalues --  -19.20698 -19.18180 -19.13828 -19.12299 -14.54139
 Alpha  occ. eigenvalues --  -14.53741 -14.53622 -14.53412 -14.44730 -14.43044
 Alpha  occ. eigenvalues --  -14.41509 -10.49958 -10.37535 -10.36042 -10.34942
 Alpha  occ. eigenvalues --  -10.33915 -10.31152 -10.30176 -10.29484 -10.29126
 Alpha  occ. eigenvalues --  -10.27937 -10.27896 -10.27515 -10.25992 -10.25860
 Alpha  occ. eigenvalues --  -10.24735 -10.24337 -10.24285 -10.23756 -10.23242
 Alpha  occ. eigenvalues --  -10.23142 -10.23040 -10.22818 -10.22251  -1.18394
 Alpha  occ. eigenvalues --   -1.12870  -1.09897  -1.08097  -1.07425  -1.06642
 Alpha  occ. eigenvalues --   -1.06193  -1.04547  -1.00511  -0.98062  -0.97188
 Alpha  occ. eigenvalues --   -0.90705  -0.89516  -0.88463  -0.86860  -0.83953
 Alpha  occ. eigenvalues --   -0.83460  -0.80575  -0.79491  -0.78957  -0.77943
 Alpha  occ. eigenvalues --   -0.77218  -0.76289  -0.74672  -0.73657  -0.71795
 Alpha  occ. eigenvalues --   -0.69585  -0.68284  -0.68098  -0.67921  -0.67709
 Alpha  occ. eigenvalues --   -0.66958  -0.65924  -0.65384  -0.65004  -0.64222
 Alpha  occ. eigenvalues --   -0.62836  -0.62197  -0.60504  -0.60183  -0.59895
 Alpha  occ. eigenvalues --   -0.59425  -0.57910  -0.57317  -0.56560  -0.55565
 Alpha  occ. eigenvalues --   -0.54592  -0.54168  -0.52868  -0.52544  -0.51588
 Alpha  occ. eigenvalues --   -0.51115  -0.50684  -0.49826  -0.49223  -0.49063
 Alpha  occ. eigenvalues --   -0.48709  -0.48208  -0.47863  -0.47636  -0.47192
 Alpha  occ. eigenvalues --   -0.46792  -0.46645  -0.46096  -0.45610  -0.44823
 Alpha  occ. eigenvalues --   -0.44753  -0.44063  -0.43958  -0.43482  -0.43088
 Alpha  occ. eigenvalues --   -0.42972  -0.42828  -0.42452  -0.42098  -0.40833
 Alpha  occ. eigenvalues --   -0.40437  -0.39602  -0.38842  -0.38715  -0.38523
 Alpha  occ. eigenvalues --   -0.37828  -0.37368  -0.35317  -0.34453  -0.33359
 Alpha  occ. eigenvalues --   -0.33185  -0.30437  -0.28742  -0.28411  -0.28165
 Alpha  occ. eigenvalues --   -0.26730  -0.26035
 Alpha virt. eigenvalues --   -0.13600  -0.09762  -0.07730  -0.07099  -0.05856
 Alpha virt. eigenvalues --   -0.05008  -0.04995  -0.04363  -0.03660  -0.02879
 Alpha virt. eigenvalues --   -0.00701  -0.00640  -0.00197   0.01224   0.01517

 Mulliken charges:
               1
     1  N   -0.746616
     2  H    0.403773
     3  H    0.410802
     4  H    0.383751
     5  C   -0.117986
     6  H    0.233123
     7  C    0.640669
     8  C   -0.369098
     9  H    0.171307
    10  H    0.224284
    11  O   -0.561918
    12  C    0.006014
    13  C   -0.028733
    14  H    0.163626
    15  C    0.069342
    16  C    0.310046
    17  C   -0.213959
    18  H    0.206656
    19  N   -0.680198
    20  H    0.338821
    21  C   -0.144135
    22  H    0.137490
    23  C   -0.164879
    24  H    0.133165
    25  C   -0.151772
    26  H    0.142585
    27  N   -0.650689
    28  H    0.410267
    29  C   -0.045452
    30  H    0.151883
    31  C    0.577642
    32  C   -0.073182
    33  H    0.165219
    34  O   -0.509008
    35  C   -0.276392
    36  H    0.162987
    37  H    0.139062
    38  C   -0.462722
    39  H    0.135742
    40  H    0.150548
    41  H    0.164714
    42  C   -0.458209
    43  H    0.146834
    44  H    0.130849
    45  H    0.153660
    46  N   -0.579018
    47  H    0.323315
    48  C   -0.099609
    49  H    0.179850
    50  C    0.614402
    51  C   -0.265860
    52  H    0.134890
    53  H    0.184972
    54  O   -0.548273
    55  C   -0.314542
    56  H    0.173011
    57  H    0.161869
    58  C   -0.145728
    59  H    0.186159
    60  H    0.187220
    61  N   -0.608492
    62  H    0.370698
    63  N   -0.757476
    64  H    0.387177
    65  H    0.398667
    66  N   -0.764237
    67  H    0.386949
    68  H    0.386251
    69  C    0.840793
    70  O   -0.642896
 Sum of Mulliken charges =   1.00000

 Dipole moment (field-independent basis, Debye):
    X=             12.8047    Y=              9.9042    Z=             -7.8972  Tot=             18.0116
 Quadrupole moment (field-independent basis, Debye-Ang):
   XX=            -73.2016   YY=            -59.8841   ZZ=           -105.9438
   XY=            117.2796   XZ=            -98.5432   YZ=           -115.6173

 Normal termination of Gaussian 16 at Thu May 26 00:18:44 2022.
