 Gaussian 16, Revision C.01,
 Gaussian 16:  ES64L-G16RevC.01  3-Jul-2019

 -------------------------------------------------------------------
 # B3LYP/6-31G* guess=read geom=check nosymm integral(ultrafinegrid)
 -------------------------------------------------------------------

 ------------------------------------------------------
 Candidate Structure: Conf:234 Charge calc in gas phase
 ------------------------------------------------------
 Structure from the checkpoint file:  "conf-234.chk"
 Charge =  1 Multiplicity = 1

                          Input orientation:
 ---------------------------------------------------------------------
 Center     Atomic      Atomic             Coordinates (Angstroms)
 Number     Number       Type             X           Y           Z
 ---------------------------------------------------------------------
      1          7           0       -1.982741   -2.361229    3.680309
      2          1           0       -2.639191   -1.607786    3.908315
      3          1           0       -2.383256   -2.927296    2.892408
      4          1           0       -1.835964   -2.938076    4.514160
      5          6           0       -0.676748   -1.852152    3.076418
      6          1           0       -0.400537   -0.915009    3.563593
      7          6           0       -1.082850   -1.680901    1.585465
      8          6           0        0.382032   -2.958196    3.290201
      9          1           0        0.356795   -3.239577    4.355792
     10          1           0        0.066683   -3.840993    2.721346
     11          8           0       -1.815165   -2.578230    1.135600
     12          6           0        1.766115   -2.545700    2.888437
     13          6           0        2.472253   -1.488496    3.413206
     14          1           0        2.180441   -0.731424    4.126550
     15          6           0        2.618715   -3.158912    1.898374
     16          6           0        3.829947   -2.406522    1.884931
     17          6           0        2.492507   -4.254577    1.027900
     18          1           0        1.587526   -4.857390    1.018117
     19          7           0        3.712522   -1.412139    2.835631
     20          1           0        4.234100   -0.540162    2.870072
     21          6           0        4.734729   -3.808910    0.176719
     22          1           0        5.553329   -4.096292   -0.478268
     23          6           0        4.893445   -2.722304    1.032140
     24          1           0        5.821873   -2.157688    1.062042
     25          6           0        3.545425   -4.566920    0.174853
     26          1           0        3.460488   -5.424821   -0.487081
     27          7           0       -0.655818   -0.563511    1.003352
     28          1           0       -0.019821    0.049170    1.569482
     29          6           0       -0.719781   -0.136965   -0.425684
     30          1           0       -1.148058    0.873915   -0.405319
     31          6           0        0.785053   -0.004436   -0.751995
     32          6           0       -1.559797   -0.985599   -1.397400
     33          1           0       -1.272985   -2.033644   -1.272593
     34          8           0        1.431906   -0.922618   -1.269152
     35          6           0       -1.259855   -0.603078   -2.871191
     36          1           0       -0.232635   -0.896161   -3.109512
     37          1           0       -1.910817   -1.226111   -3.497447
     38          6           0       -3.060995   -0.847307   -1.090284
     39          1           0       -3.393955    0.195173   -1.158761
     40          1           0       -3.644318   -1.428463   -1.812803
     41          1           0       -3.304561   -1.224089   -0.095148
     42          6           0       -1.468257    0.869923   -3.253261
     43          1           0       -1.287801    1.010654   -4.324442
     44          1           0       -0.779069    1.539326   -2.723476
     45          1           0       -2.488694    1.211733   -3.049861
     46          7           0        1.335068    1.137011   -0.267517
     47          1           0        0.679719    1.730346    0.233585
     48          6           0        2.620864    1.116157    0.444410
     49          1           0        3.020999    0.103904    0.322186
     50          6           0        2.339368    1.251924    1.989952
     51          6           0        3.619422    2.134764   -0.111100
     52          1           0        3.157739    3.129145   -0.121811
     53          1           0        4.462020    2.189096    0.586382
     54          8           0        1.123919    1.125403    2.348414
     55          6           0        4.085611    1.777076   -1.533660
     56          1           0        4.578634    2.638229   -2.001533
     57          1           0        3.210133    1.540359   -2.151505
     58          6           0        5.051761    0.583061   -1.531660
     59          1           0        6.036004    0.888550   -1.161159
     60          1           0        4.705676   -0.218653   -0.874950
     61          7           0        5.262747   -0.023602   -2.857132
     62          1           0        5.847702    0.477647   -3.513496
     63          7           0        3.655115   -1.707565   -2.687025
     64          1           0        3.447742   -2.685838   -2.834756
     65          1           0        3.002190   -1.210939   -2.058441
     66          7           0        5.228356   -1.758460   -4.384415
     67          1           0        6.174865   -1.571355   -4.681109
     68          1           0        4.705313   -2.454316   -4.895271
     69          6           0        4.700688   -1.157174   -3.294604
     70          8           0        3.347375    1.396542    2.701889
 ---------------------------------------------------------------------

 SCF Done:  E(RB3LYP) =  -1582.12732117     A.U. after    1 cycles

 Alpha  occ. eigenvalues --  -19.23551 -19.22556 -19.16019 -19.14817 -14.58704
 Alpha  occ. eigenvalues --  -14.51025 -14.51011 -14.49101 -14.46715 -14.44407
 Alpha  occ. eigenvalues --  -14.44368 -10.46905 -10.40782 -10.38694 -10.37883
 Alpha  occ. eigenvalues --  -10.34047 -10.33639 -10.33243 -10.31544 -10.29651
 Alpha  occ. eigenvalues --  -10.29337 -10.29147 -10.28358 -10.27401 -10.26640
 Alpha  occ. eigenvalues --  -10.26565 -10.26484 -10.26378 -10.26301 -10.26284
 Alpha  occ. eigenvalues --  -10.25840 -10.25652 -10.24905 -10.24650  -1.16234
 Alpha  occ. eigenvalues --   -1.15251  -1.13658  -1.11899  -1.08630  -1.05054
 Alpha  occ. eigenvalues --   -1.04742  -1.03597  -1.02936  -1.01222  -0.99694
 Alpha  occ. eigenvalues --   -0.91902  -0.91189  -0.89763  -0.89121  -0.85486
 Alpha  occ. eigenvalues --   -0.84017  -0.82021  -0.80983  -0.79893  -0.79437
 Alpha  occ. eigenvalues --   -0.77923  -0.76863  -0.75194  -0.72504  -0.72163
 Alpha  occ. eigenvalues --   -0.71884  -0.71543  -0.69986  -0.69644  -0.68724
 Alpha  occ. eigenvalues --   -0.68265  -0.66975  -0.66634  -0.64592  -0.64431
 Alpha  occ. eigenvalues --   -0.63407  -0.63323  -0.62816  -0.61201  -0.60688
 Alpha  occ. eigenvalues --   -0.59723  -0.59240  -0.59058  -0.57996  -0.56301
 Alpha  occ. eigenvalues --   -0.55918  -0.55677  -0.54814  -0.54195  -0.53923
 Alpha  occ. eigenvalues --   -0.53518  -0.52616  -0.51897  -0.51529  -0.51303
 Alpha  occ. eigenvalues --   -0.50976  -0.50596  -0.49841  -0.49329  -0.49013
 Alpha  occ. eigenvalues --   -0.48666  -0.48547  -0.48438  -0.47602  -0.47240
 Alpha  occ. eigenvalues --   -0.46113  -0.45866  -0.45651  -0.45477  -0.45019
 Alpha  occ. eigenvalues --   -0.44772  -0.43844  -0.43220  -0.43057  -0.41831
 Alpha  occ. eigenvalues --   -0.41612  -0.41226  -0.41046  -0.40447  -0.40262
 Alpha  occ. eigenvalues --   -0.39821  -0.39076  -0.38305  -0.37456  -0.36148
 Alpha  occ. eigenvalues --   -0.35280  -0.34450  -0.31413  -0.30599  -0.29711
 Alpha  occ. eigenvalues --   -0.28697  -0.27863
 Alpha virt. eigenvalues --   -0.11460  -0.11068  -0.09384  -0.08834  -0.07554
 Alpha virt. eigenvalues --   -0.07099  -0.05298  -0.05075  -0.03239  -0.02948
 Alpha virt. eigenvalues --   -0.02209  -0.01446  -0.00430  -0.00228   0.00464

 Mulliken charges:
               1
     1  N   -0.745851
     2  H    0.415967
     3  H    0.421469
     4  H    0.407183
     5  C   -0.122457
     6  H    0.232368
     7  C    0.657765
     8  C   -0.377278
     9  H    0.163872
    10  H    0.185488
    11  O   -0.556911
    12  C    0.050300
    13  C    0.008919
    14  H    0.186036
    15  C    0.091346
    16  C    0.296447
    17  C   -0.205429
    18  H    0.129159
    19  N   -0.669668
    20  H    0.364759
    21  C   -0.164199
    22  H    0.120703
    23  C   -0.177098
    24  H    0.133871
    25  C   -0.153346
    26  H    0.126284
    27  N   -0.657871
    28  H    0.417350
    29  C   -0.049916
    30  H    0.169557
    31  C    0.600722
    32  C   -0.075786
    33  H    0.165120
    34  O   -0.549150
    35  C   -0.276925
    36  H    0.147254
    37  H    0.144829
    38  C   -0.461798
    39  H    0.143764
    40  H    0.158017
    41  H    0.154928
    42  C   -0.461676
    43  H    0.157202
    44  H    0.137621
    45  H    0.159248
    46  N   -0.552989
    47  H    0.339738
    48  C   -0.122451
    49  H    0.166546
    50  C    0.634534
    51  C   -0.261116
    52  H    0.156756
    53  H    0.176559
    54  O   -0.630351
    55  C   -0.274634
    56  H    0.153118
    57  H    0.158681
    58  C   -0.179376
    59  H    0.187680
    60  H    0.195197
    61  N   -0.594174
    62  H    0.358138
    63  N   -0.769832
    64  H    0.368727
    65  H    0.433739
    66  N   -0.765413
    67  H    0.375683
    68  H    0.377821
    69  C    0.801271
    70  O   -0.576038
 Sum of Mulliken charges =   1.00000

 Dipole moment (field-independent basis, Debye):
    X=              7.8599    Y=             -8.9477    Z=             -4.6032  Tot=             12.7682
 Quadrupole moment (field-independent basis, Debye-Ang):
   XX=            -99.3014   YY=           -178.1615   ZZ=           -113.4666
   XY=             -4.6626   XZ=            -96.3445   YZ=            -15.7908

 Normal termination of Gaussian 16 at Thu May 26 00:18:24 2022.
