 Gaussian 16, Revision C.01,
 Gaussian 16:  ES64L-G16RevC.01  3-Jul-2019

 -------------------------------------------------------------------
 # B3LYP/6-31G* guess=read geom=check nosymm integral(ultrafinegrid)
 -------------------------------------------------------------------

 ------------------------------------------------------
 Candidate Structure: Conf:123 Charge calc in gas phase
 ------------------------------------------------------
 Structure from the checkpoint file:  "conf-123.chk"
 Charge =  1 Multiplicity = 1

                          Input orientation:
 ---------------------------------------------------------------------
 Center     Atomic      Atomic             Coordinates (Angstroms)
 Number     Number       Type             X           Y           Z
 ---------------------------------------------------------------------
      1          7           0       -1.841668   -4.016987    2.514021
      2          1           0       -2.776084   -3.877413    2.907880
      3          1           0       -1.935316   -4.204975    1.463567
      4          1           0       -1.391420   -4.796519    3.001826
      5          6           0       -0.993454   -2.757954    2.501371
      6          1           0       -1.448819   -2.040139    3.187321
      7          6           0       -1.156155   -2.284257    1.014930
      8          6           0        0.436755   -3.121320    2.952587
      9          1           0        0.361238   -3.536864    3.970500
     10          1           0        0.795015   -3.932117    2.304598
     11          8           0       -1.601458   -3.123623    0.218218
     12          6           0        1.425121   -1.993577    2.879817
     13          6           0        1.266067   -0.666382    3.232431
     14          1           0        0.424654   -0.158635    3.690435
     15          6           0        2.770942   -2.128937    2.385387
     16          6           0        3.360107   -0.839622    2.448802
     17          6           0        3.528210   -3.208721    1.893680
     18          1           0        3.112423   -4.212429    1.846208
     19          7           0        2.429868    0.027984    2.990196
     20          1           0        2.457909    1.034496    2.816054
     21          6           0        5.385416   -1.676816    1.517233
     22          1           0        6.401733   -1.524445    1.165941
     23          6           0        4.667391   -0.594466    2.006609
     24          1           0        5.088559    0.405408    2.022912
     25          6           0        4.825688   -2.972392    1.466819
     26          1           0        5.423084   -3.794219    1.083278
     27          7           0       -0.896463   -0.995068    0.797652
     28          1           0       -0.380048   -0.544524    1.549179
     29          6           0       -0.891009   -0.215051   -0.469495
     30          1           0       -1.191186    0.793935   -0.157413
     31          6           0        0.580175   -0.167961   -0.966971
     32          6           0       -1.883354   -0.690795   -1.547801
     33          1           0       -1.590645   -1.701790   -1.846077
     34          8           0        1.060375   -1.078329   -1.630638
     35          6           0       -1.754709    0.229562   -2.784664
     36          1           0       -2.024304    1.258560   -2.502152
     37          1           0       -0.706321    0.251463   -3.099865
     38          6           0       -3.322276   -0.707001   -1.009072
     39          1           0       -3.648471    0.301951   -0.723709
     40          1           0       -4.014757   -1.074973   -1.770969
     41          1           0       -3.431621   -1.360304   -0.139173
     42          6           0       -2.604662   -0.211061   -3.982645
     43          1           0       -2.393688    0.421229   -4.851641
     44          1           0       -3.678788   -0.140966   -3.782716
     45          1           0       -2.379887   -1.246461   -4.264572
     46          7           0        1.247344    0.947698   -0.579847
     47          1           0        0.871558    1.547504    0.151547
     48          6           0        2.690911    1.114560   -0.724183
     49          1           0        3.166028    0.133586   -0.608858
     50          6           0        3.164178    2.033742    0.437257
     51          6           0        3.081073    1.677572   -2.112682
     52          1           0        4.125637    1.410375   -2.307951
     53          1           0        2.485010    1.146838   -2.860719
     54          8           0        4.378879    2.398688    0.379755
     55          6           0        2.899849    3.210875   -2.247950
     56          1           0        2.238335    3.578968   -1.453808
     57          1           0        2.407217    3.461189   -3.195048
     58          6           0        4.252030    3.951288   -2.163779
     59          1           0        4.908397    3.434057   -1.466048
     60          1           0        4.746120    3.965061   -3.141106
     61          7           0        4.140909    5.349878   -1.719953
     62          1           0        3.681159    5.996257   -2.348439
     63          7           0        4.687839    5.020541    0.533844
     64          1           0        4.976942    5.448556    1.402629
     65          1           0        4.552023    3.959025    0.545475
     66          7           0        4.273021    7.157676   -0.295581
     67          1           0        4.476476    7.777927   -1.066973
     68          1           0        4.440241    7.541028    0.623451
     69          6           0        4.377294    5.810768   -0.481316
     70          8           0        2.324481    2.362753    1.311138
 ---------------------------------------------------------------------

 SCF Done:  E(RB3LYP) =  -1582.13312302     A.U. after    1 cycles

 Alpha  occ. eigenvalues --  -19.25622 -19.18180 -19.16728 -19.16673 -14.58835
 Alpha  occ. eigenvalues --  -14.48581 -14.48512 -14.48334 -14.46027 -14.44498
 Alpha  occ. eigenvalues --  -14.42144 -10.44219 -10.42402 -10.39680 -10.35553
 Alpha  occ. eigenvalues --  -10.34587 -10.32884 -10.32490 -10.31104 -10.30567
 Alpha  occ. eigenvalues --  -10.28732 -10.28392 -10.27879 -10.26690 -10.26621
 Alpha  occ. eigenvalues --  -10.25965 -10.25612 -10.25353 -10.25098 -10.24917
 Alpha  occ. eigenvalues --  -10.24852 -10.24849 -10.24750 -10.23477  -1.18020
 Alpha  occ. eigenvalues --   -1.12572  -1.12561  -1.10423  -1.09721  -1.05213
 Alpha  occ. eigenvalues --   -1.04798  -1.02118  -1.01575  -0.99977  -0.98454
 Alpha  occ. eigenvalues --   -0.92883  -0.90538  -0.89069  -0.87063  -0.85883
 Alpha  occ. eigenvalues --   -0.82860  -0.81117  -0.80283  -0.79741  -0.78452
 Alpha  occ. eigenvalues --   -0.77948  -0.75521  -0.73087  -0.72838  -0.72149
 Alpha  occ. eigenvalues --   -0.71807  -0.69883  -0.69324  -0.68698  -0.68011
 Alpha  occ. eigenvalues --   -0.66447  -0.66121  -0.65256  -0.64082  -0.63401
 Alpha  occ. eigenvalues --   -0.63090  -0.61696  -0.61456  -0.61110  -0.60415
 Alpha  occ. eigenvalues --   -0.59887  -0.58230  -0.56998  -0.56315  -0.55724
 Alpha  occ. eigenvalues --   -0.55629  -0.55014  -0.54564  -0.54182  -0.53650
 Alpha  occ. eigenvalues --   -0.53270  -0.52625  -0.51415  -0.51103  -0.50773
 Alpha  occ. eigenvalues --   -0.50074  -0.49767  -0.49307  -0.48819  -0.48724
 Alpha  occ. eigenvalues --   -0.48354  -0.48037  -0.47335  -0.46889  -0.46417
 Alpha  occ. eigenvalues --   -0.45955  -0.45768  -0.44734  -0.44693  -0.44591
 Alpha  occ. eigenvalues --   -0.43006  -0.42692  -0.42351  -0.41694  -0.40951
 Alpha  occ. eigenvalues --   -0.40617  -0.40303  -0.40112  -0.39945  -0.39249
 Alpha  occ. eigenvalues --   -0.39069  -0.38937  -0.38379  -0.36378  -0.34872
 Alpha  occ. eigenvalues --   -0.33315  -0.32263  -0.31470  -0.31256  -0.30464
 Alpha  occ. eigenvalues --   -0.29406  -0.27943
 Alpha virt. eigenvalues --   -0.11325  -0.10182  -0.09240  -0.08441  -0.05694
 Alpha virt. eigenvalues --   -0.05397  -0.05181  -0.04608  -0.03054  -0.02842
 Alpha virt. eigenvalues --   -0.02243  -0.01104  -0.00610  -0.00182   0.00281

 Mulliken charges:
               1
     1  N   -0.760335
     2  H    0.412842
     3  H    0.434514
     4  H    0.411788
     5  C   -0.121116
     6  H    0.208074
     7  C    0.669604
     8  C   -0.365435
     9  H    0.177135
    10  H    0.183312
    11  O   -0.535771
    12  C    0.054040
    13  C   -0.059172
    14  H    0.151635
    15  C    0.098541
    16  C    0.281389
    17  C   -0.202580
    18  H    0.119437
    19  N   -0.670387
    20  H    0.376055
    21  C   -0.153165
    22  H    0.142565
    23  C   -0.163068
    24  H    0.168952
    25  C   -0.132843
    26  H    0.138893
    27  N   -0.605654
    28  H    0.355918
    29  C   -0.057607
    30  H    0.152757
    31  C    0.619670
    32  C   -0.081866
    33  H    0.182389
    34  O   -0.517979
    35  C   -0.271671
    36  H    0.125474
    37  H    0.164769
    38  C   -0.457428
    39  H    0.140429
    40  H    0.168956
    41  H    0.127846
    42  C   -0.453947
    43  H    0.154195
    44  H    0.150607
    45  H    0.156551
    46  N   -0.607781
    47  H    0.337272
    48  C   -0.063923
    49  H    0.192722
    50  C    0.610872
    51  C   -0.261077
    52  H    0.158573
    53  H    0.169277
    54  O   -0.621378
    55  C   -0.280681
    56  H    0.154952
    57  H    0.146355
    58  C   -0.180447
    59  H    0.222917
    60  H    0.173953
    61  N   -0.599786
    62  H    0.349726
    63  N   -0.778711
    64  H    0.351691
    65  H    0.450725
    66  N   -0.763869
    67  H    0.365450
    68  H    0.365469
    69  C    0.787683
    70  O   -0.598299
 Sum of Mulliken charges =   1.00000

 Dipole moment (field-independent basis, Debye):
    X=              2.3494    Y=              5.9340    Z=              6.9399  Tot=              9.4284
 Quadrupole moment (field-independent basis, Debye-Ang):
   XX=           -140.1807   YY=            -34.9592   ZZ=           -162.5919
   XY=             93.5392   XZ=            -26.9792   YZ=            -53.0354

 Normal termination of Gaussian 16 at Thu May 26 00:18:32 2022.
