 Gaussian 16, Revision C.01,
 Gaussian 16:  ES64L-G16RevC.01  3-Jul-2019

 -------------------------------------------------------------------
 # B3LYP/6-31G* guess=read geom=check nosymm integral(ultrafinegrid)
 -------------------------------------------------------------------

 ------------------------------------------------------
 Candidate Structure: Conf:197 Charge calc in gas phase
 ------------------------------------------------------
 Structure from the checkpoint file:  "conf-197.chk"
 Charge =  1 Multiplicity = 1

                          Input orientation:
 ---------------------------------------------------------------------
 Center     Atomic      Atomic             Coordinates (Angstroms)
 Number     Number       Type             X           Y           Z
 ---------------------------------------------------------------------
      1          7           0        0.979656   -0.100057    3.777230
      2          1           0        2.216133   -0.120828    2.557694
      3          1           0        0.937863    0.893871    4.011046
      4          1           0        1.121826   -0.609210    4.648996
      5          6           0       -0.316363   -0.485036    3.170214
      6          1           0       -0.237137   -1.533246    2.860307
      7          6           0       -0.487205    0.418169    1.940742
      8          6           0       -1.510236   -0.339958    4.149994
      9          1           0       -1.256978   -0.913453    5.051647
     10          1           0       -1.567939    0.713058    4.452315
     11          8           0       -0.376903    1.645293    2.066374
     12          6           0       -2.835224   -0.797258    3.609557
     13          6           0       -3.355610   -2.067239    3.691642
     14          1           0       -2.942989   -2.953804    4.155185
     15          6           0       -3.819444    0.001707    2.916406
     16          6           0       -4.913215   -0.854073    2.609883
     17          6           0       -3.895080    1.357885    2.547198
     18          1           0       -3.070265    2.033439    2.756302
     19          7           0       -4.593444   -2.110840    3.083947
     20          1           0       -5.201113   -2.915284    3.061827
     21          6           0       -6.109876    0.947995    1.609636
     22          1           0       -6.991460    1.338340    1.109060
     23          6           0       -6.062558   -0.397055    1.955475
     24          1           0       -6.890440   -1.065045    1.733228
     25          6           0       -5.037203    1.816366    1.903235
     26          1           0       -5.110675    2.863118    1.621784
     27          7           0       -0.726369   -0.190719    0.757998
     28          1           0       -0.678718   -1.199831    0.724191
     29          6           0       -0.763686    0.517521   -0.532193
     30          1           0       -1.201161    1.498009   -0.323232
     31          6           0        0.705296    0.734306   -0.979779
     32          6           0       -1.624084   -0.221706   -1.581291
     33          1           0       -1.345839    0.223729   -2.545667
     34          8           0        1.262957    0.069524   -1.840392
     35          6           0       -3.132479    0.016600   -1.354869
     36          1           0       -3.681708   -0.684698   -1.996551
     37          1           0       -3.394191   -0.246591   -0.321642
     38          6           0       -1.311431   -1.726351   -1.672385
     39          1           0       -1.696785   -2.277534   -0.803270
     40          1           0       -1.807499   -2.153406   -2.550153
     41          1           0       -0.238296   -1.908363   -1.771298
     42          6           0       -3.613502    1.439150   -1.661537
     43          1           0       -4.694786    1.518556   -1.510663
     44          1           0       -3.396475    1.715993   -2.700867
     45          1           0       -3.147784    2.186962   -1.009104
     46          7           0        1.339206    1.731780   -0.269016
     47          1           0        0.798964    2.101691    0.514753
     48          6           0        2.786572    1.667863   -0.059710
     49          1           0        3.155718    0.885928   -0.731241
     50          6           0        2.989739    1.229287    1.403713
     51          6           0        3.465816    3.007682   -0.364507
     52          1           0        3.125854    3.310646   -1.365595
     53          1           0        3.103355    3.761440    0.344477
     54          8           0        2.537040   -0.006589    1.597533
     55          6           0        4.997041    2.925285   -0.279663
     56          1           0        5.386887    2.165864   -0.970780
     57          1           0        5.272909    2.614482    0.732114
     58          6           0        5.707150    4.254380   -0.542554
     59          1           0        5.341863    5.018768    0.156128
     60          1           0        6.787980    4.138560   -0.405887
     61          7           0        5.472655    4.708370   -1.929975
     62          1           0        4.671013    4.311780   -2.405462
     63          7           0        7.039579    6.418951   -1.899923
     64          1           0        7.720309    6.980681   -2.391162
     65          1           0        7.086276    6.406961   -0.891429
     66          7           0        5.980032    5.859644   -3.880169
     67          1           0        5.465581    5.200266   -4.446830
     68          1           0        6.286869    6.712130   -4.326741
     69          6           0        6.155604    5.658195   -2.561830
     70          8           0        3.423173    1.966223    2.271140
 ---------------------------------------------------------------------

 SCF Done:  E(RB3LYP) =  -1582.15787211     A.U. after    3 cycles

 Alpha  occ. eigenvalues --  -19.23601 -19.20329 -19.19725 -19.18936 -14.54364
 Alpha  occ. eigenvalues --  -14.54147 -14.54002 -14.44322 -14.43573 -14.42423
 Alpha  occ. eigenvalues --  -14.41960 -10.50563 -10.38259 -10.37074 -10.36671
 Alpha  occ. eigenvalues --  -10.35618 -10.31182 -10.30713 -10.30459 -10.30144
 Alpha  occ. eigenvalues --  -10.28983 -10.27712 -10.27183 -10.26277 -10.25467
 Alpha  occ. eigenvalues --  -10.24125 -10.24021 -10.23749 -10.23521 -10.23488
 Alpha  occ. eigenvalues --  -10.23327 -10.23213 -10.23055 -10.22531  -1.18979
 Alpha  occ. eigenvalues --   -1.15587  -1.11586  -1.10424  -1.08080  -1.07196
 Alpha  occ. eigenvalues --   -1.07114  -1.03409  -1.00487  -0.99361  -0.97935
 Alpha  occ. eigenvalues --   -0.92013  -0.88929  -0.87348  -0.85999  -0.85757
 Alpha  occ. eigenvalues --   -0.81773  -0.81090  -0.79623  -0.78583  -0.78335
 Alpha  occ. eigenvalues --   -0.77172  -0.76394  -0.75810  -0.73773  -0.72099
 Alpha  occ. eigenvalues --   -0.70961  -0.68562  -0.67799  -0.67465  -0.67273
 Alpha  occ. eigenvalues --   -0.66698  -0.65624  -0.65115  -0.64533  -0.63101
 Alpha  occ. eigenvalues --   -0.62962  -0.61707  -0.60854  -0.60230  -0.59939
 Alpha  occ. eigenvalues --   -0.59057  -0.57654  -0.55939  -0.55451  -0.55413
 Alpha  occ. eigenvalues --   -0.54339  -0.53903  -0.53378  -0.52798  -0.52553
 Alpha  occ. eigenvalues --   -0.52347  -0.51135  -0.50509  -0.50392  -0.49828
 Alpha  occ. eigenvalues --   -0.48745  -0.48489  -0.48079  -0.47876  -0.47690
 Alpha  occ. eigenvalues --   -0.47395  -0.46910  -0.46791  -0.46278  -0.45927
 Alpha  occ. eigenvalues --   -0.45656  -0.45363  -0.45284  -0.44673  -0.44080
 Alpha  occ. eigenvalues --   -0.43441  -0.42943  -0.42617  -0.42583  -0.42333
 Alpha  occ. eigenvalues --   -0.41119  -0.40335  -0.38851  -0.38743  -0.38437
 Alpha  occ. eigenvalues --   -0.38181  -0.37712  -0.37378  -0.35396  -0.35212
 Alpha  occ. eigenvalues --   -0.35004  -0.33622  -0.32507  -0.31761  -0.30860
 Alpha  occ. eigenvalues --   -0.27478  -0.25677
 Alpha virt. eigenvalues --   -0.14300  -0.10224  -0.07567  -0.06565  -0.06392
 Alpha virt. eigenvalues --   -0.06310  -0.05694  -0.04910  -0.03121  -0.02480
 Alpha virt. eigenvalues --   -0.01681  -0.00461  -0.00175   0.00687   0.01394

 Mulliken charges:
               1
     1  N   -0.771869
     2  H    0.455435
     3  H    0.348854
     4  H    0.330828
     5  C   -0.051226
     6  H    0.147367
     7  C    0.666806
     8  C   -0.362783
     9  H    0.148418
    10  H    0.170307
    11  O   -0.573659
    12  C    0.056824
    13  C   -0.005182
    14  H    0.153488
    15  C    0.076353
    16  C    0.311069
    17  C   -0.217036
    18  H    0.144290
    19  N   -0.686343
    20  H    0.335480
    21  C   -0.151619
    22  H    0.133617
    23  C   -0.162516
    24  H    0.132598
    25  C   -0.141803
    26  H    0.127741
    27  N   -0.593660
    28  H    0.350772
    29  C   -0.085348
    30  H    0.183492
    31  C    0.612658
    32  C   -0.076758
    33  H    0.146667
    34  O   -0.505187
    35  C   -0.268572
    36  H    0.139543
    37  H    0.159583
    38  C   -0.490965
    39  H    0.132828
    40  H    0.161289
    41  H    0.183277
    42  C   -0.453790
    43  H    0.158728
    44  H    0.139895
    45  H    0.145217
    46  N   -0.628003
    47  H    0.372500
    48  C   -0.032319
    49  H    0.193612
    50  C    0.577126
    51  C   -0.272739
    52  H    0.127461
    53  H    0.169716
    54  O   -0.602586
    55  C   -0.318647
    56  H    0.163887
    57  H    0.212233
    58  C   -0.160717
    59  H    0.191716
    60  H    0.187095
    61  N   -0.600927
    62  H    0.371248
    63  N   -0.755825
    64  H    0.388499
    65  H    0.397426
    66  N   -0.763438
    67  H    0.389356
    68  H    0.387546
    69  C    0.836748
    70  O   -0.486076
 Sum of Mulliken charges =   1.00000

 Dipole moment (field-independent basis, Debye):
    X=             20.6878    Y=             19.3677    Z=             -6.7464  Tot=             29.1308
 Quadrupole moment (field-independent basis, Debye-Ang):
   XX=            -17.1711   YY=            -45.0216   ZZ=           -145.9244
   XY=            168.3837   XZ=            -69.2218   YZ=            -83.0354

 Normal termination of Gaussian 16 at Thu May 26 00:18:48 2022.
