 Gaussian 16, Revision C.01,
 Gaussian 16:  ES64L-G16RevC.01  3-Jul-2019

 -------------------------------------------------------------------
 # B3LYP/6-31G* guess=read geom=check nosymm integral(ultrafinegrid)
 -------------------------------------------------------------------

 ------------------------------------------------------
 Candidate Structure: Conf:549 Charge calc in gas phase
 ------------------------------------------------------
 Structure from the checkpoint file:  "conf-549.chk"
 Charge =  1 Multiplicity = 1

                          Input orientation:
 ---------------------------------------------------------------------
 Center     Atomic      Atomic             Coordinates (Angstroms)
 Number     Number       Type             X           Y           Z
 ---------------------------------------------------------------------
      1          7           0       -1.850044   -2.619640    3.588923
      2          1           0       -2.400071   -1.844582    3.971477
      3          1           0       -2.372641   -3.033775    2.775687
      4          1           0       -1.689807   -3.313581    4.324942
      5          6           0       -0.554766   -2.163373    2.919536
      6          1           0       -0.139419   -1.329908    3.488732
      7          6           0       -1.088735   -1.751076    1.515292
      8          6           0        0.384163   -3.388976    2.894988
      9          1           0        0.381892   -3.826754    3.909155
     10          1           0       -0.061983   -4.137971    2.229332
     11          8           0       -1.955273   -2.511023    1.047510
     12          6           0        1.779017   -3.070864    2.451441
     13          6           0        2.565312   -2.041624    2.914672
     14          1           0        2.345812   -1.233914    3.596977
     15          6           0        2.567516   -3.789378    1.479503
     16          6           0        3.820998   -3.118653    1.398400
     17          6           0        2.348605   -4.919801    0.673841
     18          1           0        1.406475   -5.461648    0.716746
     19          7           0        3.790142   -2.072032    2.300218
     20          1           0        4.382188   -1.246998    2.307101
     21          6           0        4.585618   -4.656421   -0.257764
     22          1           0        5.354748   -5.012921   -0.937361
     23          6           0        4.835741   -3.541386    0.533666
     24          1           0        5.789247   -3.021563    0.491039
     25          6           0        3.354555   -5.339751   -0.187119
     26          1           0        3.193892   -6.211647   -0.815011
     27          7           0       -0.629394   -0.598581    1.037435
     28          1           0        0.131069   -0.131041    1.584775
     29          6           0       -0.850814    0.052881   -0.289273
     30          1           0       -1.205591    1.068109   -0.057205
     31          6           0        0.602301    0.165113   -0.821356
     32          6           0       -1.880487   -0.585830   -1.240217
     33          1           0       -1.657861   -1.653411   -1.330127
     34          8           0        1.113575   -0.657616   -1.564916
     35          6           0       -1.750733    0.055816   -2.643066
     36          1           0       -1.907529    1.142840   -2.558642
     37          1           0       -0.729107   -0.092845   -3.002215
     38          6           0       -3.304430   -0.402651   -0.686447
     39          1           0       -3.586099    0.659177   -0.686974
     40          1           0       -4.032154   -0.939457   -1.301370
     41          1           0       -3.400297   -0.788215    0.330011
     42          6           0       -2.721195   -0.515262   -3.684401
     43          1           0       -2.507093   -0.097486   -4.674471
     44          1           0       -3.766707   -0.287328   -3.453897
     45          1           0       -2.622962   -1.605140   -3.757750
     46          7           0        1.288277    1.216654   -0.251720
     47          1           0        0.754478    1.702396    0.464149
     48          6           0        2.649157    0.991808    0.247589
     49          1           0        2.976280    0.024728   -0.152086
     50          6           0        2.609583    0.845965    1.813879
     51          6           0        3.638876    2.067801   -0.207214
     52          1           0        3.271769    3.058208    0.097361
     53          1           0        4.574998    1.890803    0.332255
     54          8           0        3.718301    0.791814    2.376748
     55          6           0        3.856407    2.034248   -1.723472
     56          1           0        2.889995    2.170717   -2.227543
     57          1           0        4.239192    1.048687   -2.019247
     58          6           0        4.833707    3.111313   -2.191272
     59          1           0        4.458078    4.108780   -1.927419
     60          1           0        5.813250    2.969667   -1.719737
     61          7           0        5.011354    3.028531   -3.657849
     62          1           0        4.317568    2.491291   -4.164290
     63          7           0        6.766912    4.537819   -3.785356
     64          1           0        7.632251    4.823117   -4.221124
     65          1           0        6.586735    4.869451   -2.848871
     66          7           0        6.148924    3.330500   -5.660477
     67          1           0        5.671829    2.550858   -6.090391
     68          1           0        6.677846    3.939495   -6.268406
     69          6           0        5.965076    3.629670   -4.361391
     70          8           0        1.452759    0.753856    2.339464
 ---------------------------------------------------------------------

 SCF Done:  E(RB3LYP) =  -1582.10446395     A.U. after    1 cycles

 Alpha  occ. eigenvalues --  -19.21534 -19.18339 -19.14384 -19.13206 -14.56815
 Alpha  occ. eigenvalues --  -14.53812 -14.53667 -14.53490 -14.44689 -14.41660
 Alpha  occ. eigenvalues --  -14.41193 -10.50021 -10.38792 -10.36151 -10.36021
 Alpha  occ. eigenvalues --  -10.35083 -10.31915 -10.30832 -10.29380 -10.29171
 Alpha  occ. eigenvalues --  -10.27654 -10.26361 -10.26273 -10.26199 -10.25278
 Alpha  occ. eigenvalues --  -10.23848 -10.23584 -10.23383 -10.23332 -10.23164
 Alpha  occ. eigenvalues --  -10.22959 -10.22864 -10.22649 -10.22525  -1.18448
 Alpha  occ. eigenvalues --   -1.14297  -1.10217  -1.09809  -1.07493  -1.06904
 Alpha  occ. eigenvalues --   -1.06692  -1.02226  -1.01279  -0.98702  -0.97480
 Alpha  occ. eigenvalues --   -0.90814  -0.89607  -0.88157  -0.87197  -0.84125
 Alpha  occ. eigenvalues --   -0.82876  -0.80832  -0.79845  -0.77972  -0.77368
 Alpha  occ. eigenvalues --   -0.77060  -0.76277  -0.75008  -0.74228  -0.71912
 Alpha  occ. eigenvalues --   -0.70344  -0.69939  -0.69626  -0.68280  -0.67099
 Alpha  occ. eigenvalues --   -0.66650  -0.66088  -0.65479  -0.64201  -0.63632
 Alpha  occ. eigenvalues --   -0.62212  -0.62010  -0.61381  -0.60578  -0.60144
 Alpha  occ. eigenvalues --   -0.58953  -0.58423  -0.57395  -0.57375  -0.56380
 Alpha  occ. eigenvalues --   -0.55037  -0.53297  -0.52991  -0.52092  -0.51762
 Alpha  occ. eigenvalues --   -0.51571  -0.51208  -0.50300  -0.49453  -0.49421
 Alpha  occ. eigenvalues --   -0.48608  -0.48175  -0.48018  -0.47578  -0.46946
 Alpha  occ. eigenvalues --   -0.46731  -0.46209  -0.45884  -0.45776  -0.45131
 Alpha  occ. eigenvalues --   -0.44848  -0.44767  -0.44025  -0.43611  -0.43303
 Alpha  occ. eigenvalues --   -0.43042  -0.42783  -0.42178  -0.41680  -0.41410
 Alpha  occ. eigenvalues --   -0.40165  -0.39875  -0.39144  -0.38368  -0.38326
 Alpha  occ. eigenvalues --   -0.37857  -0.37475  -0.35789  -0.35293  -0.33343
 Alpha  occ. eigenvalues --   -0.32250  -0.30813  -0.29684  -0.28951  -0.26953
 Alpha  occ. eigenvalues --   -0.26636  -0.25016
 Alpha virt. eigenvalues --   -0.13708  -0.09774  -0.08967  -0.07417  -0.05909
 Alpha virt. eigenvalues --   -0.05652  -0.05023  -0.04764  -0.04389  -0.03259
 Alpha virt. eigenvalues --   -0.01905  -0.00953  -0.00759   0.00364   0.01174

 Mulliken charges:
               1
     1  N   -0.746653
     2  H    0.411164
     3  H    0.420319
     4  H    0.403026
     5  C   -0.122333
     6  H    0.226247
     7  C    0.660041
     8  C   -0.372657
     9  H    0.153277
    10  H    0.185837
    11  O   -0.559244
    12  C    0.048366
    13  C   -0.002425
    14  H    0.184368
    15  C    0.088960
    16  C    0.303282
    17  C   -0.208726
    18  H    0.117732
    19  N   -0.682069
    20  H    0.359924
    21  C   -0.151253
    22  H    0.124232
    23  C   -0.163674
    24  H    0.123224
    25  C   -0.137073
    26  H    0.126092
    27  N   -0.656396
    28  H    0.415859
    29  C   -0.048123
    30  H    0.153028
    31  C    0.572707
    32  C   -0.069672
    33  H    0.168855
    34  O   -0.499582
    35  C   -0.274416
    36  H    0.118310
    37  H    0.165344
    38  C   -0.455738
    39  H    0.133431
    40  H    0.161209
    41  H    0.143721
    42  C   -0.452888
    43  H    0.144044
    44  H    0.151255
    45  H    0.152577
    46  N   -0.575602
    47  H    0.325478
    48  C   -0.103193
    49  H    0.182052
    50  C    0.631599
    51  C   -0.262078
    52  H    0.138395
    53  H    0.174731
    54  O   -0.585697
    55  C   -0.313271
    56  H    0.171308
    57  H    0.169754
    58  C   -0.146872
    59  H    0.184470
    60  H    0.186489
    61  N   -0.606256
    62  H    0.371314
    63  N   -0.756584
    64  H    0.387337
    65  H    0.397627
    66  N   -0.763968
    67  H    0.387910
    68  H    0.386538
    69  C    0.838414
    70  O   -0.633404
 Sum of Mulliken charges =   1.00000

 Dipole moment (field-independent basis, Debye):
    X=             15.2457    Y=             10.4311    Z=            -10.8869  Tot=             21.4421
 Quadrupole moment (field-independent basis, Debye-Ang):
   XX=            -42.0200   YY=           -126.2727   ZZ=            -77.0144
   XY=            110.3050   XZ=           -146.3991   YZ=            -96.8269

 Normal termination of Gaussian 16 at Thu May 26 00:18:18 2022.
