 Gaussian 16, Revision C.01,
 Gaussian 16:  ES64L-G16RevC.01  3-Jul-2019

 -------------------------------------------------------------------
 # B3LYP/6-31G* guess=read geom=check nosymm integral(ultrafinegrid)
 -------------------------------------------------------------------

 ------------------------------------------------------
 Candidate Structure: Conf:727 Charge calc in gas phase
 ------------------------------------------------------
 Structure from the checkpoint file:  "conf-727.chk"
 Charge =  1 Multiplicity = 1

                          Input orientation:
 ---------------------------------------------------------------------
 Center     Atomic      Atomic             Coordinates (Angstroms)
 Number     Number       Type             X           Y           Z
 ---------------------------------------------------------------------
      1          7           0       -1.347307   -4.659260    1.316091
      2          1           0       -2.013645   -4.963593    2.029538
      3          1           0       -1.867376   -4.212773    0.486015
      4          1           0       -0.804516   -5.471004    1.007304
      5          6           0       -0.467108   -3.503185    1.751166
      6          1           0       -0.730948   -3.248806    2.780452
      7          6           0       -0.923050   -2.364788    0.780233
      8          6           0        1.031088   -3.896958    1.672449
      9          1           0        1.154135   -4.827588    2.246628
     10          1           0        1.280979   -4.122230    0.627650
     11          8           0       -1.769477   -2.667748   -0.074006
     12          6           0        1.936049   -2.825843    2.198459
     13          6           0        2.765139   -2.024634    1.439055
     14          1           0        2.942689   -2.042388    0.372490
     15          6           0        2.070759   -2.373733    3.564007
     16          6           0        2.991744   -1.286566    3.539637
     17          6           0        1.514823   -2.768935    4.795736
     18          1           0        0.832681   -3.614853    4.857818
     19          7           0        3.401967   -1.112811    2.232676
     20          1           0        3.921177   -0.325597    1.834435
     21          6           0        2.771784   -0.994299    5.896540
     22          1           0        3.028486   -0.474455    6.814709
     23          6           0        3.346687   -0.587746    4.699412
     24          1           0        4.050687    0.238397    4.663180
     25          6           0        1.868262   -2.076803    5.946111
     26          1           0        1.449958   -2.375239    6.902919
     27          7           0       -0.396404   -1.161653    1.012182
     28          1           0        0.353967   -1.151629    1.697011
     29          6           0       -0.467435    0.044791    0.144603
     30          1           0       -0.155895    0.864904    0.802529
     31          6           0        0.587712   -0.166339   -0.973056
     32          6           0       -1.886219    0.364905   -0.381337
     33          1           0       -2.139637   -0.396813   -1.125182
     34          8           0        0.395994   -0.974937   -1.874799
     35          6           0       -1.949732    1.757520   -1.056336
     36          1           0       -3.014153    1.981758   -1.197957
     37          1           0       -1.581112    2.518404   -0.351739
     38          6           0       -2.917509    0.318445    0.759330
     39          1           0       -2.680957    1.049781    1.542991
     40          1           0       -3.911472    0.562699    0.370826
     41          1           0       -2.984493   -0.668782    1.223458
     42          6           0       -1.249131    1.920643   -2.411783
     43          1           0       -1.540995    2.873453   -2.867585
     44          1           0       -1.526658    1.117562   -3.102767
     45          1           0       -0.159476    1.922621   -2.320979
     46          7           0        1.723420    0.567646   -0.840262
     47          1           0        1.950736    1.014580    0.044920
     48          6           0        2.909329    0.319814   -1.657002
     49          1           0        2.931794   -0.749078   -1.907091
     50          6           0        4.165426    0.624659   -0.786779
     51          6           0        2.872006    1.080249   -3.002479
     52          1           0        3.678654    0.680007   -3.628295
     53          1           0        1.941661    0.793469   -3.501642
     54          8           0        5.282408    0.534406   -1.382260
     55          6           0        2.968668    2.627582   -2.903317
     56          1           0        2.953108    2.946314   -1.853294
     57          1           0        2.094264    3.090101   -3.375067
     58          6           0        4.215474    3.226183   -3.581051
     59          1           0        4.218680    2.987792   -4.650853
     60          1           0        4.210271    4.315923   -3.483002
     61          7           0        5.444552    2.691839   -2.976857
     62          1           0        5.380035    1.700427   -2.683637
     63          7           0        6.553394    4.680111   -2.441446
     64          1           0        7.165595    5.196473   -1.827416
     65          1           0        6.386904    5.071282   -3.356691
     66          7           0        6.917892    2.723807   -1.218402
     67          1           0        6.530354    1.799302   -0.953159
     68          1           0        7.756585    3.082347   -0.786886
     69          6           0        6.308006    3.368964   -2.215972
     70          8           0        3.978232    0.931337    0.414550
 ---------------------------------------------------------------------

 SCF Done:  E(RB3LYP) =  -1582.15198944     A.U. after    2 cycles

 Alpha  occ. eigenvalues --  -19.25519 -19.19205 -19.17897 -19.17752 -14.58238
 Alpha  occ. eigenvalues --  -14.48599 -14.48335 -14.46441 -14.45992 -14.45104
 Alpha  occ. eigenvalues --  -14.43248 -10.43690 -10.42138 -10.39129 -10.36536
 Alpha  occ. eigenvalues --  -10.35739 -10.33000 -10.32807 -10.32354 -10.30675
 Alpha  occ. eigenvalues --  -10.29831 -10.29796 -10.27801 -10.27550 -10.27109
 Alpha  occ. eigenvalues --  -10.27078 -10.26875 -10.26557 -10.26492 -10.25983
 Alpha  occ. eigenvalues --  -10.25908 -10.25495 -10.25009 -10.23855  -1.17883
 Alpha  occ. eigenvalues --   -1.12344  -1.12119  -1.11363  -1.10680  -1.05963
 Alpha  occ. eigenvalues --   -1.04763  -1.02723  -1.01381  -1.00210  -0.99423
 Alpha  occ. eigenvalues --   -0.92886  -0.91469  -0.89227  -0.87680  -0.86122
 Alpha  occ. eigenvalues --   -0.83216  -0.81704  -0.81270  -0.80528  -0.79082
 Alpha  occ. eigenvalues --   -0.77813  -0.75686  -0.74005  -0.72683  -0.71735
 Alpha  occ. eigenvalues --   -0.70772  -0.70092  -0.69812  -0.69063  -0.68742
 Alpha  occ. eigenvalues --   -0.67236  -0.66249  -0.65342  -0.64846  -0.63900
 Alpha  occ. eigenvalues --   -0.63813  -0.61981  -0.61421  -0.60949  -0.60915
 Alpha  occ. eigenvalues --   -0.60535  -0.58572  -0.57566  -0.57038  -0.56774
 Alpha  occ. eigenvalues --   -0.55936  -0.55551  -0.55171  -0.53804  -0.53568
 Alpha  occ. eigenvalues --   -0.52700  -0.52244  -0.51636  -0.51310  -0.51050
 Alpha  occ. eigenvalues --   -0.50817  -0.50240  -0.50101  -0.50005  -0.49415
 Alpha  occ. eigenvalues --   -0.49191  -0.48814  -0.48696  -0.47989  -0.47432
 Alpha  occ. eigenvalues --   -0.47089  -0.46643  -0.46380  -0.45572  -0.44505
 Alpha  occ. eigenvalues --   -0.43422  -0.43380  -0.42739  -0.42434  -0.41901
 Alpha  occ. eigenvalues --   -0.41611  -0.41125  -0.40860  -0.40073  -0.40009
 Alpha  occ. eigenvalues --   -0.39164  -0.38893  -0.38565  -0.36216  -0.35811
 Alpha  occ. eigenvalues --   -0.34214  -0.33363  -0.32465  -0.32342  -0.31581
 Alpha  occ. eigenvalues --   -0.30261  -0.28804
 Alpha virt. eigenvalues --   -0.11266  -0.09685  -0.09357  -0.08485  -0.06128
 Alpha virt. eigenvalues --   -0.05588  -0.04972  -0.04442  -0.03781  -0.03584
 Alpha virt. eigenvalues --   -0.01843  -0.00487   0.00195   0.00533   0.00889

 Mulliken charges:
               1
     1  N   -0.765826
     2  H    0.411679
     3  H    0.436603
     4  H    0.410992
     5  C   -0.116887
     6  H    0.222733
     7  C    0.660750
     8  C   -0.376548
     9  H    0.176159
    10  H    0.185141
    11  O   -0.534096
    12  C   -0.010011
    13  C   -0.003589
    14  H    0.176606
    15  C    0.090252
    16  C    0.297910
    17  C   -0.217577
    18  H    0.105618
    19  N   -0.677558
    20  H    0.388361
    21  C   -0.150447
    22  H    0.145947
    23  C   -0.156396
    24  H    0.149407
    25  C   -0.134898
    26  H    0.139854
    27  N   -0.603668
    28  H    0.375621
    29  C   -0.055520
    30  H    0.153313
    31  C    0.626063
    32  C   -0.093997
    33  H    0.183851
    34  O   -0.525622
    35  C   -0.263364
    36  H    0.151662
    37  H    0.130134
    38  C   -0.454804
    39  H    0.144230
    40  H    0.163604
    41  H    0.137103
    42  C   -0.466543
    43  H    0.150009
    44  H    0.166018
    45  H    0.152821
    46  N   -0.605572
    47  H    0.344588
    48  C   -0.065467
    49  H    0.176780
    50  C    0.599609
    51  C   -0.292275
    52  H    0.158388
    53  H    0.182996
    54  O   -0.614879
    55  C   -0.275829
    56  H    0.158893
    57  H    0.165053
    58  C   -0.172350
    59  H    0.180917
    60  H    0.159136
    61  N   -0.608486
    62  H    0.410151
    63  N   -0.751078
    64  H    0.368079
    65  H    0.374212
    66  N   -0.771863
    67  H    0.418074
    68  H    0.354496
    69  C    0.769982
    70  O   -0.588646
 Sum of Mulliken charges =   1.00000

 Dipole moment (field-independent basis, Debye):
    X=              9.4938    Y=             -1.3604    Z=              1.4935  Tot=              9.7063
 Quadrupole moment (field-independent basis, Debye-Ang):
   XX=            -99.4254   YY=            -79.2026   ZZ=           -165.2506
   XY=             88.8722   XZ=            -38.0976   YZ=            -53.6078

 Normal termination of Gaussian 16 at Thu May 26 00:18:36 2022.
