 Gaussian 16, Revision C.01,
 Gaussian 16:  ES64L-G16RevC.01  3-Jul-2019

 -------------------------------------------------------------------
 # B3LYP/6-31G* guess=read geom=check nosymm integral(ultrafinegrid)
 -------------------------------------------------------------------

 ------------------------------------------------------
 Candidate Structure: Conf:962 Charge calc in gas phase
 ------------------------------------------------------
 Structure from the checkpoint file:  "conf-962.chk"
 Charge =  1 Multiplicity = 1

                          Input orientation:
 ---------------------------------------------------------------------
 Center     Atomic      Atomic             Coordinates (Angstroms)
 Number     Number       Type             X           Y           Z
 ---------------------------------------------------------------------
      1          7           0        1.092264   -0.205904    2.493633
      2          1           0        1.801961   -0.888210    2.181875
      3          1           0        1.372208    0.732442    2.032173
      4          1           0        1.057853   -0.142240    3.512544
      5          6           0       -0.213741   -0.651953    1.880311
      6          1           0       -0.513216   -1.570238    2.396025
      7          6           0        0.223982   -1.042979    0.443234
      8          6           0       -1.278743    0.445260    2.077941
      9          1           0       -1.273554    0.711398    3.146233
     10          1           0       -0.962934    1.341725    1.534310
     11          8           0        1.358990   -1.502719    0.303869
     12          6           0       -2.670783    0.041857    1.678385
     13          6           0       -3.451454    0.663507    0.726039
     14          1           0       -3.229346    1.525151    0.109685
     15          6           0       -3.481137   -1.009318    2.250855
     16          6           0       -4.736251   -0.972987    1.585375
     17          6           0       -3.283775   -1.962615    3.267954
     18          1           0       -2.349028   -2.006553    3.822041
     19          7           0       -4.683780    0.054616    0.662967
     20          1           0       -5.443964    0.341886    0.064978
     21          6           0       -5.542868   -2.794208    2.890991
     22          1           0       -6.327099   -3.497120    3.155154
     23          6           0       -5.774027   -1.860504    1.889724
     24          1           0       -6.725856   -1.818380    1.367962
     25          6           0       -4.311279   -2.842581    3.576904
     26          1           0       -4.170008   -3.579432    4.361871
     27          7           0       -0.632109   -0.813909   -0.566234
     28          1           0       -1.579988   -0.535478   -0.333259
     29          6           0       -0.254943   -0.974988   -1.985550
     30          1           0       -1.045471   -0.441802   -2.528371
     31          6           0        1.070845   -0.193672   -2.245714
     32          6           0       -0.190724   -2.439424   -2.515579
     33          1           0        0.869338   -2.702263   -2.584425
     34          8           0        1.970506   -0.639711   -2.938154
     35          6           0       -0.807655   -2.540021   -3.930679
     36          1           0       -0.742416   -3.590609   -4.241253
     37          1           0       -1.884062   -2.316407   -3.859647
     38          6           0       -0.882077   -3.444712   -1.582754
     39          1           0       -1.942046   -3.205316   -1.428571
     40          1           0       -0.834801   -4.445265   -2.025447
     41          1           0       -0.394729   -3.498859   -0.605066
     42          6           0       -0.175520   -1.669432   -5.022925
     43          1           0       -0.648737   -1.876974   -5.989151
     44          1           0        0.896992   -1.861936   -5.114283
     45          1           0       -0.296533   -0.597282   -4.827015
     46          7           0        1.115733    1.052267   -1.669351
     47          1           0        0.436120    1.237668   -0.941157
     48          6           0        2.400833    1.685484   -1.392178
     49          1           0        3.169960    0.962532   -1.683365
     50          6           0        2.525744    1.894535    0.141912
     51          6           0        2.606307    2.983693   -2.241094
     52          1           0        1.903894    2.891482   -3.073306
     53          1           0        2.285950    3.868825   -1.674897
     54          8           0        3.668869    2.163314    0.600679
     55          6           0        4.023450    3.203683   -2.838616
     56          1           0        3.928736    3.504157   -3.887672
     57          1           0        4.577491    2.256862   -2.850769
     58          6           0        4.887072    4.277945   -2.164268
     59          1           0        5.851459    4.345379   -2.685120
     60          1           0        4.397994    5.259126   -2.233019
     61          7           0        5.094195    3.939690   -0.754049
     62          1           0        4.657477    3.059854   -0.406804
     63          7           0        6.010518    5.961944   -0.040243
     64          1           0        6.086407    6.677619    0.666691
     65          1           0        6.394315    6.157377   -0.952261
     66          7           0        5.084925    4.462470    1.484105
     67          1           0        4.531018    3.611817    1.617367
     68          1           0        5.604284    4.842093    2.262033
     69          6           0        5.406133    4.785555    0.217763
     70          8           0        1.473855    1.760815    0.838252
 ---------------------------------------------------------------------

 SCF Done:  E(RB3LYP) =  -1582.16855478     A.U. after    1 cycles

 Alpha  occ. eigenvalues --  -19.22591 -19.20728 -19.20585 -19.18903 -14.54001
 Alpha  occ. eigenvalues --  -14.49969 -14.48083 -14.47251 -14.47084 -14.46452
 Alpha  occ. eigenvalues --  -14.42368 -10.45011 -10.39906 -10.38251 -10.36809
 Alpha  occ. eigenvalues --  -10.36068 -10.33530 -10.31797 -10.31683 -10.31139
 Alpha  occ. eigenvalues --  -10.30661 -10.30541 -10.28656 -10.28436 -10.27771
 Alpha  occ. eigenvalues --  -10.27352 -10.27131 -10.26962 -10.26382 -10.26133
 Alpha  occ. eigenvalues --  -10.25511 -10.24110 -10.23830 -10.22515  -1.15165
 Alpha  occ. eigenvalues --   -1.14004  -1.13364  -1.10762  -1.08792  -1.07043
 Alpha  occ. eigenvalues --   -1.05039  -1.02921  -1.02747  -1.01810  -0.99115
 Alpha  occ. eigenvalues --   -0.92435  -0.91088  -0.88914  -0.87697  -0.85637
 Alpha  occ. eigenvalues --   -0.83459  -0.81935  -0.81130  -0.80034  -0.78163
 Alpha  occ. eigenvalues --   -0.77156  -0.76314  -0.75204  -0.70918  -0.70844
 Alpha  occ. eigenvalues --   -0.70178  -0.69758  -0.69477  -0.68553  -0.68262
 Alpha  occ. eigenvalues --   -0.67447  -0.67183  -0.65413  -0.64410  -0.63408
 Alpha  occ. eigenvalues --   -0.63038  -0.62597  -0.62214  -0.61889  -0.60869
 Alpha  occ. eigenvalues --   -0.59165  -0.58378  -0.57926  -0.57318  -0.56824
 Alpha  occ. eigenvalues --   -0.55866  -0.55497  -0.54800  -0.54121  -0.53281
 Alpha  occ. eigenvalues --   -0.53092  -0.52224  -0.52168  -0.51474  -0.51411
 Alpha  occ. eigenvalues --   -0.51171  -0.51026  -0.50415  -0.50007  -0.49467
 Alpha  occ. eigenvalues --   -0.49205  -0.48774  -0.48003  -0.47429  -0.47025
 Alpha  occ. eigenvalues --   -0.46830  -0.46658  -0.46097  -0.45249  -0.44067
 Alpha  occ. eigenvalues --   -0.43753  -0.43638  -0.42806  -0.42119  -0.41919
 Alpha  occ. eigenvalues --   -0.41667  -0.41389  -0.40515  -0.39767  -0.38860
 Alpha  occ. eigenvalues --   -0.38026  -0.37921  -0.36807  -0.36434  -0.36245
 Alpha  occ. eigenvalues --   -0.36009  -0.35731  -0.35074  -0.32212  -0.32066
 Alpha  occ. eigenvalues --   -0.30819  -0.29382
 Alpha virt. eigenvalues --   -0.10172  -0.09563  -0.09301  -0.06340  -0.05941
 Alpha virt. eigenvalues --   -0.05616  -0.05152  -0.05012  -0.03345  -0.01884
 Alpha virt. eigenvalues --   -0.00821  -0.00264   0.00234   0.00651   0.00828

 Mulliken charges:
               1
     1  N   -0.764297
     2  H    0.412166
     3  H    0.441266
     4  H    0.385808
     5  C   -0.120794
     6  H    0.216282
     7  C    0.662707
     8  C   -0.371494
     9  H    0.167069
    10  H    0.196784
    11  O   -0.535070
    12  C    0.017549
    13  C   -0.012998
    14  H    0.169145
    15  C    0.100945
    16  C    0.311154
    17  C   -0.212227
    18  H    0.112842
    19  N   -0.679151
    20  H    0.345171
    21  C   -0.147176
    22  H    0.150815
    23  C   -0.154027
    24  H    0.146510
    25  C   -0.133692
    26  H    0.143715
    27  N   -0.647161
    28  H    0.358114
    29  C   -0.043603
    30  H    0.165904
    31  C    0.608052
    32  C   -0.075717
    33  H    0.180447
    34  O   -0.499873
    35  C   -0.265466
    36  H    0.147182
    37  H    0.121326
    38  C   -0.458568
    39  H    0.132357
    40  H    0.161092
    41  H    0.149224
    42  C   -0.448713
    43  H    0.148002
    44  H    0.175300
    45  H    0.130734
    46  N   -0.601208
    47  H    0.333127
    48  C   -0.068359
    49  H    0.198199
    50  C    0.619504
    51  C   -0.285435
    52  H    0.183187
    53  H    0.144014
    54  O   -0.591380
    55  C   -0.309166
    56  H    0.174097
    57  H    0.178574
    58  C   -0.151396
    59  H    0.171734
    60  H    0.168268
    61  N   -0.615767
    62  H    0.416183
    63  N   -0.760600
    64  H    0.374234
    65  H    0.381278
    66  N   -0.780985
    67  H    0.405543
    68  H    0.359565
    69  C    0.787431
    70  O   -0.618275
 Sum of Mulliken charges =   1.00000

 Dipole moment (field-independent basis, Debye):
    X=              7.5628    Y=             13.8377    Z=              5.2651  Tot=             16.6252
 Quadrupole moment (field-independent basis, Debye-Ang):
   XX=            -81.4715   YY=           -109.2620   ZZ=           -166.0649
   XY=             93.8311   XZ=              9.8830   YZ=            -11.1518

 Normal termination of Gaussian 16 at Thu May 26 00:19:23 2022.
