 Gaussian 16, Revision C.01,
 Gaussian 16:  ES64L-G16RevC.01  3-Jul-2019

 -------------------------------------------------------------------
 # B3LYP/6-31G* guess=read geom=check nosymm integral(ultrafinegrid)
 -------------------------------------------------------------------

 ------------------------------------------------------
 Candidate Structure: Conf:669 Charge calc in gas phase
 ------------------------------------------------------
 Structure from the checkpoint file:  "conf-669.chk"
 Charge =  1 Multiplicity = 1

                          Input orientation:
 ---------------------------------------------------------------------
 Center     Atomic      Atomic             Coordinates (Angstroms)
 Number     Number       Type             X           Y           Z
 ---------------------------------------------------------------------
      1          7           0       -1.842767   -3.376144    2.789691
      2          1           0       -2.482669   -3.362590    3.585443
      3          1           0       -2.379329   -3.407645    1.869403
      4          1           0       -1.230144   -4.203752    2.844811
      5          6           0       -1.040205   -2.098601    2.623256
      6          1           0       -1.324121   -1.410090    3.423337
      7          6           0       -1.551110   -1.556147    1.248750
      8          6           0        0.475445   -2.406613    2.680335
      9          1           0        1.004695   -1.476226    2.438934
     10          1           0        0.730013   -2.633258    3.723386
     11          8           0       -2.313044   -2.297134    0.604098
     12          6           0        0.856943   -3.557178    1.793501
     13          6           0        1.098705   -3.524880    0.438252
     14          1           0        1.114769   -2.681223   -0.241438
     15          6           0        0.921842   -4.946202    2.191262
     16          6           0        1.205563   -5.703659    1.018672
     17          6           0        0.770830   -5.627489    3.417365
     18          1           0        0.602704   -5.079869    4.343432
     19          7           0        1.312518   -4.805186   -0.022323
     20          1           0        1.502351   -5.044459   -0.983775
     21          6           0        1.163040   -7.738388    2.263550
     22          1           0        1.252913   -8.819405    2.313080
     23          6           0        1.331132   -7.095581    1.041688
     24          1           0        1.550669   -7.658089    0.138331
     25          6           0        0.888144   -7.012845    3.440003
     26          1           0        0.781289   -7.545580    4.380430
     27          7           0       -1.159753   -0.317681    0.947657
     28          1           0       -0.362054    0.062795    1.501175
     29          6           0       -1.237953    0.381859   -0.366748
     30          1           0       -1.429811    1.433381   -0.112649
     31          6           0        0.221644    0.240183   -0.861577
     32          6           0       -2.342091   -0.052823   -1.346113
     33          1           0       -2.175431   -1.100187   -1.615166
     34          8           0        0.640562   -0.804880   -1.349322
     35          6           0       -2.323950    0.806763   -2.636573
     36          1           0       -3.248043    0.564298   -3.176109
     37          1           0       -2.419122    1.867883   -2.359397
     38          6           0       -3.729240    0.093701   -0.694751
     39          1           0       -3.929185    1.140828   -0.431784
     40          1           0       -4.507126   -0.222413   -1.398095
     41          1           0       -3.832530   -0.516397    0.203636
     42          6           0       -1.149400    0.634007   -3.609709
     43          1           0       -1.380876    1.132313   -4.558193
     44          1           0       -0.956710   -0.423031   -3.820948
     45          1           0       -0.219847    1.069796   -3.232373
     46          7           0        1.015799    1.319965   -0.570141
     47          1           0        0.545136    2.014253    0.000394
     48          6           0        2.380050    1.085434   -0.093425
     49          1           0        2.726330    0.172978   -0.589324
     50          6           0        2.389978    0.791340    1.466258
     51          6           0        3.330689    2.236895   -0.418389
     52          1           0        2.873613    3.191977   -0.116346
     53          1           0        4.187945    2.068810    0.241892
     54          8           0        3.510951    0.803302    1.991717
     55          6           0        3.771242    2.320063   -1.882500
     56          1           0        2.917472    2.536792   -2.536100
     57          1           0        4.159995    1.341208   -2.201816
     58          6           0        4.830186    3.407520   -2.113454
     59          1           0        5.173492    3.451698   -3.152409
     60          1           0        4.425638    4.395092   -1.874418
     61          7           0        6.022537    3.245808   -1.251397
     62          1           0        5.932906    3.580222   -0.299678
     63          7           0        7.112912    1.695278   -2.601948
     64          1           0        7.981852    1.295876   -2.926600
     65          1           0        6.273923    1.480493   -3.120323
     66          7           0        8.147437    2.494841   -0.696665
     67          1           0        8.197253    3.149232    0.071988
     68          1           0        8.781191    1.708329   -0.662258
     69          6           0        7.073877    2.471776   -1.509297
     70          8           0        1.257479    0.555100    1.998603
 ---------------------------------------------------------------------

 SCF Done:  E(RB3LYP) =  -1582.11404083     A.U. after    1 cycles

 Alpha  occ. eigenvalues --  -19.21980 -19.18713 -19.13582 -19.12345 -14.53856
 Alpha  occ. eigenvalues --  -14.53322 -14.53095 -14.53046 -14.45041 -14.44098
 Alpha  occ. eigenvalues --  -14.42192 -10.49542 -10.38557 -10.36055 -10.35543
 Alpha  occ. eigenvalues --  -10.35140 -10.31235 -10.30802 -10.29566 -10.28979
 Alpha  occ. eigenvalues --  -10.28511 -10.27894 -10.27492 -10.26604 -10.26028
 Alpha  occ. eigenvalues --  -10.25963 -10.25875 -10.25459 -10.25446 -10.25223
 Alpha  occ. eigenvalues --  -10.25123 -10.24177 -10.22934 -10.22789  -1.17939
 Alpha  occ. eigenvalues --   -1.14060  -1.10434  -1.08020  -1.07089  -1.06141
 Alpha  occ. eigenvalues --   -1.06132  -1.04921  -1.01062  -0.98814  -0.97436
 Alpha  occ. eigenvalues --   -0.90935  -0.90637  -0.89006  -0.87280  -0.84348
 Alpha  occ. eigenvalues --   -0.84062  -0.80811  -0.80497  -0.79838  -0.78668
 Alpha  occ. eigenvalues --   -0.77649  -0.75691  -0.75376  -0.74567  -0.71691
 Alpha  occ. eigenvalues --   -0.69255  -0.69121  -0.68781  -0.68205  -0.67076
 Alpha  occ. eigenvalues --   -0.66780  -0.66141  -0.65990  -0.65927  -0.64921
 Alpha  occ. eigenvalues --   -0.63147  -0.61582  -0.61021  -0.60882  -0.60468
 Alpha  occ. eigenvalues --   -0.59607  -0.58783  -0.57076  -0.56379  -0.56000
 Alpha  occ. eigenvalues --   -0.55251  -0.54607  -0.54033  -0.53247  -0.52836
 Alpha  occ. eigenvalues --   -0.52626  -0.51011  -0.50274  -0.50110  -0.49709
 Alpha  occ. eigenvalues --   -0.49266  -0.49156  -0.48808  -0.48727  -0.47662
 Alpha  occ. eigenvalues --   -0.47435  -0.46783  -0.46706  -0.46285  -0.45479
 Alpha  occ. eigenvalues --   -0.45009  -0.44806  -0.44373  -0.43931  -0.43551
 Alpha  occ. eigenvalues --   -0.43211  -0.42971  -0.42362  -0.42074  -0.41584
 Alpha  occ. eigenvalues --   -0.40812  -0.40627  -0.40308  -0.39826  -0.39025
 Alpha  occ. eigenvalues --   -0.38454  -0.37996  -0.36283  -0.35317  -0.34776
 Alpha  occ. eigenvalues --   -0.34159  -0.31203  -0.29322  -0.28746  -0.28126
 Alpha  occ. eigenvalues --   -0.27349  -0.26113
 Alpha virt. eigenvalues --   -0.13602  -0.09267  -0.08617  -0.07999  -0.05910
 Alpha virt. eigenvalues --   -0.05864  -0.04938  -0.04671  -0.04258  -0.03865
 Alpha virt. eigenvalues --   -0.00811  -0.00448   0.00612   0.01122   0.01392

 Mulliken charges:
               1
     1  N   -0.773212
     2  H    0.396786
     3  H    0.425194
     4  H    0.410301
     5  C   -0.098219
     6  H    0.206115
     7  C    0.653351
     8  C   -0.418450
     9  H    0.263692
    10  H    0.169313
    11  O   -0.556540
    12  C    0.003065
    13  C    0.011418
    14  H    0.225294
    15  C    0.046169
    16  C    0.323424
    17  C   -0.242415
    18  H    0.125239
    19  N   -0.691244
    20  H    0.339604
    21  C   -0.151533
    22  H    0.143778
    23  C   -0.157809
    24  H    0.140344
    25  C   -0.133855
    26  H    0.139321
    27  N   -0.634250
    28  H    0.406846
    29  C   -0.045433
    30  H    0.144298
    31  C    0.606244
    32  C   -0.083755
    33  H    0.168055
    34  O   -0.528906
    35  C   -0.264354
    36  H    0.147786
    37  H    0.126661
    38  C   -0.454858
    39  H    0.136963
    40  H    0.154300
    41  H    0.156900
    42  C   -0.452455
    43  H    0.144076
    44  H    0.158840
    45  H    0.144384
    46  N   -0.564539
    47  H    0.324038
    48  C   -0.095148
    49  H    0.170465
    50  C    0.590663
    51  C   -0.278895
    52  H    0.133236
    53  H    0.161539
    54  O   -0.556959
    55  C   -0.273879
    56  H    0.184002
    57  H    0.135141
    58  C   -0.191475
    59  H    0.180873
    60  H    0.200318
    61  N   -0.575090
    62  H    0.375959
    63  N   -0.753291
    64  H    0.386771
    65  H    0.395679
    66  N   -0.754585
    67  H    0.387198
    68  H    0.386035
    69  C    0.823136
    70  O   -0.621664
 Sum of Mulliken charges =   1.00000

 Dipole moment (field-independent basis, Debye):
    X=             19.7278    Y=              1.4923    Z=             -3.7380  Tot=             20.1342
 Quadrupole moment (field-independent basis, Debye-Ang):
   XX=              5.8764   YY=           -121.1334   ZZ=           -163.6028
   XY=             69.2609   XZ=            -71.9073   YZ=            -35.9567

 Normal termination of Gaussian 16 at Thu May 26 00:18:17 2022.
