 Gaussian 16, Revision C.01,
 Gaussian 16:  ES64L-G16RevC.01  3-Jul-2019

 -------------------------------------------------------------------
 # B3LYP/6-31G* guess=read geom=check nosymm integral(ultrafinegrid)
 -------------------------------------------------------------------

 ------------------------------------------------------
 Candidate Structure: Conf:472 Charge calc in gas phase
 ------------------------------------------------------
 Structure from the checkpoint file:  "conf-472.chk"
 Charge =  1 Multiplicity = 1

                          Input orientation:
 ---------------------------------------------------------------------
 Center     Atomic      Atomic             Coordinates (Angstroms)
 Number     Number       Type             X           Y           Z
 ---------------------------------------------------------------------
      1          7           0        1.570317   -2.539580    1.606475
      2          1           0        1.807822   -1.427544    1.583547
      3          1           0        0.658488   -2.706937    2.047106
      4          1           0        2.263652   -2.988939    2.210545
      5          6           0        1.607610   -3.185334    0.242536
      6          1           0        2.621325   -3.003782   -0.133119
      7          6           0        0.652236   -2.562235   -0.821425
      8          6           0        1.359463   -4.703184    0.370511
      9          1           0        1.414718   -5.107464   -0.642533
     10          1           0        2.187294   -5.148241    0.938542
     11          8           0        0.497330   -3.200619   -1.851935
     12          6           0        0.040674   -5.038304    1.009745
     13          6           0       -1.164636   -5.179460    0.360228
     14          1           0       -1.380471   -5.112578   -0.697054
     15          6           0       -0.228541   -5.232478    2.417137
     16          6           0       -1.624519   -5.481945    2.544282
     17          6           0        0.565280   -5.243464    3.581475
     18          1           0        1.643403   -5.101954    3.523939
     19          7           0       -2.160987   -5.441421    1.273534
     20          1           0       -3.128198   -5.610926    1.042173
     21          6           0       -1.424045   -5.709053    4.909519
     22          1           0       -1.866084   -5.891724    5.884419
     23          6           0       -2.234100   -5.718738    3.780667
     24          1           0       -3.301299   -5.908050    3.856899
     25          6           0       -0.036298   -5.478314    4.810937
     26          1           0        0.570291   -5.495513    5.711786
     27          7           0        0.070637   -1.363065   -0.525210
     28          1           0        0.475966   -0.878633    0.275878
     29          6           0       -0.388809   -0.355427   -1.528463
     30          1           0       -1.055706    0.314260   -0.967848
     31          6           0        0.923534    0.394973   -1.866252
     32          6           0       -1.158053   -0.884437   -2.747108
     33          1           0       -0.473770   -1.507748   -3.328510
     34          8           0        1.641894    0.081871   -2.801715
     35          6           0       -1.585888    0.317713   -3.619649
     36          1           0       -2.290813    0.945554   -3.053084
     37          1           0       -0.706002    0.939065   -3.824593
     38          6           0       -2.360279   -1.731591   -2.306784
     39          1           0       -3.076047   -1.134053   -1.726052
     40          1           0       -2.890445   -2.132520   -3.175568
     41          1           0       -2.044411   -2.579986   -1.694667
     42          6           0       -2.217404   -0.075811   -4.960197
     43          1           0       -2.427189    0.814771   -5.562706
     44          1           0       -3.162838   -0.613065   -4.831786
     45          1           0       -1.541936   -0.717267   -5.538435
     46          7           0        1.293029    1.335848   -0.914385
     47          1           0        0.673349    1.375671   -0.111993
     48          6           0        2.695943    1.368277   -0.501340
     49          1           0        3.272791    1.009032   -1.358103
     50          6           0        2.945944    0.369420    0.671841
     51          6           0        3.158956    2.795801   -0.150885
     52          1           0        2.806992    3.469273   -0.942723
     53          1           0        2.676001    3.123411    0.781025
     54          8           0        4.102863    0.037892    0.935737
     55          6           0        4.684793    2.887252   -0.005930
     56          1           0        5.153357    2.598433   -0.958952
     57          1           0        5.023425    2.148265    0.726881
     58          6           0        5.141223    4.290347    0.403585
     59          1           0        4.855955    5.053319   -0.329355
     60          1           0        4.684300    4.584370    1.352729
     61          7           0        6.603180    4.391267    0.606929
     62          1           0        6.958549    4.106180    1.511339
     63          7           0        7.153318    4.676704   -1.634747
     64          1           0        7.765075    5.079078   -2.330588
     65          1           0        6.284719    4.271067   -1.952681
     66          7           0        8.787491    4.869048   -0.009220
     67          1           0        9.054035    5.062325    0.945813
     68          1           0        9.529357    4.787113   -0.689982
     69          6           0        7.505662    4.632498   -0.342188
     70          8           0        1.872469   -0.043786    1.277229
 ---------------------------------------------------------------------

 SCF Done:  E(RB3LYP) =  -1582.13191040     A.U. after    3 cycles

 Alpha  occ. eigenvalues --  -19.19025 -19.18925 -19.18533 -19.17071 -14.54034
 Alpha  occ. eigenvalues --  -14.53990 -14.53972 -14.50558 -14.44781 -14.43253
 Alpha  occ. eigenvalues --  -14.42005 -10.50371 -10.36945 -10.36604 -10.35509
 Alpha  occ. eigenvalues --  -10.35249 -10.33465 -10.30175 -10.29826 -10.29799
 Alpha  occ. eigenvalues --  -10.28682 -10.28550 -10.28402 -10.27513 -10.25544
 Alpha  occ. eigenvalues --  -10.25464 -10.25340 -10.25310 -10.24740 -10.24614
 Alpha  occ. eigenvalues --  -10.24166 -10.23084 -10.22296 -10.21901  -1.18738
 Alpha  occ. eigenvalues --   -1.11605  -1.10958  -1.10062  -1.07843  -1.06934
 Alpha  occ. eigenvalues --   -1.05946  -1.04657  -1.02414  -0.99853  -0.98394
 Alpha  occ. eigenvalues --   -0.91389  -0.90432  -0.87975  -0.86652  -0.85196
 Alpha  occ. eigenvalues --   -0.83333  -0.81221  -0.80093  -0.79517  -0.78229
 Alpha  occ. eigenvalues --   -0.77048  -0.76250  -0.75490  -0.73517  -0.72304
 Alpha  occ. eigenvalues --   -0.70146  -0.69012  -0.68680  -0.67600  -0.67145
 Alpha  occ. eigenvalues --   -0.66184  -0.65858  -0.65645  -0.64808  -0.63895
 Alpha  occ. eigenvalues --   -0.62664  -0.61582  -0.61316  -0.60504  -0.60008
 Alpha  occ. eigenvalues --   -0.59529  -0.59103  -0.58058  -0.56351  -0.55990
 Alpha  occ. eigenvalues --   -0.55226  -0.54517  -0.53754  -0.52815  -0.52342
 Alpha  occ. eigenvalues --   -0.52063  -0.51467  -0.50540  -0.50187  -0.49881
 Alpha  occ. eigenvalues --   -0.49638  -0.48951  -0.48769  -0.48235  -0.47857
 Alpha  occ. eigenvalues --   -0.47352  -0.47093  -0.46667  -0.46024  -0.45785
 Alpha  occ. eigenvalues --   -0.45423  -0.45149  -0.44780  -0.44487  -0.44046
 Alpha  occ. eigenvalues --   -0.43552  -0.42842  -0.42519  -0.42411  -0.41814
 Alpha  occ. eigenvalues --   -0.41293  -0.40468  -0.40096  -0.39867  -0.38255
 Alpha  occ. eigenvalues --   -0.37666  -0.37226  -0.35494  -0.34710  -0.34299
 Alpha  occ. eigenvalues --   -0.34039  -0.33289  -0.32380  -0.30430  -0.29621
 Alpha  occ. eigenvalues --   -0.28887  -0.27061
 Alpha virt. eigenvalues --   -0.14348  -0.10148  -0.07885  -0.07379  -0.06594
 Alpha virt. eigenvalues --   -0.05699  -0.04783  -0.04502  -0.04034  -0.03429
 Alpha virt. eigenvalues --   -0.03167  -0.01055  -0.00100   0.01024   0.01353

 Mulliken charges:
               1
     1  N   -0.795643
     2  H    0.452865
     3  H    0.391759
     4  H    0.386894
     5  C   -0.102973
     6  H    0.213795
     7  C    0.644931
     8  C   -0.365150
     9  H    0.210886
    10  H    0.155668
    11  O   -0.503260
    12  C    0.020493
    13  C    0.017856
    14  H    0.188872
    15  C    0.061618
    16  C    0.318137
    17  C   -0.234750
    18  H    0.109433
    19  N   -0.685135
    20  H    0.341428
    21  C   -0.151530
    22  H    0.142329
    23  C   -0.156224
    24  H    0.140798
    25  C   -0.133016
    26  H    0.135527
    27  N   -0.648692
    28  H    0.353097
    29  C   -0.052267
    30  H    0.143822
    31  C    0.589130
    32  C   -0.072232
    33  H    0.182711
    34  O   -0.497522
    35  C   -0.268800
    36  H    0.122262
    37  H    0.151138
    38  C   -0.462692
    39  H    0.131468
    40  H    0.157238
    41  H    0.154227
    42  C   -0.451307
    43  H    0.148024
    44  H    0.149848
    45  H    0.154448
    46  N   -0.580147
    47  H    0.325060
    48  C   -0.073193
    49  H    0.189533
    50  C    0.593485
    51  C   -0.275153
    52  H    0.156267
    53  H    0.149692
    54  O   -0.531366
    55  C   -0.286325
    56  H    0.134517
    57  H    0.206249
    58  C   -0.184553
    59  H    0.182506
    60  H    0.199579
    61  N   -0.584594
    62  H    0.371533
    63  N   -0.753394
    64  H    0.387754
    65  H    0.398825
    66  N   -0.760259
    67  H    0.387325
    68  H    0.387557
    69  C    0.826391
    70  O   -0.656801
 Sum of Mulliken charges =   1.00000

 Dipole moment (field-independent basis, Debye):
    X=             26.0398    Y=             13.7903    Z=              3.3245  Tot=             29.6529
 Quadrupole moment (field-independent basis, Debye-Ang):
   XX=             53.5453   YY=            -82.0621   ZZ=           -186.3231
   XY=            158.7550   XZ=             -7.2353   YZ=            -24.5041

 Normal termination of Gaussian 16 at Thu May 26 00:18:43 2022.
