 Gaussian 16, Revision C.01,
 Gaussian 16:  ES64L-G16RevC.01  3-Jul-2019

 -------------------------------------------------------------------
 # B3LYP/6-31G* guess=read geom=check nosymm integral(ultrafinegrid)
 -------------------------------------------------------------------

 ------------------------------------------------------
 Candidate Structure: Conf:448 Charge calc in gas phase
 ------------------------------------------------------
 Structure from the checkpoint file:  "conf-448.chk"
 Charge =  1 Multiplicity = 1

                          Input orientation:
 ---------------------------------------------------------------------
 Center     Atomic      Atomic             Coordinates (Angstroms)
 Number     Number       Type             X           Y           Z
 ---------------------------------------------------------------------
      1          7           0       -0.740563   -4.971966    0.972413
      2          1           0       -1.565297   -5.420265    1.377952
      3          1           0       -1.013663   -4.442081    0.079110
      4          1           0       -0.038224   -5.690961    0.776572
      5          6           0       -0.185257   -3.838658    1.814998
      6          1           0       -0.724098   -3.825089    2.764803
      7          6           0       -0.534257   -2.589116    0.950187
      8          6           0        1.331035   -4.047122    2.066030
      9          1           0        1.462231   -5.095589    2.380210
     10          1           0        1.864875   -3.919410    1.116216
     11          8           0       -0.998171   -2.808838   -0.180884
     12          6           0        1.887282   -3.122460    3.101677
     13          6           0        2.832660   -2.135019    2.888618
     14          1           0        3.302732   -1.823783    1.965941
     15          6           0        1.603640   -3.114890    4.517739
     16          6           0        2.407655   -2.080536    5.080654
     17          6           0        0.769125   -3.866973    5.366003
     18          1           0        0.166837   -4.687806    4.979037
     19          7           0        3.151159   -1.522806    4.063126
     20          1           0        3.750193   -0.682061    4.078876
     21          6           0        1.526645   -2.523932    7.253509
     22          1           0        1.476886   -2.310041    8.317170
     23          6           0        2.371258   -1.773330    6.445507
     24          1           0        2.983621   -0.975016    6.853757
     25          6           0        0.737270   -3.564885    6.721378
     26          1           0        0.099427   -4.140878    7.385950
     27          7           0       -0.351092   -1.407288    1.540726
     28          1           0        0.152612   -1.452995    2.424874
     29          6           0       -0.309735   -0.071878    0.898088
     30          1           0       -0.549185    0.627774    1.707550
     31          6           0        1.162230    0.140793    0.457295
     32          6           0       -1.351177    0.145265   -0.226237
     33          1           0       -1.163626   -0.597008   -1.006271
     34          8           0        1.725714   -0.692683   -0.247492
     35          6           0       -1.197245    1.560962   -0.845676
     36          1           0       -2.193701    1.911119   -1.141870
     37          1           0       -0.850308    2.269719   -0.080581
     38          6           0       -2.774192   -0.057792    0.317493
     39          1           0       -3.014306    0.685788    1.088412
     40          1           0       -3.504336    0.055066   -0.490980
     41          1           0       -2.913798   -1.052426    0.750961
     42          6           0       -0.279499    1.626376   -2.073857
     43          1           0       -0.214755    2.653282   -2.452949
     44          1           0       -0.673089    0.999918   -2.882875
     45          1           0        0.734538    1.280008   -1.855771
     46          7           0        1.735181    1.278784    0.939258
     47          1           0        1.304907    1.676987    1.779856
     48          6           0        3.187063    1.354222    1.128209
     49          1           0        3.648509    0.523861    0.590819
     50          6           0        3.422739    1.222941    2.679035
     51          6           0        3.766899    2.690803    0.636445
     52          1           0        3.421700    2.895904   -0.386425
     53          1           0        3.348330    3.467955    1.301067
     54          8           0        4.485916    0.641295    3.028700
     55          6           0        5.301850    2.696322    0.721691
     56          1           0        5.718506    2.051863   -0.063995
     57          1           0        5.602128    2.243963    1.674709
     58          6           0        5.952641    4.077030    0.645802
     59          1           0        5.566841    4.746165    1.421319
     60          1           0        7.032772    4.001073    0.802824
     61          7           0        5.784394    4.767885   -0.656971
     62          1           0        6.388559    4.463751   -1.410700
     63          7           0        3.851748    5.960643   -0.150672
     64          1           0        3.322590    6.816913   -0.232032
     65          1           0        3.532125    5.262395    0.508929
     66          7           0        5.051382    6.456709   -2.065568
     67          1           0        5.932934    6.486835   -2.557456
     68          1           0        4.275671    6.962535   -2.468595
     69          6           0        4.896028    5.713642   -0.952346
     70          8           0        2.510132    1.706374    3.385598
 ---------------------------------------------------------------------

 SCF Done:  E(RB3LYP) =  -1582.10711824     A.U. after    1 cycles

 Alpha  occ. eigenvalues --  -19.24172 -19.18243 -19.12659 -19.12638 -14.56865
 Alpha  occ. eigenvalues --  -14.52910 -14.52720 -14.52486 -14.46903 -14.41814
 Alpha  occ. eigenvalues --  -14.41382 -10.49091 -10.40779 -10.37378 -10.35272
 Alpha  occ. eigenvalues --  -10.35064 -10.31667 -10.30735 -10.30698 -10.27909
 Alpha  occ. eigenvalues --  -10.27716 -10.27601 -10.27397 -10.26956 -10.26412
 Alpha  occ. eigenvalues --  -10.25059 -10.25024 -10.24546 -10.24452 -10.24277
 Alpha  occ. eigenvalues --  -10.23871 -10.23657 -10.23612 -10.23499  -1.17424
 Alpha  occ. eigenvalues --   -1.16481  -1.10758  -1.09916  -1.06504  -1.06133
 Alpha  occ. eigenvalues --   -1.05619  -1.03354  -1.02831  -0.98576  -0.96857
 Alpha  occ. eigenvalues --   -0.90940  -0.89931  -0.89015  -0.88139  -0.84113
 Alpha  occ. eigenvalues --   -0.83836  -0.81129  -0.79757  -0.79043  -0.78565
 Alpha  occ. eigenvalues --   -0.78029  -0.75606  -0.74983  -0.74524  -0.71394
 Alpha  occ. eigenvalues --   -0.71214  -0.70576  -0.69494  -0.68471  -0.67568
 Alpha  occ. eigenvalues --   -0.67462  -0.66555  -0.65930  -0.64633  -0.64280
 Alpha  occ. eigenvalues --   -0.63217  -0.62879  -0.61734  -0.60165  -0.59567
 Alpha  occ. eigenvalues --   -0.59167  -0.58616  -0.58344  -0.57231  -0.56302
 Alpha  occ. eigenvalues --   -0.54779  -0.54235  -0.53590  -0.53163  -0.52780
 Alpha  occ. eigenvalues --   -0.52299  -0.51869  -0.51091  -0.49786  -0.49487
 Alpha  occ. eigenvalues --   -0.49132  -0.48948  -0.48576  -0.48073  -0.47900
 Alpha  occ. eigenvalues --   -0.47397  -0.46917  -0.46870  -0.46765  -0.45861
 Alpha  occ. eigenvalues --   -0.45267  -0.44896  -0.44346  -0.44142  -0.43669
 Alpha  occ. eigenvalues --   -0.43278  -0.43251  -0.42271  -0.41797  -0.41037
 Alpha  occ. eigenvalues --   -0.40861  -0.40501  -0.40058  -0.39199  -0.39120
 Alpha  occ. eigenvalues --   -0.38920  -0.38482  -0.37683  -0.37100  -0.33515
 Alpha  occ. eigenvalues --   -0.33155  -0.31478  -0.28547  -0.27635  -0.27187
 Alpha  occ. eigenvalues --   -0.26377  -0.26085
 Alpha virt. eigenvalues --   -0.13236  -0.09791  -0.08915  -0.08465  -0.06878
 Alpha virt. eigenvalues --   -0.04999  -0.04784  -0.04414  -0.03977  -0.03378
 Alpha virt. eigenvalues --   -0.02502  -0.01770  -0.00049   0.00252   0.00952

 Mulliken charges:
               1
     1  N   -0.765087
     2  H    0.409058
     3  H    0.432525
     4  H    0.407575
     5  C   -0.119814
     6  H    0.220670
     7  C    0.667014
     8  C   -0.377905
     9  H    0.165670
    10  H    0.192225
    11  O   -0.547669
    12  C   -0.012487
    13  C   -0.001284
    14  H    0.183940
    15  C    0.089849
    16  C    0.312383
    17  C   -0.221880
    18  H    0.090689
    19  N   -0.673010
    20  H    0.392317
    21  C   -0.153380
    22  H    0.137448
    23  C   -0.151409
    24  H    0.152735
    25  C   -0.135631
    26  H    0.128988
    27  N   -0.596331
    28  H    0.374140
    29  C   -0.065533
    30  H    0.160846
    31  C    0.612307
    32  C   -0.079337
    33  H    0.182666
    34  O   -0.540920
    35  C   -0.273441
    36  H    0.146721
    37  H    0.131470
    38  C   -0.457636
    39  H    0.147002
    40  H    0.158981
    41  H    0.141660
    42  C   -0.456657
    43  H    0.131036
    44  H    0.153111
    45  H    0.169689
    46  N   -0.592643
    47  H    0.342584
    48  C   -0.059752
    49  H    0.169311
    50  C    0.588582
    51  C   -0.302644
    52  H    0.135220
    53  H    0.131017
    54  O   -0.621838
    55  C   -0.271202
    56  H    0.151405
    57  H    0.225581
    58  C   -0.197275
    59  H    0.189095
    60  H    0.198370
    61  N   -0.580840
    62  H    0.365196
    63  N   -0.756222
    64  H    0.382162
    65  H    0.402116
    66  N   -0.761729
    67  H    0.383652
    68  H    0.383849
    69  C    0.815892
    70  O   -0.583192
 Sum of Mulliken charges =   1.00000

 Dipole moment (field-independent basis, Debye):
    X=             10.7128    Y=              8.7047    Z=             -5.2673  Tot=             14.7743
 Quadrupole moment (field-independent basis, Debye-Ang):
   XX=           -111.2870   YY=             14.1221   ZZ=           -200.0529
   XY=            119.6282   XZ=            -48.9576   YZ=            -54.0650

 Normal termination of Gaussian 16 at Thu May 26 00:18:18 2022.
