 Gaussian 16, Revision C.01,
 Gaussian 16:  ES64L-G16RevC.01  3-Jul-2019

 -------------------------------------------------------------------
 # B3LYP/6-31G* guess=read geom=check nosymm integral(ultrafinegrid)
 -------------------------------------------------------------------

 ------------------------------------------------------
 Candidate Structure: Conf:353 Charge calc in gas phase
 ------------------------------------------------------
 Structure from the checkpoint file:  "conf-353.chk"
 Charge =  1 Multiplicity = 1

                          Input orientation:
 ---------------------------------------------------------------------
 Center     Atomic      Atomic             Coordinates (Angstroms)
 Number     Number       Type             X           Y           Z
 ---------------------------------------------------------------------
      1          7           0        1.119866   -2.588634    2.849214
      2          1           0        1.651968   -3.082918    2.125287
      3          1           0        1.519752   -1.554884    2.917437
      4          1           0        1.191080   -3.059567    3.755886
      5          6           0       -0.307320   -2.477759    2.394032
      6          1           0       -0.692582   -3.497708    2.283561
      7          6           0       -0.174747   -1.869539    0.977656
      8          6           0       -1.141989   -1.726129    3.449432
      9          1           0       -0.770401   -0.697929    3.525121
     10          1           0       -2.176274   -1.685643    3.084112
     11          8           0        0.740574   -2.272061    0.263338
     12          6           0       -1.121160   -2.391471    4.799357
     13          6           0       -2.032009   -3.310169    5.267913
     14          1           0       -2.926626   -3.697134    4.797947
     15          6           0       -0.132994   -2.220279    5.844333
     16          6           0       -0.514919   -3.075755    6.915139
     17          6           0        1.023387   -1.423338    5.986083
     18          1           0        1.343808   -0.749166    5.194037
     19          7           0       -1.671918   -3.724372    6.530050
     20          1           0       -2.194937   -4.372489    7.099335
     21          6           0        1.355512   -2.372976    8.211398
     22          1           0        1.948981   -2.416816    9.119959
     23          6           0        0.218285   -3.163254    8.103246
     24          1           0       -0.089345   -3.822322    8.910417
     25          6           0        1.751654   -1.513478    7.165567
     26          1           0        2.644272   -0.906644    7.286540
     27          7           0       -1.038528   -0.895803    0.612048
     28          1           0       -1.774216   -0.630845    1.250487
     29          6           0       -0.872647   -0.116043   -0.632309
     30          1           0       -1.543685    0.744426   -0.507554
     31          6           0        0.590814    0.432050   -0.695164
     32          6           0       -1.276553   -0.861697   -1.930108
     33          1           0       -0.421900   -1.479259   -2.226125
     34          8           0        1.239001    0.450795   -1.730782
     35          6           0       -1.540730    0.171181   -3.050290
     36          1           0       -2.484138    0.696014   -2.831483
     37          1           0       -0.743765    0.920156   -3.034006
     38          6           0       -2.495988   -1.767614   -1.706842
     39          1           0       -3.362291   -1.195398   -1.347147
     40          1           0       -2.790069   -2.251393   -2.642668
     41          1           0       -2.290179   -2.562220   -0.983271
     42          6           0       -1.602661   -0.434977   -4.456658
     43          1           0       -1.763365    0.347171   -5.206861
     44          1           0       -2.415622   -1.161127   -4.564602
     45          1           0       -0.662610   -0.942315   -4.702078
     46          7           0        1.067467    0.911451    0.496383
     47          1           0        0.542648    0.643944    1.324123
     48          6           0        2.503206    0.848834    0.794490
     49          1           0        2.922125   -0.003592    0.240264
     50          6           0        2.677989    0.522795    2.313051
     51          6           0        3.294601    2.086483    0.358532
     52          1           0        4.349822    1.877504    0.564026
     53          1           0        3.176128    2.206013   -0.725049
     54          8           0        3.723068    0.852137    2.866004
     55          6           0        2.888567    3.368264    1.093269
     56          1           0        2.981305    3.203798    2.172237
     57          1           0        1.833699    3.600645    0.886743
     58          6           0        3.791234    4.536001    0.687975
     59          1           0        4.835239    4.304846    0.915878
     60          1           0        3.744720    4.743143   -0.386979
     61          7           0        3.489792    5.799085    1.399437
     62          1           0        3.907895    5.918846    2.314070
     63          7           0        1.751963    6.465714    0.006649
     64          1           0        1.275202    7.219793   -0.466688
     65          1           0        1.628515    5.530576   -0.354773
     66          7           0        2.532702    7.898666    1.645278
     67          1           0        3.269695    8.204196    2.264734
     68          1           0        1.711901    8.483142    1.576127
     69          6           0        2.594133    6.706539    1.022507
     70          8           0        1.664615   -0.091375    2.850563
 ---------------------------------------------------------------------

 SCF Done:  E(RB3LYP) =  -1582.14044770     A.U. after    1 cycles

 Alpha  occ. eigenvalues --  -19.21297 -19.18274 -19.16843 -19.15360 -14.53459
 Alpha  occ. eigenvalues --  -14.53456 -14.53312 -14.50644 -14.46043 -14.45430
 Alpha  occ. eigenvalues --  -14.41080 -10.49755 -10.38731 -10.35545 -10.35275
 Alpha  occ. eigenvalues --  -10.34792 -10.33936 -10.31398 -10.29758 -10.29483
 Alpha  occ. eigenvalues --  -10.28891 -10.28561 -10.28423 -10.26406 -10.25889
 Alpha  occ. eigenvalues --  -10.25712 -10.25447 -10.25301 -10.24834 -10.24780
 Alpha  occ. eigenvalues --  -10.24336 -10.23738 -10.23593 -10.22440  -1.18146
 Alpha  occ. eigenvalues --   -1.13736  -1.10033  -1.09121  -1.07181  -1.06377
 Alpha  occ. eigenvalues --   -1.06068  -1.05270  -1.02183  -1.00719  -0.97618
 Alpha  occ. eigenvalues --   -0.90568  -0.90220  -0.89325  -0.87355  -0.84344
 Alpha  occ. eigenvalues --   -0.83889  -0.80788  -0.80133  -0.79736  -0.78610
 Alpha  occ. eigenvalues --   -0.77266  -0.75809  -0.75622  -0.74979  -0.71732
 Alpha  occ. eigenvalues --   -0.69914  -0.69541  -0.68996  -0.67740  -0.67024
 Alpha  occ. eigenvalues --   -0.66563  -0.66446  -0.66117  -0.65191  -0.63549
 Alpha  occ. eigenvalues --   -0.63204  -0.62370  -0.61022  -0.60561  -0.60278
 Alpha  occ. eigenvalues --   -0.59648  -0.58850  -0.57641  -0.56840  -0.55353
 Alpha  occ. eigenvalues --   -0.54856  -0.54308  -0.53837  -0.53508  -0.52591
 Alpha  occ. eigenvalues --   -0.52356  -0.51206  -0.50926  -0.50769  -0.49959
 Alpha  occ. eigenvalues --   -0.49729  -0.49280  -0.48812  -0.48453  -0.47910
 Alpha  occ. eigenvalues --   -0.47689  -0.47245  -0.47043  -0.46619  -0.46097
 Alpha  occ. eigenvalues --   -0.45544  -0.44845  -0.44626  -0.44526  -0.43768
 Alpha  occ. eigenvalues --   -0.43624  -0.42994  -0.42386  -0.42218  -0.41833
 Alpha  occ. eigenvalues --   -0.41256  -0.40456  -0.40120  -0.40010  -0.39798
 Alpha  occ. eigenvalues --   -0.38357  -0.37961  -0.35707  -0.35488  -0.34286
 Alpha  occ. eigenvalues --   -0.32539  -0.32396  -0.31355  -0.31077  -0.29151
 Alpha  occ. eigenvalues --   -0.28972  -0.27523
 Alpha virt. eigenvalues --   -0.13741  -0.09624  -0.08313  -0.07886  -0.05885
 Alpha virt. eigenvalues --   -0.05363  -0.05103  -0.04372  -0.04149  -0.02512
 Alpha virt. eigenvalues --   -0.02217  -0.00601  -0.00339  -0.00041   0.01050

 Mulliken charges:
               1
     1  N   -0.769465
     2  H    0.398401
     3  H    0.458951
     4  H    0.394328
     5  C   -0.093581
     6  H    0.201120
     7  C    0.650142
     8  C   -0.388749
     9  H    0.200601
    10  H    0.158900
    11  O   -0.524140
    12  C    0.024450
    13  C    0.009781
    14  H    0.160255
    15  C    0.044101
    16  C    0.315886
    17  C   -0.252158
    18  H    0.179709
    19  N   -0.682721
    20  H    0.341279
    21  C   -0.147801
    22  H    0.141585
    23  C   -0.159946
    24  H    0.139253
    25  C   -0.143335
    26  H    0.142167
    27  N   -0.639312
    28  H    0.347418
    29  C   -0.048755
    30  H    0.154591
    31  C    0.604082
    32  C   -0.061579
    33  H    0.172408
    34  O   -0.508646
    35  C   -0.265380
    36  H    0.116035
    37  H    0.157495
    38  C   -0.458144
    39  H    0.128268
    40  H    0.166015
    41  H    0.140074
    42  C   -0.452415
    43  H    0.147229
    44  H    0.147528
    45  H    0.159782
    46  N   -0.614137
    47  H    0.337797
    48  C   -0.061607
    49  H    0.181735
    50  C    0.576599
    51  C   -0.254719
    52  H    0.165870
    53  H    0.155796
    54  O   -0.517703
    55  C   -0.281223
    56  H    0.184589
    57  H    0.132762
    58  C   -0.187492
    59  H    0.206011
    60  H    0.180767
    61  N   -0.584294
    62  H    0.371336
    63  N   -0.755333
    64  H    0.385451
    65  H    0.400004
    66  N   -0.761748
    67  H    0.386440
    68  H    0.385353
    69  C    0.823111
    70  O   -0.661071
 Sum of Mulliken charges =   1.00000

 Dipole moment (field-independent basis, Debye):
    X=              2.2630    Y=             18.9925    Z=             10.6616  Tot=             21.8976
 Quadrupole moment (field-independent basis, Debye-Ang):
   XX=           -167.9680   YY=             31.3281   ZZ=           -155.2489
   XY=             73.6207   XZ=             -2.2234   YZ=            -11.3085

 Normal termination of Gaussian 16 at Thu May 26 00:18:16 2022.
