 Gaussian 16, Revision C.01,
 Gaussian 16:  ES64L-G16RevC.01  3-Jul-2019

 -------------------------------------------------------------------
 # B3LYP/6-31G* guess=read geom=check nosymm integral(ultrafinegrid)
 -------------------------------------------------------------------

 ------------------------------------------------------
 Candidate Structure: Conf:883 Charge calc in gas phase
 ------------------------------------------------------
 Structure from the checkpoint file:  "conf-883.chk"
 Charge =  1 Multiplicity = 1

                          Input orientation:
 ---------------------------------------------------------------------
 Center     Atomic      Atomic             Coordinates (Angstroms)
 Number     Number       Type             X           Y           Z
 ---------------------------------------------------------------------
      1          7           0       -2.302022   -1.682241    3.803307
      2          1           0       -3.085449   -1.041233    3.644515
      3          1           0       -2.448516   -2.540157    3.214605
      4          1           0       -2.253053   -1.914474    4.799770
      5          6           0       -0.974162   -1.156696    3.257570
      6          1           0       -0.932482   -0.081453    3.438710
      7          6           0       -1.119505   -1.534892    1.752163
      8          6           0        0.134878   -1.926779    4.001780
      9          1           0       -0.110347   -1.898983    5.079302
     10          1           0        0.070208   -2.978086    3.694424
     11          8           0       -1.625296   -2.651090    1.550301
     12          6           0        1.517282   -1.407881    3.753509
     13          6           0        1.908614   -0.091173    3.675576
     14          1           0        1.330944    0.821590    3.676684
     15          6           0        2.711072   -2.204166    3.600377
     16          6           0        3.785962   -1.290695    3.414632
     17          6           0        2.980724   -3.583395    3.598332
     18          1           0        2.184199   -4.308850    3.747280
     19          7           0        3.265707   -0.012315    3.488910
     20          1           0        3.678909    0.833054    3.099827
     21          6           0        5.335443   -3.092314    3.204052
     22          1           0        6.346329   -3.460508    3.052843
     23          6           0        5.101228   -1.722316    3.212712
     24          1           0        5.910837   -1.010193    3.077680
     25          6           0        4.285861   -4.013806    3.396946
     26          1           0        4.505023   -5.077781    3.390327
     27          7           0       -0.820942   -0.585365    0.864980
     28          1           0       -0.267030    0.233371    1.195799
     29          6           0       -0.760308   -0.700319   -0.624598
     30          1           0       -1.118899    0.274209   -0.983282
     31          6           0        0.768577   -0.795802   -0.855000
     32          6           0       -1.624582   -1.777157   -1.300726
     33          1           0       -1.266813   -2.760668   -0.982104
     34          8           0        1.375125   -1.849264   -0.772579
     35          6           0       -1.530081   -1.681880   -2.846527
     36          1           0       -2.270163   -2.391138   -3.237887
     37          1           0       -1.885050   -0.687850   -3.160442
     38          6           0       -3.106617   -1.617787   -0.915143
     39          1           0       -3.486502   -0.631432   -1.213153
     40          1           0       -3.710422   -2.371310   -1.432180
     41          1           0       -3.272132   -1.748041    0.155156
     42          6           0       -0.184743   -1.980231   -3.522607
     43          1           0       -0.334417   -2.086870   -4.603529
     44          1           0        0.258102   -2.907419   -3.146480
     45          1           0        0.549002   -1.182390   -3.372006
     46          7           0        1.366126    0.444311   -0.986859
     47          1           0        0.699581    1.192212   -0.818818
     48          6           0        2.571452    0.714715   -0.190771
     49          1           0        2.918939   -0.251037    0.193005
     50          6           0        2.159872    1.591212    1.051358
     51          6           0        3.724883    1.334176   -0.987716
     52          1           0        4.571111    1.422800   -0.297639
     53          1           0        4.005240    0.642116   -1.793730
     54          8           0        3.099698    2.155206    1.649827
     55          6           0        3.406525    2.721099   -1.556456
     56          1           0        3.099489    3.378884   -0.735060
     57          1           0        2.558254    2.653650   -2.254568
     58          6           0        4.608329    3.389445   -2.231714
     59          1           0        4.369510    4.387075   -2.615304
     60          1           0        5.422271    3.513866   -1.512354
     61          7           0        5.181005    2.609513   -3.354076
     62          1           0        5.849217    1.888293   -3.113287
     63          7           0        3.656923    3.316727   -4.959899
     64          1           0        3.469446    3.560625   -5.921794
     65          1           0        2.981529    3.593566   -4.262150
     66          7           0        5.475650    2.031366   -5.582267
     67          1           0        6.406000    1.680794   -5.403338
     68          1           0        5.051369    1.786299   -6.465643
     69          6           0        4.765732    2.644917   -4.616890
     70          8           0        0.921587    1.616267    1.334586
 ---------------------------------------------------------------------

 SCF Done:  E(RB3LYP) =  -1582.09897318     A.U. after    3 cycles

 Alpha  occ. eigenvalues --  -19.22224 -19.18457 -19.14781 -19.13759 -14.57501
 Alpha  occ. eigenvalues --  -14.53456 -14.53386 -14.53245 -14.45420 -14.41680
 Alpha  occ. eigenvalues --  -14.41438 -10.49720 -10.39473 -10.36917 -10.35753
 Alpha  occ. eigenvalues --  -10.35197 -10.32396 -10.31193 -10.29877 -10.28990
 Alpha  occ. eigenvalues --  -10.27912 -10.26813 -10.26614 -10.26400 -10.25928
 Alpha  occ. eigenvalues --  -10.24701 -10.24280 -10.23811 -10.23502 -10.23469
 Alpha  occ. eigenvalues --  -10.23340 -10.23169 -10.22975 -10.22660  -1.18114
 Alpha  occ. eigenvalues --   -1.15037  -1.10784  -1.10189  -1.07385  -1.07162
 Alpha  occ. eigenvalues --   -1.06348  -1.02368  -1.01755  -0.99164  -0.97799
 Alpha  occ. eigenvalues --   -0.90449  -0.90142  -0.88342  -0.87741  -0.84118
 Alpha  occ. eigenvalues --   -0.83270  -0.80984  -0.80074  -0.78412  -0.78032
 Alpha  occ. eigenvalues --   -0.77239  -0.75785  -0.75497  -0.74812  -0.71885
 Alpha  occ. eigenvalues --   -0.70969  -0.70256  -0.69734  -0.68443  -0.67053
 Alpha  occ. eigenvalues --   -0.67047  -0.66800  -0.66328  -0.63919  -0.63821
 Alpha  occ. eigenvalues --   -0.62507  -0.62009  -0.60990  -0.60897  -0.59669
 Alpha  occ. eigenvalues --   -0.59248  -0.59137  -0.57775  -0.57263  -0.56425
 Alpha  occ. eigenvalues --   -0.54494  -0.53727  -0.53315  -0.52746  -0.52486
 Alpha  occ. eigenvalues --   -0.52135  -0.51296  -0.50768  -0.49608  -0.49480
 Alpha  occ. eigenvalues --   -0.49221  -0.48677  -0.48159  -0.47826  -0.47511
 Alpha  occ. eigenvalues --   -0.47124  -0.46962  -0.46803  -0.46089  -0.45868
 Alpha  occ. eigenvalues --   -0.45234  -0.44646  -0.44529  -0.44250  -0.43560
 Alpha  occ. eigenvalues --   -0.43435  -0.43176  -0.42673  -0.41738  -0.41224
 Alpha  occ. eigenvalues --   -0.40401  -0.40184  -0.39428  -0.38981  -0.38520
 Alpha  occ. eigenvalues --   -0.38451  -0.37628  -0.36467  -0.35955  -0.33751
 Alpha  occ. eigenvalues --   -0.32452  -0.31010  -0.30220  -0.29250  -0.27474
 Alpha  occ. eigenvalues --   -0.26838  -0.25276
 Alpha virt. eigenvalues --   -0.13753  -0.09802  -0.09543  -0.08134  -0.05977
 Alpha virt. eigenvalues --   -0.05875  -0.05048  -0.04945  -0.04175  -0.03797
 Alpha virt. eigenvalues --   -0.02107  -0.01446  -0.00262   0.00386   0.01074

 Mulliken charges:
               1
     1  N   -0.746074
     2  H    0.411903
     3  H    0.422205
     4  H    0.404455
     5  C   -0.117762
     6  H    0.214776
     7  C    0.663041
     8  C   -0.368893
     9  H    0.152425
    10  H    0.189032
    11  O   -0.547505
    12  C    0.053202
    13  C   -0.011189
    14  H    0.175150
    15  C    0.091222
    16  C    0.296128
    17  C   -0.207465
    18  H    0.116380
    19  N   -0.684471
    20  H    0.367853
    21  C   -0.151278
    22  H    0.127801
    23  C   -0.164292
    24  H    0.127893
    25  C   -0.136905
    26  H    0.128000
    27  N   -0.641971
    28  H    0.405992
    29  C   -0.050243
    30  H    0.145715
    31  C    0.594958
    32  C   -0.086192
    33  H    0.177880
    34  O   -0.492948
    35  C   -0.262571
    36  H    0.148164
    37  H    0.121419
    38  C   -0.451711
    39  H    0.134494
    40  H    0.157103
    41  H    0.138140
    42  C   -0.453455
    43  H    0.138449
    44  H    0.173024
    45  H    0.139083
    46  N   -0.585096
    47  H    0.320668
    48  C   -0.101556
    49  H    0.195281
    50  C    0.614402
    51  C   -0.251242
    52  H    0.162612
    53  H    0.118640
    54  O   -0.594712
    55  C   -0.287312
    56  H    0.206388
    57  H    0.129266
    58  C   -0.195218
    59  H    0.182071
    60  H    0.207562
    61  N   -0.576663
    62  H    0.371461
    63  N   -0.753505
    64  H    0.385808
    65  H    0.397165
    66  N   -0.759889
    67  H    0.386420
    68  H    0.385901
    69  C    0.822941
    70  O   -0.622355
 Sum of Mulliken charges =   1.00000

 Dipole moment (field-independent basis, Debye):
    X=              8.5016    Y=              6.8913    Z=            -11.4744  Tot=             15.8565
 Quadrupole moment (field-independent basis, Debye-Ang):
   XX=            -83.3561   YY=           -175.6706   ZZ=            -58.0911
   XY=             51.9564   XZ=           -125.2803   YZ=            -71.6481

 Normal termination of Gaussian 16 at Thu May 26 00:20:20 2022.
