 Gaussian 16, Revision C.01,
 Gaussian 16:  ES64L-G16RevC.01  3-Jul-2019

 -------------------------------------------------------------------
 # B3LYP/6-31G* guess=read geom=check nosymm integral(ultrafinegrid)
 -------------------------------------------------------------------

 ------------------------------------------------------
 Candidate Structure: Conf:102 Charge calc in gas phase
 ------------------------------------------------------
 Structure from the checkpoint file:  "conf-102.chk"
 Charge =  1 Multiplicity = 1

                          Input orientation:
 ---------------------------------------------------------------------
 Center     Atomic      Atomic             Coordinates (Angstroms)
 Number     Number       Type             X           Y           Z
 ---------------------------------------------------------------------
      1          7           0       -2.171393   -3.162754    2.926018
      2          1           0       -3.042280   -2.758581    3.281557
      3          1           0       -2.390199   -3.697074    2.053269
      4          1           0       -1.761238   -3.766371    3.655917
      5          6           0       -1.194189   -2.110174    2.444266
      6          1           0       -1.284015   -1.217433    3.063578
      7          6           0       -1.595465   -1.884842    0.967784
      8          6           0        0.239940   -2.680704    2.557283
      9          1           0        0.305900   -3.589076    1.943603
     10          1           0        0.906318   -1.945573    2.102612
     11          8           0       -2.076194   -2.854887    0.365338
     12          6           0        0.630085   -2.936556    3.982538
     13          6           0        1.220158   -2.023737    4.828247
     14          1           0        1.576117   -1.022187    4.601492
     15          6           0        0.361225   -4.121904    4.762760
     16          6           0        0.806628   -3.850478    6.089502
     17          6           0       -0.193787   -5.389171    4.483214
     18          1           0       -0.474743   -5.666902    3.467684
     19          7           0        1.325186   -2.571424    6.087040
     20          1           0        1.750426   -2.113305    6.878992
     21          6           0        0.119506   -6.017942    6.816854
     22          1           0        0.017464   -6.764935    7.598238
     23          6           0        0.691929   -4.786643    7.120411
     24          1           0        1.039342   -4.564068    8.125641
     25          6           0       -0.314253   -6.319025    5.511173
     26          1           0       -0.730865   -7.299882    5.301460
     27          7           0       -1.357849   -0.638682    0.538564
     28          1           0       -0.884128   -0.048380    1.253810
     29          6           0       -1.086514   -0.141798   -0.838568
     30          1           0       -1.530337    0.862888   -0.884492
     31          6           0        0.459592   -0.011399   -0.792570
     32          6           0       -1.647455   -0.966480   -2.005920
     33          1           0       -1.249608   -1.983336   -1.926171
     34          8           0        1.208490   -0.897426   -1.174429
     35          6           0       -1.149577   -0.355614   -3.336779
     36          1           0       -1.530064    0.673876   -3.425570
     37          1           0       -0.056992   -0.289783   -3.308247
     38          6           0       -3.182483   -1.015020   -1.944640
     39          1           0       -3.611290   -0.009756   -2.054083
     40          1           0       -3.582467   -1.635651   -2.751460
     41          1           0       -3.533919   -1.443982   -1.004026
     42          6           0       -1.551436   -1.154587   -4.582368
     43          1           0       -1.094401   -0.721415   -5.478886
     44          1           0       -2.634608   -1.164423   -4.740510
     45          1           0       -1.212784   -2.194843   -4.507744
     46          7           0        0.892195    1.119951   -0.123955
     47          1           0        0.136095    1.645430    0.305083
     48          6           0        2.010006    0.987924    0.815824
     49          1           0        2.570891    0.102338    0.500937
     50          6           0        1.464293    0.720805    2.272128
     51          6           0        2.952329    2.206275    0.746778
     52          1           0        3.093420    2.447908   -0.315920
     53          1           0        2.448842    3.067402    1.222353
     54          8           0        2.327330    0.554382    3.156408
     55          6           0        4.303448    1.962867    1.432712
     56          1           0        4.823561    1.131847    0.936629
     57          1           0        4.109711    1.634834    2.459077
     58          6           0        5.226951    3.179927    1.477641
     59          1           0        4.740727    4.043534    1.942624
     60          1           0        6.118481    2.961819    2.073154
     61          7           0        5.729178    3.617474    0.150963
     62          1           0        6.477092    3.064890   -0.250509
     63          7           0        4.092710    5.204924   -0.313933
     64          1           0        3.845618    6.094620   -0.722910
     65          1           0        3.389906    4.717814    0.226355
     66          7           0        5.991956    5.080200   -1.628854
     67          1           0        6.966846    4.838036   -1.735016
     68          1           0        5.559997    5.603799   -2.376957
     69          6           0        5.265882    4.618687   -0.592491
     70          8           0        0.201084    0.675540    2.404679
 ---------------------------------------------------------------------

 SCF Done:  E(RB3LYP) =  -1582.12231950     A.U. after    1 cycles

 Alpha  occ. eigenvalues --  -19.21249 -19.18749 -19.15274 -19.14438 -14.55002
 Alpha  occ. eigenvalues --  -14.53307 -14.53175 -14.53022 -14.44763 -14.43753
 Alpha  occ. eigenvalues --  -14.41969 -10.49547 -10.38044 -10.35557 -10.35499
 Alpha  occ. eigenvalues --  -10.34406 -10.32984 -10.30673 -10.28918 -10.28819
 Alpha  occ. eigenvalues --  -10.28367 -10.28280 -10.28121 -10.28021 -10.26037
 Alpha  occ. eigenvalues --  -10.25957 -10.25780 -10.25208 -10.25128 -10.25071
 Alpha  occ. eigenvalues --  -10.24953 -10.23515 -10.22542 -10.22365  -1.17879
 Alpha  occ. eigenvalues --   -1.13399  -1.10540  -1.08813  -1.07974  -1.06961
 Alpha  occ. eigenvalues --   -1.06084  -1.04640  -1.01233  -0.99379  -0.98239
 Alpha  occ. eigenvalues --   -0.90841  -0.90383  -0.89121  -0.87162  -0.84583
 Alpha  occ. eigenvalues --   -0.84105  -0.80793  -0.80381  -0.79781  -0.78428
 Alpha  occ. eigenvalues --   -0.76934  -0.75444  -0.75355  -0.74155  -0.71722
 Alpha  occ. eigenvalues --   -0.69637  -0.68989  -0.68780  -0.68725  -0.68109
 Alpha  occ. eigenvalues --   -0.66989  -0.66335  -0.65947  -0.65220  -0.64560
 Alpha  occ. eigenvalues --   -0.63324  -0.61856  -0.60917  -0.60508  -0.60257
 Alpha  occ. eigenvalues --   -0.59372  -0.58872  -0.57176  -0.56871  -0.55639
 Alpha  occ. eigenvalues --   -0.54971  -0.54362  -0.53660  -0.53454  -0.53084
 Alpha  occ. eigenvalues --   -0.51146  -0.51068  -0.50895  -0.50214  -0.50142
 Alpha  occ. eigenvalues --   -0.49747  -0.49389  -0.48635  -0.48126  -0.47985
 Alpha  occ. eigenvalues --   -0.47347  -0.46456  -0.46242  -0.45918  -0.45295
 Alpha  occ. eigenvalues --   -0.45175  -0.44916  -0.44729  -0.44503  -0.44115
 Alpha  occ. eigenvalues --   -0.43477  -0.42991  -0.42378  -0.42194  -0.41625
 Alpha  occ. eigenvalues --   -0.41151  -0.40665  -0.40386  -0.40136  -0.38795
 Alpha  occ. eigenvalues --   -0.38141  -0.37627  -0.35939  -0.35091  -0.34357
 Alpha  occ. eigenvalues --   -0.34089  -0.31169  -0.30375  -0.29844  -0.29170
 Alpha  occ. eigenvalues --   -0.27911  -0.27150
 Alpha virt. eigenvalues --   -0.13676  -0.09329  -0.08508  -0.08209  -0.05937
 Alpha virt. eigenvalues --   -0.05237  -0.04917  -0.04268  -0.04100  -0.03848
 Alpha virt. eigenvalues --   -0.01190  -0.00838   0.00057   0.01516   0.01654

 Mulliken charges:
               1
     1  N   -0.757227
     2  H    0.404903
     3  H    0.411980
     4  H    0.411395
     5  C   -0.122759
     6  H    0.228517
     7  C    0.640611
     8  C   -0.379878
     9  H    0.176853
    10  H    0.214284
    11  O   -0.549523
    12  C    0.006089
    13  C    0.016104
    14  H    0.232707
    15  C    0.057786
    16  C    0.319851
    17  C   -0.259008
    18  H    0.126427
    19  N   -0.688739
    20  H    0.340766
    21  C   -0.152544
    22  H    0.144273
    23  C   -0.156389
    24  H    0.142102
    25  C   -0.133766
    26  H    0.139943
    27  N   -0.646360
    28  H    0.403500
    29  C   -0.048961
    30  H    0.147093
    31  C    0.579421
    32  C   -0.072732
    33  H    0.167839
    34  O   -0.502836
    35  C   -0.270063
    36  H    0.119805
    37  H    0.157910
    38  C   -0.460347
    39  H    0.132211
    40  H    0.159710
    41  H    0.159245
    42  C   -0.451893
    43  H    0.146950
    44  H    0.151752
    45  H    0.153451
    46  N   -0.580069
    47  H    0.319808
    48  C   -0.087184
    49  H    0.187769
    50  C    0.596831
    51  C   -0.293019
    52  H    0.133615
    53  H    0.124388
    54  O   -0.561179
    55  C   -0.267210
    56  H    0.148941
    57  H    0.230550
    58  C   -0.196064
    59  H    0.182849
    60  H    0.198357
    61  N   -0.579412
    62  H    0.366619
    63  N   -0.754693
    64  H    0.382957
    65  H    0.399598
    66  N   -0.760348
    67  H    0.384603
    68  H    0.384928
    69  C    0.815665
    70  O   -0.618752
 Sum of Mulliken charges =   1.00000

 Dipole moment (field-independent basis, Debye):
    X=             14.5588    Y=             12.5389    Z=              4.1330  Tot=             19.6536
 Quadrupole moment (field-independent basis, Debye-Ang):
   XX=            -64.8794   YY=            -81.9459   ZZ=           -146.6228
   XY=            111.1253   XZ=            -30.5169   YZ=            -56.7393

 Normal termination of Gaussian 16 at Thu May 26 00:18:26 2022.
