 Gaussian 16, Revision C.01,
 Gaussian 16:  ES64L-G16RevC.01  3-Jul-2019

 -------------------------------------------------------------------
 # B3LYP/6-31G* guess=read geom=check nosymm integral(ultrafinegrid)
 -------------------------------------------------------------------

 ------------------------------------------------------
 Candidate Structure: Conf:474 Charge calc in gas phase
 ------------------------------------------------------
 Structure from the checkpoint file:  "conf-474.chk"
 Charge =  1 Multiplicity = 1

                          Input orientation:
 ---------------------------------------------------------------------
 Center     Atomic      Atomic             Coordinates (Angstroms)
 Number     Number       Type             X           Y           Z
 ---------------------------------------------------------------------
      1          7           0       -2.104940   -2.046276    2.780377
      2          1           0       -2.817290   -1.498810    3.271013
      3          1           0       -2.565015   -2.548832    1.975475
      4          1           0       -1.670774   -2.696255    3.451691
      5          6           0       -1.082527   -1.181613    2.071625
      6          1           0       -0.997927   -0.231926    2.601431
      7          6           0       -1.671701   -1.020645    0.647162
      8          6           0        0.282853   -1.900102    2.048371
      9          1           0        0.187533   -2.834319    1.479967
     10          1           0        0.947960   -1.241923    1.488994
     11          8           0       -2.442884   -1.910815    0.262867
     12          6           0        0.826042   -2.111824    3.428695
     13          6           0        1.623827   -1.218039    4.104407
     14          1           0        2.049810   -0.291719    3.739274
     15          6           0        0.540719   -3.191692    4.342974
     16          6           0        1.190029   -2.875159    5.571228
     17          6           0       -0.183138   -4.399819    4.252399
     18          1           0       -0.627401   -4.719234    3.310034
     19          7           0        1.842733   -1.671854    5.387379
     20          1           0        2.411130   -1.207695    6.079552
     21          6           0        0.373342   -4.879941    6.576070
     22          1           0        0.296573   -5.547107    7.429230
     23          6           0        1.114115   -3.708237    6.691111
     24          1           0        1.616709   -3.453139    7.620123
     25          6           0       -0.264788   -5.225879    5.368309
     26          1           0       -0.811369   -6.162123    5.304583
     27          7           0       -1.256879    0.081335    0.010441
     28          1           0       -0.522409    0.602966    0.515992
     29          6           0       -1.171164    0.348552   -1.457504
     30          1           0       -1.466517    1.398217   -1.590087
     31          6           0        0.359004    0.215491   -1.677509
     32          6           0       -2.045358   -0.511769   -2.381071
     33          1           0       -1.830582   -1.564587   -2.176634
     34          8           0        0.897592   -0.860550   -1.892820
     35          6           0       -1.646874   -0.217727   -3.847157
     36          1           0       -1.781161    0.855776   -4.050702
     37          1           0       -0.579746   -0.431962   -3.970724
     38          6           0       -3.537028   -0.234748   -2.135578
     39          1           0       -3.799887    0.787357   -2.439573
     40          1           0       -4.155935   -0.922900   -2.718535
     41          1           0       -3.808885   -0.366663   -1.085716
     42          6           0       -2.426988   -1.037351   -4.881781
     43          1           0       -2.048653   -0.839108   -5.890435
     44          1           0       -3.496232   -0.801637   -4.880315
     45          1           0       -2.319355   -2.112194   -4.692704
     46          7           0        1.044346    1.381081   -1.449049
     47          1           0        0.475610    2.153017   -1.123215
     48          6           0        2.375517    1.345580   -0.855648
     49          1           0        2.848155    0.429751   -1.225359
     50          6           0        2.279729    1.184383    0.698745
     51          6           0        3.188421    2.553416   -1.370146
     52          1           0        3.077628    2.549015   -2.459025
     53          1           0        2.728006    3.491479   -1.024078
     54          8           0        3.374238    1.058911    1.318131
     55          6           0        4.690245    2.547554   -1.014619
     56          1           0        5.273430    2.908081   -1.871716
     57          1           0        5.018144    1.520648   -0.823835
     58          6           0        5.026757    3.426319    0.200638
     59          1           0        4.897303    4.486176   -0.038180
     60          1           0        4.371777    3.193028    1.040758
     61          7           0        6.416646    3.261753    0.659548
     62          1           0        7.136983    3.689108    0.091209
     63          7           0        5.995243    1.393860    1.999782
     64          1           0        6.315407    0.797087    2.749164
     65          1           0        5.001124    1.260462    1.680940
     66          7           0        8.138164    2.256317    1.818629
     67          1           0        8.722967    3.067395    1.691832
     68          1           0        8.519743    1.494264    2.355814
     69          6           0        6.828591    2.289905    1.494354
     70          8           0        1.137374    1.132666    1.223372
 ---------------------------------------------------------------------

 SCF Done:  E(RB3LYP) =  -1582.14860208     A.U. after    1 cycles

 Alpha  occ. eigenvalues --  -19.22635 -19.18653 -19.16999 -19.16968 -14.55965
 Alpha  occ. eigenvalues --  -14.50523 -14.50091 -14.48609 -14.46678 -14.45246
 Alpha  occ. eigenvalues --  -14.42636 -10.46282 -10.39394 -10.36050 -10.35688
 Alpha  occ. eigenvalues --  -10.34990 -10.32983 -10.31241 -10.30503 -10.30314
 Alpha  occ. eigenvalues --  -10.29386 -10.29323 -10.28051 -10.27551 -10.27475
 Alpha  occ. eigenvalues --  -10.27301 -10.27259 -10.27055 -10.26584 -10.26527
 Alpha  occ. eigenvalues --  -10.25357 -10.23615 -10.22948 -10.22367  -1.14823
 Alpha  occ. eigenvalues --   -1.14757  -1.10842  -1.09859  -1.09699  -1.06484
 Alpha  occ. eigenvalues --   -1.04109  -1.02676  -1.02172  -1.01003  -0.99166
 Alpha  occ. eigenvalues --   -0.92398  -0.90574  -0.88803  -0.87804  -0.85548
 Alpha  occ. eigenvalues --   -0.83336  -0.81996  -0.80941  -0.79775  -0.77746
 Alpha  occ. eigenvalues --   -0.76844  -0.75889  -0.74288  -0.72091  -0.70628
 Alpha  occ. eigenvalues --   -0.70234  -0.69770  -0.69317  -0.69205  -0.68363
 Alpha  occ. eigenvalues --   -0.67623  -0.66020  -0.65467  -0.64903  -0.63827
 Alpha  occ. eigenvalues --   -0.62819  -0.62584  -0.61954  -0.61340  -0.60162
 Alpha  occ. eigenvalues --   -0.58679  -0.58217  -0.56842  -0.56651  -0.56468
 Alpha  occ. eigenvalues --   -0.55850  -0.55205  -0.54930  -0.53419  -0.52639
 Alpha  occ. eigenvalues --   -0.52428  -0.51951  -0.51712  -0.51112  -0.50926
 Alpha  occ. eigenvalues --   -0.50244  -0.49747  -0.49601  -0.49355  -0.48881
 Alpha  occ. eigenvalues --   -0.47626  -0.47518  -0.46976  -0.46832  -0.46328
 Alpha  occ. eigenvalues --   -0.46182  -0.45903  -0.45567  -0.44974  -0.43701
 Alpha  occ. eigenvalues --   -0.43496  -0.43243  -0.42415  -0.42140  -0.41724
 Alpha  occ. eigenvalues --   -0.41423  -0.41131  -0.40828  -0.39237  -0.38493
 Alpha  occ. eigenvalues --   -0.38302  -0.37853  -0.37114  -0.36296  -0.35638
 Alpha  occ. eigenvalues --   -0.34759  -0.32687  -0.31390  -0.31265  -0.30801
 Alpha  occ. eigenvalues --   -0.30027  -0.28885
 Alpha virt. eigenvalues --   -0.10244  -0.09938  -0.09238  -0.07190  -0.07051
 Alpha virt. eigenvalues --   -0.05704  -0.04468  -0.02949  -0.02853  -0.02444
 Alpha virt. eigenvalues --   -0.02156  -0.00130   0.00385   0.00595   0.01239

 Mulliken charges:
               1
     1  N   -0.762334
     2  H    0.405419
     3  H    0.417087
     4  H    0.410996
     5  C   -0.114548
     6  H    0.213767
     7  C    0.649762
     8  C   -0.387653
     9  H    0.182115
    10  H    0.231624
    11  O   -0.546169
    12  C    0.027610
    13  C    0.010517
    14  H    0.200092
    15  C    0.056703
    16  C    0.319191
    17  C   -0.257127
    18  H    0.133625
    19  N   -0.686390
    20  H    0.338497
    21  C   -0.150990
    22  H    0.149624
    23  C   -0.155702
    24  H    0.144105
    25  C   -0.133801
    26  H    0.146213
    27  N   -0.639323
    28  H    0.397464
    29  C   -0.050451
    30  H    0.148712
    31  C    0.587073
    32  C   -0.071458
    33  H    0.167503
    34  O   -0.510492
    35  C   -0.274768
    36  H    0.124650
    37  H    0.164967
    38  C   -0.459295
    39  H    0.136609
    40  H    0.162802
    41  H    0.152993
    42  C   -0.453181
    43  H    0.152854
    44  H    0.151799
    45  H    0.151648
    46  N   -0.569161
    47  H    0.322463
    48  C   -0.081590
    49  H    0.194107
    50  C    0.610825
    51  C   -0.281106
    52  H    0.172559
    53  H    0.137646
    54  O   -0.615959
    55  C   -0.258987
    56  H    0.144545
    57  H    0.161172
    58  C   -0.182725
    59  H    0.177969
    60  H    0.206666
    61  N   -0.597692
    62  H    0.354161
    63  N   -0.790662
    64  H    0.357371
    65  H    0.462667
    66  N   -0.772227
    67  H    0.375589
    68  H    0.373797
    69  C    0.813618
    70  O   -0.597383
 Sum of Mulliken charges =   1.00000

 Dipole moment (field-independent basis, Debye):
    X=             16.7089    Y=              4.7092    Z=             13.5276  Tot=             22.0082
 Quadrupole moment (field-independent basis, Debye-Ang):
   XX=            -13.6316   YY=           -158.6781   ZZ=           -132.4998
   XY=             65.8476   XZ=             29.6663   YZ=            -25.5260

 Normal termination of Gaussian 16 at Thu May 26 00:18:16 2022.
