 Gaussian 16, Revision C.01,
 Gaussian 16:  ES64L-G16RevC.01  3-Jul-2019

 -------------------------------------------------------------------
 # B3LYP/6-31G* guess=read geom=check nosymm integral(ultrafinegrid)
 -------------------------------------------------------------------

 ------------------------------------------------------
 Candidate Structure: Conf:879 Charge calc in gas phase
 ------------------------------------------------------
 Structure from the checkpoint file:  "conf-879.chk"
 Charge =  1 Multiplicity = 1

                          Input orientation:
 ---------------------------------------------------------------------
 Center     Atomic      Atomic             Coordinates (Angstroms)
 Number     Number       Type             X           Y           Z
 ---------------------------------------------------------------------
      1          7           0       -1.846711   -3.039914    3.262536
      2          1           0       -2.705276   -2.714033    3.713636
      3          1           0       -2.090232   -3.453984    2.327575
      4          1           0       -1.363685   -3.709900    3.886051
      5          6           0       -0.899096   -1.925183    2.895882
      6          1           0       -1.043426   -1.097353    3.591246
      7          6           0       -1.280397   -1.586244    1.435767
      8          6           0        0.550881   -2.473566    2.989623
      9          1           0        0.696141   -3.215505    2.195310
     10          1           0        1.209755   -1.629157    2.771292
     11          8           0       -1.816764   -2.490420    0.782862
     12          6           0        0.832209   -3.057286    4.341238
     13          6           0        0.906974   -4.397868    4.667643
     14          1           0        0.884152   -5.267865    4.023419
     15          6           0        1.016884   -2.322934    5.571603
     16          6           0        1.195858   -3.281218    6.604006
     17          6           0        1.062664   -0.950689    5.884387
     18          1           0        0.984254   -0.200450    5.100145
     19          7           0        1.123240   -4.533585    6.021947
     20          1           0        1.280447   -5.409071    6.498437
     21          6           0        1.422067   -1.552318    8.223708
     22          1           0        1.576127   -1.228742    9.249030
     23          6           0        1.398141   -2.911487    7.938484
     24          1           0        1.533959   -3.654026    8.719645
     25          6           0        1.261342   -0.584627    7.208922
     26          1           0        1.299412    0.468234    7.474552
     27          7           0       -0.986557   -0.333874    1.057189
     28          1           0       -0.405748    0.178296    1.738044
     29          6           0       -0.682735    0.135019   -0.328044
     30          1           0       -0.942308    1.202139   -0.331512
     31          6           0        0.855655   -0.035887   -0.328474
     32          6           0       -1.449836   -0.536556   -1.477509
     33          1           0       -1.162354   -1.592144   -1.508608
     34          8           0        1.378474   -1.132045   -0.463074
     35          6           0       -1.102891    0.115718   -2.839499
     36          1           0       -1.790039   -0.325109   -3.572396
     37          1           0       -1.364848    1.184208   -2.799101
     38          6           0       -2.968323   -0.427535   -1.254285
     39          1           0       -3.285796    0.622551   -1.210080
     40          1           0       -3.501726   -0.896686   -2.087754
     41          1           0       -3.287372   -0.926569   -0.337432
     42          6           0        0.328626   -0.043456   -3.369167
     43          1           0        0.375309    0.286834   -4.412835
     44          1           0        0.657957   -1.086815   -3.329376
     45          1           0        1.055771    0.554232   -2.810637
     46          7           0        1.540447    1.103156    0.023486
     47          1           0        0.949951    1.890125    0.262805
     48          6           0        2.743612    0.993054    0.845673
     49          1           0        3.133733   -0.011894    0.650390
     50          6           0        2.350347    1.013227    2.366964
     51          6           0        3.834404    1.995871    0.424208
     52          1           0        4.760711    1.711952    0.936414
     53          1           0        4.023376    1.833058   -0.641291
     54          8           0        3.295791    1.230510    3.184833
     55          6           0        3.520380    3.500369    0.667924
     56          1           0        2.525005    3.626274    1.114963
     57          1           0        3.500060    4.042296   -0.283811
     58          6           0        4.540541    4.204076    1.581243
     59          1           0        5.542272    4.159716    1.137655
     60          1           0        4.275716    5.258757    1.709172
     61          7           0        4.560008    3.541619    2.891144
     62          1           0        4.313909    2.528425    2.864908
     63          7           0        4.517235    5.389101    4.324330
     64          1           0        4.194568    5.818374    5.178559
     65          1           0        5.202541    5.891562    3.780508
     66          7           0        3.675723    3.318457    4.995313
     67          1           0        3.355200    2.387512    4.690760
     68          1           0        3.758649    3.530087    5.978751
     69          6           0        4.262035    4.088028    4.065889
     70          8           0        1.157694    0.767093    2.675533
 ---------------------------------------------------------------------

 SCF Done:  E(RB3LYP) =  -1582.15508204     A.U. after    1 cycles

 Alpha  occ. eigenvalues --  -19.23326 -19.19450 -19.18717 -19.18540 -14.56646
 Alpha  occ. eigenvalues --  -14.49387 -14.47372 -14.47156 -14.46635 -14.45950
 Alpha  occ. eigenvalues --  -14.43539 -10.44469 -10.40124 -10.36860 -10.36503
 Alpha  occ. eigenvalues --  -10.36370 -10.33187 -10.31982 -10.31875 -10.30624
 Alpha  occ. eigenvalues --  -10.30272 -10.30195 -10.28681 -10.28390 -10.27387
 Alpha  occ. eigenvalues --  -10.27137 -10.27070 -10.26613 -10.26521 -10.26177
 Alpha  occ. eigenvalues --  -10.26130 -10.24567 -10.23657 -10.22869  -1.15633
 Alpha  occ. eigenvalues --   -1.13099  -1.11875  -1.11078  -1.10604  -1.07045
 Alpha  occ. eigenvalues --   -1.03393  -1.02671  -1.02002  -1.01059  -0.99961
 Alpha  occ. eigenvalues --   -0.92362  -0.91056  -0.88892  -0.88229  -0.85949
 Alpha  occ. eigenvalues --   -0.83366  -0.81899  -0.81308  -0.80111  -0.78248
 Alpha  occ. eigenvalues --   -0.76806  -0.75869  -0.74496  -0.70860  -0.70750
 Alpha  occ. eigenvalues --   -0.70202  -0.69909  -0.69875  -0.69515  -0.67820
 Alpha  occ. eigenvalues --   -0.67349  -0.66822  -0.65921  -0.65423  -0.63306
 Alpha  occ. eigenvalues --   -0.62667  -0.62104  -0.61963  -0.61719  -0.60650
 Alpha  occ. eigenvalues --   -0.59306  -0.58501  -0.58265  -0.57221  -0.56693
 Alpha  occ. eigenvalues --   -0.55720  -0.55142  -0.53985  -0.53142  -0.52991
 Alpha  occ. eigenvalues --   -0.52584  -0.52453  -0.51534  -0.51210  -0.51115
 Alpha  occ. eigenvalues --   -0.50866  -0.50498  -0.50205  -0.49681  -0.49156
 Alpha  occ. eigenvalues --   -0.48752  -0.48521  -0.48410  -0.47456  -0.46957
 Alpha  occ. eigenvalues --   -0.46649  -0.46488  -0.46013  -0.45931  -0.44481
 Alpha  occ. eigenvalues --   -0.43585  -0.43495  -0.42997  -0.42054  -0.41876
 Alpha  occ. eigenvalues --   -0.41636  -0.41460  -0.39953  -0.39518  -0.39066
 Alpha  occ. eigenvalues --   -0.38561  -0.37821  -0.37125  -0.36874  -0.35924
 Alpha  occ. eigenvalues --   -0.35877  -0.34123  -0.32551  -0.32357  -0.31518
 Alpha  occ. eigenvalues --   -0.30966  -0.29476
 Alpha virt. eigenvalues --   -0.10443  -0.09790  -0.09254  -0.07342  -0.05962
 Alpha virt. eigenvalues --   -0.05307  -0.04877  -0.04316  -0.03092  -0.01328
 Alpha virt. eigenvalues --   -0.01120  -0.00777  -0.00399   0.00993   0.01135

 Mulliken charges:
               1
     1  N   -0.743746
     2  H    0.407456
     3  H    0.417718
     4  H    0.387993
     5  C   -0.123288
     6  H    0.214916
     7  C    0.657191
     8  C   -0.380240
     9  H    0.187861
    10  H    0.231335
    11  O   -0.540023
    12  C    0.010136
    13  C   -0.022216
    14  H    0.174376
    15  C    0.076653
    16  C    0.312548
    17  C   -0.220364
    18  H    0.172309
    19  N   -0.679974
    20  H    0.345312
    21  C   -0.144513
    22  H    0.143258
    23  C   -0.159613
    24  H    0.144219
    25  C   -0.145228
    26  H    0.123599
    27  N   -0.628437
    28  H    0.392958
    29  C   -0.054153
    30  H    0.143761
    31  C    0.610656
    32  C   -0.087983
    33  H    0.173545
    34  O   -0.514352
    35  C   -0.264092
    36  H    0.150804
    37  H    0.126786
    38  C   -0.455029
    39  H    0.136832
    40  H    0.158342
    41  H    0.155012
    42  C   -0.457685
    43  H    0.151412
    44  H    0.166565
    45  H    0.145807
    46  N   -0.568482
    47  H    0.322445
    48  C   -0.104064
    49  H    0.206867
    50  C    0.610119
    51  C   -0.289891
    52  H    0.163457
    53  H    0.174385
    54  O   -0.607622
    55  C   -0.282121
    56  H    0.146371
    57  H    0.171057
    58  C   -0.169155
    59  H    0.183179
    60  H    0.161270
    61  N   -0.610193
    62  H    0.420207
    63  N   -0.752282
    64  H    0.370436
    65  H    0.376617
    66  N   -0.776049
    67  H    0.412638
    68  H    0.355586
    69  C    0.767535
    70  O   -0.580734
 Sum of Mulliken charges =   1.00000

 Dipole moment (field-independent basis, Debye):
    X=              6.1132    Y=              4.4434    Z=             20.3905  Tot=             21.7460
 Quadrupole moment (field-independent basis, Debye-Ang):
   XX=           -141.3287   YY=            -80.4743   ZZ=            -84.6073
   XY=             69.1809   XZ=             31.6177   YZ=             -2.6214

 Normal termination of Gaussian 16 at Thu May 26 00:18:18 2022.
