 Gaussian 16, Revision C.01,
 Gaussian 16:  ES64L-G16RevC.01  3-Jul-2019

 -------------------------------------------------------------------
 # B3LYP/6-31G* guess=read geom=check nosymm integral(ultrafinegrid)
 -------------------------------------------------------------------

 ------------------------------------------------------
 Candidate Structure: Conf:156 Charge calc in gas phase
 ------------------------------------------------------
 Structure from the checkpoint file:  "conf-156.chk"
 Charge =  1 Multiplicity = 1

                          Input orientation:
 ---------------------------------------------------------------------
 Center     Atomic      Atomic             Coordinates (Angstroms)
 Number     Number       Type             X           Y           Z
 ---------------------------------------------------------------------
      1          7           0       -2.635158   -3.043995    2.677490
      2          1           0       -3.443783   -2.533523    3.043137
      3          1           0       -2.949282   -3.611166    1.856528
      4          1           0       -2.246148   -3.635022    3.429169
      5          6           0       -1.588916   -2.126171    2.078938
      6          1           0       -1.560665   -1.190087    2.637235
      7          6           0       -2.046058   -1.957072    0.610610
      8          6           0       -0.211865   -2.826598    2.169026
      9          1           0       -0.262217   -3.774390    1.616388
     10          1           0        0.498982   -2.190384    1.638882
     11          8           0       -2.648105   -2.911455    0.098161
     12          6           0        0.222995   -3.027248    3.590215
     13          6           0        0.941084   -2.124567    4.343088
     14          1           0        1.378926   -1.179387    4.031712
     15          6           0       -0.117457   -4.127483    4.461674
     16          6           0        0.420460   -3.816489    5.744874
     17          6           0       -0.804646   -5.349159    4.296089
     18          1           0       -1.163367   -5.662654    3.316034
     19          7           0        1.057745   -2.597690    5.630393
     20          1           0        1.568926   -2.135275    6.367205
     21          6           0       -0.430862   -5.854680    6.650690
     22          1           0       -0.562255   -6.536361    7.485575
     23          6           0        0.271253   -4.668712    6.841958
     24          1           0        0.690710   -4.417422    7.812327
     25          6           0       -0.959103   -6.194755    5.390226
     26          1           0       -1.477505   -7.141313    5.267954
     27          7           0       -1.717490   -0.768468    0.089455
     28          1           0       -1.149838   -0.181866    0.740659
     29          6           0       -1.509529   -0.371991   -1.329469
     30          1           0       -1.847065    0.672481   -1.395428
     31          6           0        0.040703   -0.405555   -1.417846
     32          6           0       -2.253673   -1.182602   -2.400631
     33          1           0       -1.952768   -2.230809   -2.304229
     34          8           0        0.660014   -1.361925   -1.858042
     35          6           0       -1.823732   -0.682776   -3.799716
     36          1           0       -2.111834    0.374765   -3.908327
     37          1           0       -0.731874   -0.725411   -3.868772
     38          6           0       -3.773975   -1.070921   -2.203851
     39          1           0       -4.109682   -0.031635   -2.320951
     40          1           0       -4.305559   -1.676458   -2.943378
     41          1           0       -4.078471   -1.427037   -1.217715
     42          6           0       -2.411791   -1.491056   -4.962648
     43          1           0       -2.001048   -1.144449   -5.917492
     44          1           0       -3.501018   -1.401531   -5.024497
     45          1           0       -2.166832   -2.555217   -4.863945
     46          7           0        0.647121    0.673901   -0.797262
     47          1           0       -0.015338    1.289512   -0.332056
     48          6           0        1.774440    0.414313    0.111365
     49          1           0        2.137672   -0.592184   -0.122164
     50          6           0        1.274909    0.391548    1.607543
     51          6           0        2.934123    1.397318   -0.073399
     52          1           0        2.560667    2.422708    0.070774
     53          1           0        3.647890    1.196109    0.733189
     54          8           0        2.160846    0.217146    2.459788
     55          6           0        3.606907    1.265238   -1.442987
     56          1           0        2.855227    1.416992   -2.231214
     57          1           0        3.977891    0.241060   -1.576754
     58          6           0        4.804030    2.202181   -1.639701
     59          1           0        5.556824    2.026739   -0.866193
     60          1           0        5.297209    2.044250   -2.604820
     61          7           0        4.465146    3.641062   -1.548543
     62          1           0        4.466682    4.056797   -0.625651
     63          7           0        3.662651    3.843797   -3.719578
     64          1           0        3.547833    4.407285   -4.549859
     65          1           0        3.473468    2.854036   -3.791929
     66          7           0        3.929968    5.729459   -2.405030
     67          1           0        4.386266    6.203609   -1.638585
     68          1           0        3.356922    6.288084   -3.021278
     69          6           0        4.013267    4.393995   -2.548341
     70          8           0        0.019279    0.518500    1.788273
 ---------------------------------------------------------------------

 SCF Done:  E(RB3LYP) =  -1582.12037829     A.U. after    2 cycles

 Alpha  occ. eigenvalues --  -19.21170 -19.18951 -19.14877 -19.13776 -14.54909
 Alpha  occ. eigenvalues --  -14.53730 -14.53718 -14.53574 -14.44546 -14.43670
 Alpha  occ. eigenvalues --  -14.41897 -10.50039 -10.37976 -10.36157 -10.35620
 Alpha  occ. eigenvalues --  -10.34278 -10.32405 -10.30800 -10.29529 -10.28629
 Alpha  occ. eigenvalues --  -10.28386 -10.28198 -10.27790 -10.27031 -10.25875
 Alpha  occ. eigenvalues --  -10.25787 -10.25600 -10.25153 -10.25018 -10.24964
 Alpha  occ. eigenvalues --  -10.24900 -10.23878 -10.22752 -10.22718  -1.18422
 Alpha  occ. eigenvalues --   -1.13303  -1.10637  -1.08728  -1.07493  -1.07455
 Alpha  occ. eigenvalues --   -1.06645  -1.04435  -1.01178  -0.99019  -0.98012
 Alpha  occ. eigenvalues --   -0.90807  -0.90663  -0.89036  -0.87267  -0.84527
 Alpha  occ. eigenvalues --   -0.83985  -0.81105  -0.80312  -0.79947  -0.78319
 Alpha  occ. eigenvalues --   -0.77117  -0.76055  -0.75565  -0.74358  -0.72174
 Alpha  occ. eigenvalues --   -0.69863  -0.68802  -0.68630  -0.68458  -0.67993
 Alpha  occ. eigenvalues --   -0.67329  -0.66590  -0.65762  -0.65269  -0.64550
 Alpha  occ. eigenvalues --   -0.63160  -0.61737  -0.61304  -0.60882  -0.60130
 Alpha  occ. eigenvalues --   -0.59880  -0.58846  -0.57046  -0.56550  -0.56008
 Alpha  occ. eigenvalues --   -0.55140  -0.54792  -0.53997  -0.53275  -0.52277
 Alpha  occ. eigenvalues --   -0.51351  -0.50979  -0.50737  -0.50203  -0.50002
 Alpha  occ. eigenvalues --   -0.49710  -0.49355  -0.48704  -0.48114  -0.47873
 Alpha  occ. eigenvalues --   -0.47438  -0.47088  -0.46424  -0.45820  -0.45188
 Alpha  occ. eigenvalues --   -0.45099  -0.44941  -0.44674  -0.44289  -0.43728
 Alpha  occ. eigenvalues --   -0.43424  -0.43180  -0.42453  -0.42006  -0.41735
 Alpha  occ. eigenvalues --   -0.41368  -0.40548  -0.40223  -0.39958  -0.38985
 Alpha  occ. eigenvalues --   -0.38456  -0.37910  -0.35916  -0.35061  -0.34240
 Alpha  occ. eigenvalues --   -0.34089  -0.31144  -0.29976  -0.29446  -0.28983
 Alpha  occ. eigenvalues --   -0.27465  -0.26961
 Alpha virt. eigenvalues --   -0.14061  -0.09817  -0.08444  -0.08048  -0.06077
 Alpha virt. eigenvalues --   -0.05840  -0.05400  -0.04463  -0.04300  -0.04119
 Alpha virt. eigenvalues --   -0.01155  -0.00744   0.00015   0.01418   0.01647

 Mulliken charges:
               1
     1  N   -0.757229
     2  H    0.404731
     3  H    0.411537
     4  H    0.411495
     5  C   -0.123029
     6  H    0.230199
     7  C    0.639341
     8  C   -0.380742
     9  H    0.176217
    10  H    0.212651
    11  O   -0.551048
    12  C    0.004739
    13  C    0.016728
    14  H    0.236341
    15  C    0.058059
    16  C    0.320003
    17  C   -0.258994
    18  H    0.125448
    19  N   -0.688593
    20  H    0.341671
    21  C   -0.152664
    22  H    0.143841
    23  C   -0.156285
    24  H    0.142293
    25  C   -0.133787
    26  H    0.139264
    27  N   -0.648801
    28  H    0.404563
    29  C   -0.047689
    30  H    0.145427
    31  C    0.572452
    32  C   -0.072088
    33  H    0.169102
    34  O   -0.500909
    35  C   -0.269068
    36  H    0.115850
    37  H    0.154020
    38  C   -0.460164
    39  H    0.131025
    40  H    0.159489
    41  H    0.159957
    42  C   -0.451389
    43  H    0.144067
    44  H    0.152518
    45  H    0.155297
    46  N   -0.583411
    47  H    0.320678
    48  C   -0.095549
    49  H    0.182852
    50  C    0.597647
    51  C   -0.266590
    52  H    0.112500
    53  H    0.181365
    54  O   -0.559104
    55  C   -0.279907
    56  H    0.148577
    57  H    0.185742
    58  C   -0.191274
    59  H    0.202524
    60  H    0.184835
    61  N   -0.578900
    62  H    0.372798
    63  N   -0.753445
    64  H    0.386153
    65  H    0.399636
    66  N   -0.760777
    67  H    0.387245
    68  H    0.386123
    69  C    0.822930
    70  O   -0.628494
 Sum of Mulliken charges =   1.00000

 Dipole moment (field-independent basis, Debye):
    X=              9.3091    Y=             12.9848    Z=             -3.6851  Tot=             16.3965
 Quadrupole moment (field-independent basis, Debye-Ang):
   XX=           -116.2911   YY=            -85.4790   ZZ=           -121.2587
   XY=             89.1658   XZ=            -53.7374   YZ=            -83.4141

 Normal termination of Gaussian 16 at Thu May 26 00:18:30 2022.
