 Gaussian 16, Revision C.01,
 Gaussian 16:  ES64L-G16RevC.01  3-Jul-2019

 ----------------------------------------------------------------------
 # B3LYP/6-31G* empiricaldispersion=gd3 guess=read geom=check nosymm in
 tegral(ultrafinegrid)
 ----------------------------------------------------------------------

 ------------------------------------------------------
 Candidate Structure: Conf:669 Charge calc in gas phase
 ------------------------------------------------------
 Structure from the checkpoint file:  "conf-669.chk"
 Charge =  1 Multiplicity = 1

                          Input orientation:
 ---------------------------------------------------------------------
 Center     Atomic      Atomic             Coordinates (Angstroms)
 Number     Number       Type             X           Y           Z
 ---------------------------------------------------------------------
      1          7           0       -7.552635    0.088328    3.702640
      2          1           0       -7.804009   -0.528339    4.479708
      3          1           0       -7.598343    1.081302    4.038415
      4          1           0       -8.184537   -0.092113    2.910708
      5          6           0       -6.101712   -0.052427    3.287944
      6          1           0       -5.785522   -1.086370    3.418301
      7          6           0       -5.359155    0.940761    4.199955
      8          6           0       -5.971896    0.367071    1.810196
      9          1           0       -6.333982    1.396919    1.702621
     10          1           0       -4.901424    0.369315    1.602216
     11          8           0       -5.994837    1.923215    4.613633
     12          6           0       -6.715428   -0.594520    0.914407
     13          6           0       -6.158224   -1.853938    0.640271
     14          1           0       -5.168358   -2.082775    1.030329
     15          6           0       -7.987915   -0.283603    0.413086
     16          1           0       -8.407113    0.708631    0.580159
     17          6           0       -6.866949   -2.779312   -0.123383
     18          1           0       -6.426312   -3.748638   -0.339690
     19          6           0       -8.699505   -1.217690   -0.348758
     20          1           0       -9.680363   -0.962764   -0.740483
     21          6           0       -8.139692   -2.466485   -0.614778
     22          1           0       -8.687249   -3.192549   -1.208972
     23          7           0       -4.085650    0.632448    4.436343
     24          1           0       -3.726720   -0.177536    3.898815
     25          6           0       -3.109121    1.656488    4.773207
     26          1           0       -3.659675    2.482851    5.236389
     27          6           0       -2.556968    2.208964    3.432489
     28          6           0       -2.073365    1.102887    5.824437
     29          1           0       -2.503043    0.176984    6.226579
     30          1           0       -1.992930    1.821036    6.644512
     31          8           0       -3.270598    2.205493    2.421395
     32          8           0       -0.754615    0.895500    5.359424
     33          7           0       -1.313114    2.737956    3.454153
     34          1           0       -0.706013    2.372735    4.193364
     35          6           0       -0.677235    3.240570    2.236874
     36          1           0       -1.467191    3.704432    1.637692
     37          6           0       -0.050936    2.070266    1.448982
     38          6           0        0.375912    4.290474    2.573641
     39          1           0        0.932070    4.532030    1.653170
     40          1           0        1.104471    3.862896    3.277714
     41          8           0        1.176158    1.937400    1.354428
     42          8           0       -0.298904    5.419214    3.101066
     43          1           0        0.352722    5.984006    3.541662
     44          7           0       -0.943992    1.203895    0.914775
     45          1           0       -1.922160    1.386033    1.139925
     46          6           0       -0.585636   -0.206615    0.651903
     47          1           0        0.203339   -0.473686    1.361698
     48          6           0       -0.047801   -0.297797   -0.783235
     49          6           0       -1.792976   -1.101135    0.899405
     50          1           0       -2.609159   -0.845972    0.215991
     51          1           0       -1.523365   -2.139457    0.673093
     52          8           0       -0.727583   -0.616782   -1.749118
     53          6           0       -2.277924   -1.017251    2.361622
     54          8           0       -3.472861   -1.363232    2.581230
     55          8           0       -1.471500   -0.577207    3.220150
     56          7           0        1.270058    0.083233   -0.876693
     57          1           0        1.647283    0.554235   -0.054276
     58          6           0        1.836380    0.408000   -2.162412
     59          1           0        1.144210   -0.023525   -2.898724
     60          6           0        3.199140   -0.240920   -2.408498
     61          6           0        1.957847    1.924021   -2.386070
     62          1           0        2.345708    2.073728   -3.399700
     63          1           0        2.712573    2.306866   -1.679597
     64          8           0        4.149784    0.357099   -2.874943
     65          6           0        0.642468    2.674440   -2.177632
     66          1           0        0.284708    2.507803   -1.157005
     67          1           0       -0.132514    2.282963   -2.848823
     68          6           0        0.788006    4.185626   -2.364358
     69          1           0       -0.152413    4.699036   -2.143433
     70          1           0        1.543819    4.600412   -1.689628
     71          7           0        1.158005    4.584434   -3.742064
     72          1           0        0.410079    4.586185   -4.424720
     73          7           0        3.472510    4.624417   -3.473486
     74          1           0        4.364704    5.017553   -3.737167
     75          1           0        3.487689    3.843436   -2.830655
     76          7           0        2.506683    5.528030   -5.370715
     77          1           0        1.722012    5.984825   -5.813015
     78          1           0        3.381458    5.517574   -5.875491
     79          6           0        2.374487    4.894495   -4.190985
     80          8           0        3.215705   -1.544127   -2.098851
     81          1           0       -0.830210    0.240192    4.613370
     82          1           0        4.107573   -1.878600   -2.314006
 ---------------------------------------------------------------------

 SCF Done:  E(RB3LYP) =  -2166.38018730     A.U. after    1 cycles

 Alpha  occ. eigenvalues --  -19.27334 -19.21980 -19.21065 -19.20416 -19.19644
 Alpha  occ. eigenvalues --  -19.18993 -19.18467 -19.18282 -19.14155 -19.14126
 Alpha  occ. eigenvalues --  -14.55065 -14.53640 -14.53622 -14.53125 -14.42381
 Alpha  occ. eigenvalues --  -14.42262 -14.41936 -14.41858 -10.49880 -10.39992
 Alpha  occ. eigenvalues --  -10.36953 -10.36310 -10.35988 -10.35433 -10.34968
 Alpha  occ. eigenvalues --  -10.34137 -10.32323 -10.31891 -10.30333 -10.30047
 Alpha  occ. eigenvalues --  -10.29710 -10.29517 -10.29510 -10.28961 -10.28908
 Alpha  occ. eigenvalues --  -10.27367 -10.27073 -10.26498 -10.26104 -10.25713
 Alpha  occ. eigenvalues --  -10.25642 -10.25069 -10.23486  -1.18482  -1.18229
 Alpha  occ. eigenvalues --   -1.12856  -1.11261  -1.10189  -1.09897  -1.09443
 Alpha  occ. eigenvalues --   -1.08602  -1.08471  -1.07620  -1.07421  -1.06348
 Alpha  occ. eigenvalues --   -1.06307  -1.00004  -0.99845  -0.99171  -0.98455
 Alpha  occ. eigenvalues --   -0.97968  -0.92773  -0.91458  -0.87752  -0.86338
 Alpha  occ. eigenvalues --   -0.84485  -0.82790  -0.81839  -0.81236  -0.81163
 Alpha  occ. eigenvalues --   -0.79496  -0.78678  -0.75726  -0.73964  -0.73330
 Alpha  occ. eigenvalues --   -0.72912  -0.71116  -0.71001  -0.69718  -0.68833
 Alpha  occ. eigenvalues --   -0.68511  -0.67698  -0.67139  -0.66869  -0.66649
 Alpha  occ. eigenvalues --   -0.66225  -0.65208  -0.64809  -0.64263  -0.64030
 Alpha  occ. eigenvalues --   -0.61607  -0.61337  -0.60117  -0.59821  -0.59373
 Alpha  occ. eigenvalues --   -0.58178  -0.58052  -0.57541  -0.56907  -0.56631
 Alpha  occ. eigenvalues --   -0.56389  -0.55833  -0.55422  -0.55038  -0.54495
 Alpha  occ. eigenvalues --   -0.53850  -0.53380  -0.52872  -0.52598  -0.51969
 Alpha  occ. eigenvalues --   -0.51741  -0.51430  -0.50579  -0.50102  -0.49693
 Alpha  occ. eigenvalues --   -0.49539  -0.48936  -0.48811  -0.48381  -0.48256
 Alpha  occ. eigenvalues --   -0.47898  -0.47743  -0.47370  -0.47179  -0.47025
 Alpha  occ. eigenvalues --   -0.46813  -0.46517  -0.46001  -0.45681  -0.45505
 Alpha  occ. eigenvalues --   -0.45095  -0.44696  -0.44513  -0.44180  -0.43734
 Alpha  occ. eigenvalues --   -0.43593  -0.42881  -0.42477  -0.41775  -0.41236
 Alpha  occ. eigenvalues --   -0.40902  -0.40450  -0.40130  -0.39991  -0.39578
 Alpha  occ. eigenvalues --   -0.38178  -0.36292  -0.35220  -0.35122  -0.34584
 Alpha  occ. eigenvalues --   -0.33523  -0.33413  -0.32741  -0.32361  -0.32145
 Alpha  occ. eigenvalues --   -0.31817  -0.31372  -0.30988  -0.30502  -0.29716
 Alpha  occ. eigenvalues --   -0.29027  -0.28181
 Alpha virt. eigenvalues --   -0.14191  -0.09497  -0.08301  -0.07788  -0.07248
 Alpha virt. eigenvalues --   -0.06606  -0.05542  -0.05450  -0.05037  -0.04876
 Alpha virt. eigenvalues --   -0.04437  -0.03985  -0.03806  -0.01126   0.00233

 Mulliken charges:
               1
     1  N   -0.744812
     2  H    0.407759
     3  H    0.412736
     4  H    0.397652
     5  C   -0.128652
     6  H    0.234166
     7  C    0.639537
     8  C   -0.368675
     9  H    0.167859
    10  H    0.234363
    11  O   -0.555381
    12  C    0.123010
    13  C   -0.190502
    14  H    0.194860
    15  C   -0.229874
    16  H    0.129984
    17  C   -0.130771
    18  H    0.151866
    19  C   -0.127184
    20  H    0.145791
    21  C   -0.126979
    22  H    0.148344
    23  N   -0.606918
    24  H    0.410048
    25  C   -0.114493
    26  H    0.207819
    27  C    0.638802
    28  C   -0.050179
    29  H    0.163103
    30  H    0.156559
    31  O   -0.565760
    32  O   -0.649781
    33  N   -0.586913
    34  H    0.373014
    35  C   -0.086033
    36  H    0.186049
    37  C    0.628374
    38  C   -0.027021
    39  H    0.114151
    40  H    0.151989
    41  O   -0.562700
    42  O   -0.613950
    43  H    0.402493
    44  N   -0.616661
    45  H    0.379025
    46  C   -0.054406
    47  H    0.191750
    48  C    0.622922
    49  C   -0.402265
    50  H    0.169857
    51  H    0.181455
    52  O   -0.520813
    53  C    0.624683
    54  O   -0.613453
    55  O   -0.611834
    56  N   -0.608197
    57  H    0.368555
    58  C   -0.066193
    59  H    0.213561
    60  C    0.600837
    61  C   -0.301008
    62  H    0.146700
    63  H    0.151068
    64  O   -0.486102
    65  C   -0.274667
    66  H    0.201549
    67  H    0.170770
    68  C   -0.190323
    69  H    0.199923
    70  H    0.191538
    71  N   -0.580861
    72  H    0.367436
    73  N   -0.748494
    74  H    0.383752
    75  H    0.405678
    76  N   -0.758874
    77  H    0.384983
    78  H    0.386679
    79  C    0.807346
    80  O   -0.540942
    81  H    0.448693
    82  H    0.422578
 Sum of Mulliken charges =   1.00000

 Dipole moment (field-independent basis, Debye):
    X=             -4.6693    Y=             18.7197    Z=            -12.1894  Tot=             22.8213
 Quadrupole moment (field-independent basis, Debye-Ang):
   XX=            -76.1832   YY=           -139.8229   ZZ=           -145.3405
   XY=             60.8392   XZ=            -88.5800   YZ=            -87.8011

 Normal termination of Gaussian 16 at Tue May 17 05:37:17 2022.
