 Gaussian 16, Revision C.01,
 Gaussian 16:  ES64L-G16RevC.01  3-Jul-2019

 ----------------------------------------------------------------------
 # B3LYP/6-31G* empiricaldispersion=gd3 guess=read geom=check nosymm in
 tegral(ultrafinegrid)
 ----------------------------------------------------------------------

 ------------------------------------------------------
 Candidate Structure: Conf:231 Charge calc in gas phase
 ------------------------------------------------------
 Structure from the checkpoint file:  "conf-231.chk"
 Charge =  1 Multiplicity = 1

                          Input orientation:
 ---------------------------------------------------------------------
 Center     Atomic      Atomic             Coordinates (Angstroms)
 Number     Number       Type             X           Y           Z
 ---------------------------------------------------------------------
      1          7           0       -5.720866   -2.697494   -3.946791
      2          1           0       -5.040292   -3.377215   -4.296947
      3          1           0       -5.978468   -2.971796   -2.955676
      4          1           0       -6.528848   -2.671745   -4.584886
      5          6           0       -5.122987   -1.325648   -3.742906
      6          1           0       -4.263867   -1.223986   -4.409077
      7          6           0       -4.725850   -1.346774   -2.245675
      8          6           0       -6.185301   -0.243379   -4.042672
      9          1           0       -6.952231   -0.284052   -3.260102
     10          1           0       -5.686209    0.727005   -3.948623
     11          8           0       -5.279588   -2.197810   -1.530987
     12          6           0       -6.802422   -0.422528   -5.412223
     13          6           0       -6.090563   -0.072428   -6.568765
     14          1           0       -5.114608    0.400408   -6.479356
     15          6           0       -8.064071   -1.023243   -5.545974
     16          1           0       -8.644389   -1.265249   -4.656805
     17          6           0       -6.630923   -0.312224   -7.831151
     18          1           0       -6.074974   -0.026611   -8.719292
     19          6           0       -8.604025   -1.268290   -6.813052
     20          1           0       -9.586328   -1.722605   -6.902081
     21          6           0       -7.887055   -0.914597   -7.955673
     22          1           0       -8.306097   -1.098977   -8.940185
     23          7           0       -3.864895   -0.420465   -1.846734
     24          1           0       -3.460804    0.244120   -2.501176
     25          6           0       -3.277141   -0.380327   -0.516467
     26          1           0       -4.048395   -0.531013    0.241841
     27          6           0       -2.565964    0.939980   -0.350890
     28          6           0       -2.186815   -1.561062   -0.321812
     29          1           0       -1.526729   -1.468020   -1.216292
     30          1           0       -2.778725   -2.487167   -0.448291
     31          8           0       -2.483102    1.758692   -1.313957
     32          8           0       -1.550480   -1.468139    0.865482
     33          7           0       -1.968592    1.076211    0.838010
     34          1           0       -1.887410    0.134563    1.314324
     35          6           0       -0.802533    1.943276    0.988855
     36          1           0       -0.996588    2.900004    0.501001
     37          6           0        0.472616    1.363396    0.317853
     38          6           0       -0.533539    2.216419    2.467671
     39          1           0       -1.404357    2.736263    2.898453
     40          1           0        0.342123    2.879429    2.533750
     41          8           0        1.383464    2.147805    0.004503
     42          8           0       -0.307619    0.963208    3.086995
     43          1           0       -0.171316    1.101164    4.035832
     44          7           0        0.491340    0.039426    0.135322
     45          1           0       -0.289649   -0.588654    0.510422
     46          6           0        1.659331   -0.634956   -0.415466
     47          1           0        2.542913   -0.361629    0.173303
     48          6           0        1.830012   -0.198379   -1.883715
     49          6           0        1.453967   -2.155007   -0.388516
     50          1           0        0.627489   -2.425601   -1.049704
     51          1           0        2.348874   -2.641085   -0.796390
     52          8           0        1.002014   -0.497621   -2.743191
     53          6           0        1.178028   -2.797309    0.959291
     54          8           0        0.791064   -3.934438    1.088151
     55          8           0        1.472696   -1.984508    1.999798
     56          7           0        2.937731    0.547456   -2.135980
     57          1           0        3.476033    0.885604   -1.348367
     58          6           0        3.150543    1.230204   -3.395792
     59          1           0        2.626804    0.669841   -4.173755
     60          6           0        4.643670    1.261830   -3.691365
     61          6           0        2.628389    2.690846   -3.343926
     62          1           0        2.927119    3.215131   -4.258886
     63          1           0        3.140023    3.182407   -2.506260
     64          8           0        5.511385    1.185017   -2.852397
     65          6           0        1.106855    2.759055   -3.140650
     66          1           0        0.779991    1.897989   -2.558224
     67          1           0        0.586296    2.707831   -4.104191
     68          6           0        0.681343    4.011701   -2.376597
     69          1           0        1.279998    4.097348   -1.463483
     70          1           0        0.808730    4.910344   -2.994513
     71          7           0       -0.732658    3.881096   -1.999821
     72          1           0       -1.109427    2.933083   -1.878397
     73          7           0       -1.021689    6.099225   -1.343605
     74          1           0       -1.651482    6.866662   -1.162727
     75          1           0       -0.072280    6.329679   -1.594048
     76          7           0       -2.762790    4.563450   -1.144586
     77          1           0       -3.002932    3.566789   -1.119826
     78          1           0       -3.235083    5.170386   -0.489564
     79          6           0       -1.488667    4.843871   -1.492459
     80          8           0        4.879576    1.459498   -5.006536
     81          1           0        1.207978   -2.466953    2.804901
     82          1           0        5.848132    1.519644   -5.115954
 ---------------------------------------------------------------------

 SCF Done:  E(RB3LYP) =  -2166.35520513     A.U. after    1 cycles

 Alpha  occ. eigenvalues --  -19.26677 -19.24617 -19.22864 -19.22211 -19.21322
 Alpha  occ. eigenvalues --  -19.20947 -19.17514 -19.17185 -19.16639 -19.11260
 Alpha  occ. eigenvalues --  -14.58352 -14.50125 -14.48210 -14.48209 -14.47976
 Alpha  occ. eigenvalues --  -14.42613 -14.42290 -14.39502 -10.45302 -10.41542
 Alpha  occ. eigenvalues --  -10.39557 -10.38938 -10.37614 -10.35502 -10.34661
 Alpha  occ. eigenvalues --  -10.34132 -10.33533 -10.32539 -10.31945 -10.30875
 Alpha  occ. eigenvalues --  -10.30802 -10.30715 -10.30647 -10.30465 -10.30411
 Alpha  occ. eigenvalues --  -10.30125 -10.30074 -10.29775 -10.28870 -10.27403
 Alpha  occ. eigenvalues --  -10.27282 -10.27154 -10.24786  -1.17506  -1.17295
 Alpha  occ. eigenvalues --   -1.14098  -1.13608  -1.12659  -1.12127  -1.09723
 Alpha  occ. eigenvalues --   -1.09082  -1.08613  -1.08099  -1.04555  -1.04397
 Alpha  occ. eigenvalues --   -1.03175  -1.02175  -1.01372  -0.99175  -0.98006
 Alpha  occ. eigenvalues --   -0.97404  -0.96628  -0.92441  -0.88686  -0.86851
 Alpha  occ. eigenvalues --   -0.85721  -0.85309  -0.84133  -0.82751  -0.81276
 Alpha  occ. eigenvalues --   -0.78421  -0.77949  -0.75401  -0.73969  -0.72797
 Alpha  occ. eigenvalues --   -0.72358  -0.71526  -0.71442  -0.71096  -0.70778
 Alpha  occ. eigenvalues --   -0.69868  -0.69143  -0.68003  -0.67388  -0.66415
 Alpha  occ. eigenvalues --   -0.66174  -0.64851  -0.64769  -0.63975  -0.62793
 Alpha  occ. eigenvalues --   -0.62482  -0.62273  -0.61956  -0.61654  -0.59970
 Alpha  occ. eigenvalues --   -0.58963  -0.58516  -0.57802  -0.57465  -0.57072
 Alpha  occ. eigenvalues --   -0.56832  -0.56447  -0.55993  -0.55767  -0.55388
 Alpha  occ. eigenvalues --   -0.54918  -0.54450  -0.54163  -0.53270  -0.53209
 Alpha  occ. eigenvalues --   -0.53019  -0.52508  -0.52344  -0.51702  -0.51325
 Alpha  occ. eigenvalues --   -0.50740  -0.50560  -0.50331  -0.50118  -0.49868
 Alpha  occ. eigenvalues --   -0.49271  -0.48914  -0.48501  -0.48145  -0.47242
 Alpha  occ. eigenvalues --   -0.47186  -0.46608  -0.46527  -0.45938  -0.45518
 Alpha  occ. eigenvalues --   -0.45315  -0.45281  -0.44464  -0.44049  -0.43837
 Alpha  occ. eigenvalues --   -0.43550  -0.42895  -0.42578  -0.41892  -0.41712
 Alpha  occ. eigenvalues --   -0.41283  -0.40870  -0.40613  -0.40118  -0.39439
 Alpha  occ. eigenvalues --   -0.38679  -0.38038  -0.37677  -0.36504  -0.36287
 Alpha  occ. eigenvalues --   -0.35962  -0.35643  -0.34744  -0.34674  -0.33880
 Alpha  occ. eigenvalues --   -0.32505  -0.32255  -0.30517  -0.30195  -0.29530
 Alpha  occ. eigenvalues --   -0.26408  -0.25673
 Alpha virt. eigenvalues --   -0.12512  -0.12023  -0.09810  -0.09575  -0.08783
 Alpha virt. eigenvalues --   -0.07911  -0.06076  -0.05694  -0.04363  -0.04011
 Alpha virt. eigenvalues --   -0.03323  -0.02103  -0.01982  -0.01828  -0.01339

 Mulliken charges:
               1
     1  N   -0.750449
     2  H    0.416499
     3  H    0.427518
     4  H    0.402930
     5  C   -0.115943
     6  H    0.209653
     7  C    0.663930
     8  C   -0.378924
     9  H    0.193886
    10  H    0.196534
    11  O   -0.541979
    12  C    0.139179
    13  C   -0.180761
    14  H    0.141264
    15  C   -0.228896
    16  H    0.152218
    17  C   -0.122896
    18  H    0.164972
    19  C   -0.120379
    20  H    0.167206
    21  C   -0.124585
    22  H    0.168095
    23  N   -0.600439
    24  H    0.355633
    25  C   -0.104677
    26  H    0.201810
    27  C    0.614034
    28  C    0.018370
    29  H    0.085283
    30  H    0.125639
    31  O   -0.644966
    32  O   -0.654001
    33  N   -0.593553
    34  H    0.404341
    35  C   -0.087075
    36  H    0.133029
    37  C    0.635908
    38  C   -0.031063
    39  H    0.129560
    40  H    0.151451
    41  O   -0.600390
    42  O   -0.606082
    43  H    0.407730
    44  N   -0.640731
    45  H    0.437117
    46  C   -0.022613
    47  H    0.166761
    48  C    0.632594
    49  C   -0.407593
    50  H    0.212762
    51  H    0.187940
    52  O   -0.560866
    53  C    0.614986
    54  O   -0.465994
    55  O   -0.563867
    56  N   -0.570442
    57  H    0.353067
    58  C   -0.059297
    59  H    0.200106
    60  C    0.586458
    61  C   -0.277490
    62  H    0.165366
    63  H    0.161586
    64  O   -0.453486
    65  C   -0.306846
    66  H    0.202770
    67  H    0.152288
    68  C   -0.146401
    69  H    0.211567
    70  H    0.150528
    71  N   -0.626403
    72  H    0.416432
    73  N   -0.768579
    74  H    0.373524
    75  H    0.385502
    76  N   -0.781106
    77  H    0.406607
    78  H    0.356081
    79  C    0.790109
    80  O   -0.566645
    81  H    0.413311
    82  H    0.421282
 Sum of Mulliken charges =   1.00000

 Dipole moment (field-independent basis, Debye):
    X=            -20.7001    Y=             12.5727    Z=            -19.7915  Tot=             31.2773
 Quadrupole moment (field-independent basis, Debye-Ang):
   XX=           -102.7837   YY=           -153.0334   ZZ=           -124.8719
   XY=             21.0957   XZ=             96.3372   YZ=             18.9885

 Normal termination of Gaussian 16 at Tue May 17 05:37:17 2022.
