 Gaussian 16, Revision C.01,
 Gaussian 16:  ES64L-G16RevC.01  3-Jul-2019

 ----------------------------------------------------------------------
 # B3LYP/6-31G* empiricaldispersion=gd3 guess=read geom=check nosymm in
 tegral(ultrafinegrid)
 ----------------------------------------------------------------------

 -----------------------------------------------------
 Candidate Structure: Conf:90 Charge calc in gas phase
 -----------------------------------------------------
 Structure from the checkpoint file:  "conf-90.chk"
 Charge =  1 Multiplicity = 1

                          Input orientation:
 ---------------------------------------------------------------------
 Center     Atomic      Atomic             Coordinates (Angstroms)
 Number     Number       Type             X           Y           Z
 ---------------------------------------------------------------------
      1          7           0       -6.613216   -0.655115    5.595340
      2          1           0       -5.997129   -0.758985    6.405552
      3          1           0       -7.023261    0.326072    5.610621
      4          1           0       -7.325615   -1.398561    5.624552
      5          6           0       -5.861956   -0.648375    4.283999
      6          1           0       -4.895439   -1.131698    4.438519
      7          6           0       -5.727411    0.864927    3.966585
      8          6           0       -6.679186   -1.391415    3.201987
      9          1           0       -7.569996   -0.795900    2.967982
     10          1           0       -6.063832   -1.411780    2.296121
     11          8           0       -6.460903    1.640988    4.605929
     12          6           0       -7.064281   -2.784364    3.648833
     13          6           0       -6.116393   -3.818355    3.660473
     14          1           0       -5.115775   -3.637697    3.272952
     15          6           0       -8.354433   -3.038368    4.141325
     16          1           0       -9.112333   -2.256972    4.100020
     17          6           0       -6.452999   -5.079595    4.149685
     18          1           0       -5.714034   -5.875499    4.142592
     19          6           0       -8.690146   -4.302994    4.637287
     20          1           0       -9.695241   -4.489621    5.004083
     21          6           0       -7.739116   -5.322956    4.643480
     22          1           0       -7.998454   -6.306954    5.022382
     23          7           0       -4.867628    1.167917    3.012575
     24          1           0       -4.345381    0.457744    2.479305
     25          6           0       -4.587218    2.493074    2.461548
     26          1           0       -5.514043    2.958374    2.110185
     27          6           0       -3.625187    2.219531    1.278250
     28          6           0       -3.949318    3.438413    3.514661
     29          1           0       -3.026927    2.955667    3.885726
     30          1           0       -4.640923    3.536050    4.357584
     31          8           0       -3.344900    0.998996    1.036615
     32          8           0       -3.720993    4.718632    2.992759
     33          7           0       -3.158590    3.297659    0.688955
     34          1           0       -3.287111    4.561267    2.119782
     35          6           0       -2.219673    3.134251   -0.406609
     36          1           0       -2.582311    2.318800   -1.071560
     37          6           0       -0.773117    2.721582   -0.070695
     38          6           0       -2.230926    4.458917   -1.172413
     39          1           0       -1.657125    4.413195   -2.099460
     40          1           0       -1.804610    5.251776   -0.548262
     41          8           0        0.190903    3.288473   -0.596065
     42          8           0       -3.593086    4.767217   -1.513163
     43          1           0       -4.080899    4.549745   -0.687338
     44          7           0       -0.654805    1.652070    0.750253
     45          1           0       -1.517876    1.123138    0.921069
     46          6           0        0.625210    0.966724    0.893215
     47          1           0        1.402668    1.718935    1.042625
     48          6           0        0.871646    0.166614   -0.402873
     49          6           0        0.540103    0.023299    2.094336
     50          1           0        0.211274    0.581678    2.978767
     51          1           0       -0.211771   -0.747746    1.895920
     52          8           0        0.237673   -0.862511   -0.625539
     53          6           0        1.816402   -0.705456    2.465755
     54          8           0        1.883696   -1.558977    3.318909
     55          8           0        2.885255   -0.289554    1.742997
     56          7           0        1.768610    0.698411   -1.278229
     57          1           0        2.121759    1.629511   -1.099057
     58          6           0        1.931497    0.134507   -2.603344
     59          1           0        1.526217   -0.879902   -2.553367
     60          6           0        3.389157    0.011333   -3.037867
     61          6           0        1.172962    0.921712   -3.705498
     62          1           0        1.247731    0.343410   -4.633031
     63          1           0        1.683106    1.878932   -3.882591
     64          8           0        3.724433   -0.531866   -4.065799
     65          6           0       -0.282307    1.201594   -3.319222
     66          1           0       -0.273119    1.905843   -2.482092
     67          1           0       -0.773049    0.283021   -2.976702
     68          6           0       -1.067086    1.828110   -4.473953
     69          1           0       -0.487282    2.638784   -4.934112
     70          1           0       -1.272902    1.073501   -5.245163
     71          7           0       -2.334191    2.384647   -3.968240
     72          1           0       -2.508336    2.308478   -2.971809
     73          7           0       -3.076533    3.181875   -6.012546
     74          1           0       -3.615819    3.832991   -6.562610
     75          1           0       -2.501863    2.518372   -6.509450
     76          7           0       -4.116387    3.858467   -4.039588
     77          1           0       -4.017575    4.118799   -3.032855
     78          1           0       -4.808763    4.360696   -4.576594
     79          6           0       -3.181184    3.148109   -4.669717
     80          8           0        4.251560    0.618675   -2.194549
     81          1           0        3.650767   -0.815788    2.043899
     82          1           0        5.141891    0.509953   -2.581888
 ---------------------------------------------------------------------

 SCF Done:  E(RB3LYP) =  -2166.35937610     A.U. after    1 cycles

 Alpha  occ. eigenvalues --  -19.26708 -19.25838 -19.24031 -19.23881 -19.20591
 Alpha  occ. eigenvalues --  -19.19544 -19.18668 -19.18088 -19.17926 -19.17740
 Alpha  occ. eigenvalues --  -14.57603 -14.50610 -14.49654 -14.48139 -14.46182
 Alpha  occ. eigenvalues --  -14.42850 -14.41807 -14.36783 -10.46080 -10.40756
 Alpha  occ. eigenvalues --  -10.38933 -10.38668 -10.38243 -10.35350 -10.35282
 Alpha  occ. eigenvalues --  -10.34249 -10.33506 -10.32619 -10.31160 -10.31094
 Alpha  occ. eigenvalues --  -10.30628 -10.30217 -10.30115 -10.30005 -10.29621
 Alpha  occ. eigenvalues --  -10.29599 -10.29441 -10.29307 -10.29058 -10.28916
 Alpha  occ. eigenvalues --  -10.28089 -10.27739 -10.26852  -1.17453  -1.16443
 Alpha  occ. eigenvalues --   -1.16436  -1.14558  -1.11482  -1.10968  -1.10498
 Alpha  occ. eigenvalues --   -1.09708  -1.08530  -1.08403  -1.07403  -1.05791
 Alpha  occ. eigenvalues --   -1.03928  -1.02714  -1.02384  -0.99621  -0.98978
 Alpha  occ. eigenvalues --   -0.96606  -0.94819  -0.91591  -0.89505  -0.86231
 Alpha  occ. eigenvalues --   -0.85790  -0.84944  -0.84022  -0.83158  -0.80650
 Alpha  occ. eigenvalues --   -0.78660  -0.77726  -0.76398  -0.75172  -0.72454
 Alpha  occ. eigenvalues --   -0.72325  -0.71967  -0.71326  -0.70951  -0.70478
 Alpha  occ. eigenvalues --   -0.69785  -0.69097  -0.68534  -0.68269  -0.66953
 Alpha  occ. eigenvalues --   -0.66768  -0.65518  -0.64504  -0.63621  -0.63332
 Alpha  occ. eigenvalues --   -0.62847  -0.61689  -0.61003  -0.60675  -0.59744
 Alpha  occ. eigenvalues --   -0.59623  -0.58461  -0.57952  -0.57391  -0.57072
 Alpha  occ. eigenvalues --   -0.56928  -0.56284  -0.56054  -0.55184  -0.55056
 Alpha  occ. eigenvalues --   -0.54720  -0.54657  -0.54398  -0.53710  -0.53147
 Alpha  occ. eigenvalues --   -0.52688  -0.52536  -0.52391  -0.52249  -0.51723
 Alpha  occ. eigenvalues --   -0.51505  -0.51451  -0.50367  -0.50157  -0.49722
 Alpha  occ. eigenvalues --   -0.49622  -0.49305  -0.48437  -0.48073  -0.47604
 Alpha  occ. eigenvalues --   -0.47275  -0.46832  -0.46443  -0.46237  -0.46010
 Alpha  occ. eigenvalues --   -0.45839  -0.45087  -0.44956  -0.44838  -0.44605
 Alpha  occ. eigenvalues --   -0.44517  -0.43720  -0.43271  -0.43028  -0.42499
 Alpha  occ. eigenvalues --   -0.42411  -0.42145  -0.41047  -0.39957  -0.38807
 Alpha  occ. eigenvalues --   -0.38532  -0.38353  -0.37492  -0.36575  -0.35982
 Alpha  occ. eigenvalues --   -0.35750  -0.35270  -0.35181  -0.34368  -0.34053
 Alpha  occ. eigenvalues --   -0.33218  -0.32462  -0.31972  -0.31707  -0.30878
 Alpha  occ. eigenvalues --   -0.30489  -0.28948
 Alpha virt. eigenvalues --   -0.11698  -0.11342  -0.09980  -0.08881  -0.08233
 Alpha virt. eigenvalues --   -0.06647  -0.05984  -0.05841  -0.04733  -0.04318
 Alpha virt. eigenvalues --   -0.03393  -0.03001  -0.02732  -0.01514  -0.01223

 Mulliken charges:
               1
     1  N   -0.753588
     2  H    0.412417
     3  H    0.425289
     4  H    0.401425
     5  C   -0.110680
     6  H    0.210881
     7  C    0.659442
     8  C   -0.386028
     9  H    0.189582
    10  H    0.209961
    11  O   -0.552115
    12  C    0.142527
    13  C   -0.182339
    14  H    0.149080
    15  C   -0.230552
    16  H    0.149057
    17  C   -0.123389
    18  H    0.165776
    19  C   -0.121216
    20  H    0.164039
    21  C   -0.125107
    22  H    0.165809
    23  N   -0.622515
    24  H    0.369772
    25  C   -0.060831
    26  H    0.180243
    27  C    0.559893
    28  C   -0.010118
    29  H    0.109398
    30  H    0.161998
    31  O   -0.641097
    32  O   -0.631680
    33  N   -0.596342
    34  H    0.407959
    35  C   -0.112320
    36  H    0.126961
    37  C    0.629070
    38  C   -0.038922
    39  H    0.142410
    40  H    0.178815
    41  O   -0.556317
    42  O   -0.655701
    43  H    0.420666
    44  N   -0.626499
    45  H    0.391564
    46  C   -0.032700
    47  H    0.180644
    48  C    0.635203
    49  C   -0.394556
    50  H    0.190957
    51  H    0.205651
    52  O   -0.542688
    53  C    0.602684
    54  O   -0.460256
    55  O   -0.568036
    56  N   -0.585902
    57  H    0.356033
    58  C   -0.067533
    59  H    0.219401
    60  C    0.592235
    61  C   -0.280083
    62  H    0.176570
    63  H    0.154170
    64  O   -0.456146
    65  C   -0.347893
    66  H    0.191300
    67  H    0.187891
    68  C   -0.132958
    69  H    0.180823
    70  H    0.170004
    71  N   -0.635407
    72  H    0.388061
    73  N   -0.764495
    74  H    0.376839
    75  H    0.384299
    76  N   -0.794805
    77  H    0.430275
    78  H    0.359903
    79  C    0.815695
    80  O   -0.561334
    81  H    0.418338
    82  H    0.421135
 Sum of Mulliken charges =   1.00000

 Dipole moment (field-independent basis, Debye):
    X=            -24.3072    Y=              0.1523    Z=             -0.9148  Tot=             24.3249
 Quadrupole moment (field-independent basis, Debye-Ang):
   XX=            -64.7658   YY=           -229.5358   ZZ=            -78.3581
   XY=             33.1659   XZ=            -54.8731   YZ=            -97.2538

 Normal termination of Gaussian 16 at Tue May 17 05:37:13 2022.
