 Gaussian 16, Revision C.01,
 Gaussian 16:  ES64L-G16RevC.01  3-Jul-2019

 ----------------------------------------------------------------------
 # B3LYP/6-31G* empiricaldispersion=gd3 guess=read geom=check nosymm in
 tegral(ultrafinegrid)
 ----------------------------------------------------------------------

 ------------------------------------------------------
 Candidate Structure: Conf:112 Charge calc in gas phase
 ------------------------------------------------------
 Structure from the checkpoint file:  "conf-112.chk"
 Charge =  1 Multiplicity = 1

                          Input orientation:
 ---------------------------------------------------------------------
 Center     Atomic      Atomic             Coordinates (Angstroms)
 Number     Number       Type             X           Y           Z
 ---------------------------------------------------------------------
      1          7           0       -7.538187    2.530619    2.400654
      2          1           0       -5.929842    2.418436    3.462569
      3          1           0       -7.472084    3.548256    2.487884
      4          1           0       -8.491079    2.292213    2.672243
      5          6           0       -7.333519    2.161020    0.981355
      6          1           0       -7.670234    1.119560    0.886398
      7          6           0       -5.813780    2.180769    0.752236
      8          6           0       -8.095788    3.017590   -0.045496
      9          1           0       -7.713855    4.043543    0.008790
     10          1           0       -7.857242    2.648650   -1.050475
     11          8           0       -5.254942    3.071526    0.101849
     12          6           0       -9.586653    2.975397    0.201616
     13          6           0      -10.219732    3.973284    0.954520
     14          1           0       -9.642483    4.824626    1.309607
     15          6           0      -10.352787    1.896676   -0.262047
     16          1           0       -9.876972    1.116886   -0.853987
     17          6           0      -11.585362    3.897662    1.236696
     18          1           0      -12.061569    4.684141    1.815548
     19          6           0      -11.717237    1.817375    0.017247
     20          1           0      -12.297508    0.978123   -0.356067
     21          6           0      -12.336988    2.818157    0.769691
     22          1           0      -13.399965    2.759397    0.985125
     23          7           0       -5.135812    1.155987    1.346782
     24          1           0       -5.718087    0.487785    1.841251
     25          6           0       -3.856940    1.374488    2.033502
     26          1           0       -3.412670    2.281100    1.615537
     27          6           0       -2.988739    0.136811    1.820822
     28          6           0       -4.148380    1.614887    3.543628
     29          1           0       -3.210716    1.849750    4.059128
     30          1           0       -4.535470    0.674241    3.966576
     31          8           0       -3.395801   -0.982565    2.089193
     32          8           0       -5.022198    2.697419    3.712728
     33          7           0       -1.758038    0.373510    1.244910
     34          1           0       -1.357420    1.302761    1.331839
     35          6           0       -0.785437   -0.698460    1.074851
     36          1           0       -0.742895   -1.337237    1.963546
     37          6           0        0.567006   -0.079618    0.763156
     38          6           0       -1.164854   -1.602642   -0.142216
     39          1           0       -1.187619   -0.967573   -1.038996
     40          1           0       -2.168512   -1.995683    0.034704
     41          8           0        0.665354    1.074484    0.317146
     42          8           0       -0.262497   -2.679135   -0.292144
     43          1           0        0.443840   -2.370605   -0.894592
     44          7           0        1.618220   -0.922710    0.897797
     45          1           0        1.349324   -1.900360    0.988956
     46          6           0        2.851682   -0.675922    0.165115
     47          1           0        3.129652    0.367049    0.337492
     48          6           0        2.589975   -0.897322   -1.342267
     49          6           0        3.974285   -1.578308    0.689003
     50          1           0        3.675554   -2.630960    0.701078
     51          1           0        4.844893   -1.505148    0.024541
     52          8           0        1.666836   -1.606400   -1.752200
     53          6           0        4.421422   -1.126413    2.071011
     54          8           0        4.416517    0.024331    2.445245
     55          8           0        4.854150   -2.164650    2.809054
     56          7           0        3.424096   -0.230294   -2.178904
     57          1           0        4.103075    0.411308   -1.785546
     58          6           0        3.138943   -0.090210   -3.610621
     59          1           0        2.574996   -0.971245   -3.917777
     60          6           0        4.443057   -0.089364   -4.400478
     61          6           0        2.318683    1.199300   -3.897229
     62          1           0        2.070884    1.215994   -4.965579
     63          1           0        2.948969    2.074030   -3.693682
     64          8           0        4.675436   -0.776177   -5.361646
     65          6           0        1.063952    1.235919   -3.024240
     66          1           0        1.380957    1.162901   -1.980842
     67          1           0        0.437123    0.359111   -3.221505
     68          6           0        0.200741    2.499213   -3.104255
     69          1           0        0.822989    3.399084   -3.014567
     70          1           0       -0.362020    2.560362   -4.041554
     71          7           0       -0.739822    2.424047   -1.974722
     72          1           0       -0.396696    1.918919   -1.154311
     73          7           0       -2.493136    3.666603   -2.866513
     74          1           0       -3.480217    3.885206   -2.875874
     75          1           0       -1.871011    4.348515   -3.276764
     76          7           0       -2.852651    2.244819   -1.070013
     77          1           0       -2.552429    1.419583   -0.557144
     78          1           0       -3.729676    2.686782   -0.752416
     79          6           0       -2.022829    2.786122   -1.959789
     80          8           0        5.309765    0.820448   -3.884055
     81          1           0        5.169073   -1.807665    3.662576
     82          1           0        6.127646    0.781267   -4.416668
 ---------------------------------------------------------------------

 SCF Done:  E(RB3LYP) =  -2166.41255779     A.U. after    1 cycles

 Alpha  occ. eigenvalues --  -19.29799 -19.28781 -19.24930 -19.24642 -19.23948
 Alpha  occ. eigenvalues --  -19.23768 -19.23133 -19.22605 -19.22312 -19.21294
 Alpha  occ. eigenvalues --  -14.50745 -14.49880 -14.48503 -14.48423 -14.47681
 Alpha  occ. eigenvalues --  -14.47657 -14.46567 -14.43124 -10.46315 -10.42096
 Alpha  occ. eigenvalues --  -10.41646 -10.41402 -10.41133 -10.39993 -10.39633
 Alpha  occ. eigenvalues --  -10.35424 -10.35332 -10.34850 -10.33926 -10.33458
 Alpha  occ. eigenvalues --  -10.33075 -10.32731 -10.32269 -10.31441 -10.30604
 Alpha  occ. eigenvalues --  -10.30173 -10.27444 -10.26992 -10.25999 -10.25958
 Alpha  occ. eigenvalues --  -10.25775 -10.25767 -10.25548  -1.20456  -1.19694
 Alpha  occ. eigenvalues --   -1.16939  -1.15855  -1.15161  -1.14824  -1.14367
 Alpha  occ. eigenvalues --   -1.11703  -1.10852  -1.10323  -1.09487  -1.04905
 Alpha  occ. eigenvalues --   -1.04849  -1.04361  -1.03622  -1.03146  -1.02622
 Alpha  occ. eigenvalues --   -0.99556  -0.92448  -0.92184  -0.90632  -0.87740
 Alpha  occ. eigenvalues --   -0.86970  -0.85787  -0.84354  -0.81260  -0.81228
 Alpha  occ. eigenvalues --   -0.80133  -0.79390  -0.76867  -0.75375  -0.74641
 Alpha  occ. eigenvalues --   -0.73483  -0.72831  -0.71731  -0.71312  -0.70686
 Alpha  occ. eigenvalues --   -0.69780  -0.69663  -0.68746  -0.68664  -0.68385
 Alpha  occ. eigenvalues --   -0.67446  -0.65712  -0.65180  -0.64167  -0.63911
 Alpha  occ. eigenvalues --   -0.63220  -0.62439  -0.62276  -0.61875  -0.60530
 Alpha  occ. eigenvalues --   -0.59948  -0.59506  -0.58806  -0.58500  -0.58228
 Alpha  occ. eigenvalues --   -0.58036  -0.57722  -0.57579  -0.57307  -0.56805
 Alpha  occ. eigenvalues --   -0.56476  -0.56042  -0.55659  -0.55304  -0.54898
 Alpha  occ. eigenvalues --   -0.54511  -0.54161  -0.53827  -0.53164  -0.52998
 Alpha  occ. eigenvalues --   -0.52939  -0.52659  -0.51757  -0.51648  -0.51394
 Alpha  occ. eigenvalues --   -0.50729  -0.50560  -0.50147  -0.49619  -0.49516
 Alpha  occ. eigenvalues --   -0.49348  -0.48884  -0.48779  -0.48566  -0.48154
 Alpha  occ. eigenvalues --   -0.48049  -0.47980  -0.47288  -0.46887  -0.46648
 Alpha  occ. eigenvalues --   -0.46268  -0.45390  -0.44703  -0.42706  -0.42242
 Alpha  occ. eigenvalues --   -0.41843  -0.41551  -0.41319  -0.40997  -0.40935
 Alpha  occ. eigenvalues --   -0.40858  -0.39901  -0.39333  -0.39184  -0.38787
 Alpha  occ. eigenvalues --   -0.38596  -0.38137  -0.37327  -0.37144  -0.36979
 Alpha  occ. eigenvalues --   -0.36544  -0.35977  -0.35399  -0.34966  -0.33672
 Alpha  occ. eigenvalues --   -0.31881  -0.31322
 Alpha virt. eigenvalues --   -0.11381  -0.11126  -0.10583  -0.10365  -0.09337
 Alpha virt. eigenvalues --   -0.09051  -0.07951  -0.07250  -0.07053  -0.05701
 Alpha virt. eigenvalues --   -0.03338  -0.02731  -0.01464  -0.01297  -0.01081

 Mulliken charges:
               1
     1  N   -0.752025
     2  H    0.436996
     3  H    0.334676
     4  H    0.344596
     5  C   -0.081586
     6  H    0.169860
     7  C    0.633395
     8  C   -0.358893
     9  H    0.166689
    10  H    0.155806
    11  O   -0.548060
    12  C    0.159750
    13  C   -0.198647
    14  H    0.126574
    15  C   -0.183494
    16  H    0.126804
    17  C   -0.126552
    18  H    0.147196
    19  C   -0.126519
    20  H    0.146702
    21  C   -0.128310
    22  H    0.149066
    23  N   -0.572947
    24  H    0.351455
    25  C   -0.118313
    26  H    0.166120
    27  C    0.634752
    28  C   -0.042365
    29  H    0.158940
    30  H    0.154828
    31  O   -0.497537
    32  O   -0.637927
    33  N   -0.666930
    34  H    0.352238
    35  C   -0.043711
    36  H    0.201807
    37  C    0.601976
    38  C   -0.048576
    39  H    0.121561
    40  H    0.198686
    41  O   -0.558535
    42  O   -0.647539
    43  H    0.451662
    44  N   -0.576071
    45  H    0.359608
    46  C   -0.084123
    47  H    0.214475
    48  C    0.642966
    49  C   -0.382969
    50  H    0.203138
    51  H    0.206149
    52  O   -0.550192
    53  C    0.600060
    54  O   -0.446204
    55  O   -0.552622
    56  N   -0.602463
    57  H    0.358865
    58  C   -0.047676
    59  H    0.221026
    60  C    0.584044
    61  C   -0.285453
    62  H    0.178144
    63  H    0.165362
    64  O   -0.423598
    65  C   -0.321215
    66  H    0.175477
    67  H    0.179221
    68  C   -0.140550
    69  H    0.176288
    70  H    0.181390
    71  N   -0.631881
    72  H    0.396300
    73  N   -0.747403
    74  H    0.383984
    75  H    0.376850
    76  N   -0.824069
    77  H    0.381753
    78  H    0.418463
    79  C    0.779260
    80  O   -0.579452
    81  H    0.427352
    82  H    0.432095
 Sum of Mulliken charges =   1.00000

 Dipole moment (field-independent basis, Debye):
    X=             -6.6044    Y=             10.2828    Z=             -5.0797  Tot=             13.2347
 Quadrupole moment (field-independent basis, Debye-Ang):
   XX=            -87.5985   YY=           -224.5363   ZZ=           -220.2968
   XY=            -39.9241   XZ=             -9.3685   YZ=            -35.3440

 Normal termination of Gaussian 16 at Tue May 17 05:37:13 2022.
