 Gaussian 16, Revision C.01,
 Gaussian 16:  ES64L-G16RevC.01  3-Jul-2019

 ----------------------------------------------------------------------
 # B3LYP/6-31G* empiricaldispersion=gd3 guess=read geom=check nosymm in
 tegral(ultrafinegrid)
 ----------------------------------------------------------------------

 ------------------------------------------------------
 Candidate Structure: Conf:123 Charge calc in gas phase
 ------------------------------------------------------
 Structure from the checkpoint file:  "conf-123.chk"
 Charge =  1 Multiplicity = 1

                          Input orientation:
 ---------------------------------------------------------------------
 Center     Atomic      Atomic             Coordinates (Angstroms)
 Number     Number       Type             X           Y           Z
 ---------------------------------------------------------------------
      1          7           0       -7.127157   -0.647078    4.631371
      2          1           0       -4.654991   -1.474340    5.757469
      3          1           0       -7.246908    0.326552    4.912798
      4          1           0       -7.952464   -1.136911    4.974824
      5          6           0       -7.077148   -0.727922    3.155712
      6          1           0       -7.144217   -1.791595    2.893644
      7          6           0       -5.667044   -0.246784    2.812194
      8          6           0       -8.157542    0.040100    2.372778
      9          1           0       -9.132294   -0.241985    2.789328
     10          1           0       -8.022991    1.113039    2.546916
     11          8           0       -5.427672    0.888944    2.389032
     12          6           0       -8.111035   -0.271717    0.890288
     13          6           0       -7.389792    0.535603   -0.001803
     14          1           0       -6.879491    1.417415    0.375683
     15          6           0       -8.764239   -1.406056    0.390486
     16          1           0       -9.337419   -2.035857    1.068216
     17          6           0       -7.328330    0.213218   -1.358465
     18          1           0       -6.777341    0.854659   -2.041208
     19          6           0       -8.698252   -1.733980   -0.964252
     20          1           0       -9.215284   -2.615651   -1.332904
     21          6           0       -7.978338   -0.923606   -1.843656
     22          1           0       -7.931961   -1.171683   -2.900475
     23          7           0       -4.680212   -1.126547    3.138436
     24          1           0       -4.989746   -1.935443    3.674432
     25          6           0       -3.420511   -0.590993    3.655952
     26          1           0       -3.617691    0.419907    4.040790
     27          6           0       -2.386178   -0.446436    2.531662
     28          6           0       -2.928512   -1.511500    4.799103
     29          1           0       -2.293481   -0.920973    5.473220
     30          1           0       -2.323054   -2.321422    4.382817
     31          8           0       -1.292360   -1.016388    2.528759
     32          8           0       -4.006826   -2.140159    5.484560
     33          7           0       -2.804201    0.363031    1.525524
     34          1           0       -3.730431    0.796605    1.612649
     35          6           0       -2.082763    0.394217    0.271830
     36          1           0       -1.684608   -0.613663    0.095844
     37          6           0       -0.867875    1.336394    0.316286
     38          6           0       -3.003758    0.761759   -0.892370
     39          1           0       -3.419855    1.763123   -0.735266
     40          1           0       -3.831058    0.038313   -0.920264
     41          8           0       -0.918829    2.475568   -0.162270
     42          8           0       -2.292864    0.805006   -2.129226
     43          1           0       -1.494045    0.252110   -2.055599
     44          7           0        0.253513    0.811385    0.865312
     45          1           0        0.134707   -0.123192    1.254985
     46          6           0        1.553317    1.177410    0.340703
     47          1           0        1.659480    2.265544    0.342472
     48          6           0        1.624358    0.683791   -1.142933
     49          6           0        2.647845    0.560237    1.230603
     50          1           0        2.324736    0.600417    2.276945
     51          1           0        2.809895   -0.499418    0.998517
     52          8           0        0.708743    0.033861   -1.652027
     53          6           0        3.979017    1.274520    1.138730
     54          8           0        4.247056    2.164365    0.347365
     55          8           0        4.840941    0.820255    2.052024
     56          7           0        2.741357    1.044987   -1.810660
     57          1           0        3.458919    1.562654   -1.309217
     58          6           0        3.078972    0.499064   -3.124441
     59          1           0        2.416370   -0.357699   -3.288425
     60          6           0        4.503054   -0.057498   -3.121832
     61          6           0        2.872180    1.547134   -4.231218
     62          1           0        3.464113    1.268165   -5.107385
     63          1           0        3.270770    2.503197   -3.870868
     64          8           0        5.211258   -0.119061   -4.096291
     65          6           0        1.372739    1.665772   -4.587954
     66          1           0        0.751671    1.341334   -3.744668
     67          1           0        1.144177    0.975666   -5.410184
     68          6           0        0.965543    3.080319   -5.022836
     69          1           0        1.631229    3.458259   -5.802788
     70          1           0       -0.042575    3.104867   -5.452449
     71          7           0        1.043487    4.022933   -3.900252
     72          1           0        1.812933    4.674264   -3.866324
     73          7           0       -0.850227    3.210684   -2.831071
     74          1           0       -1.212511    2.794046   -1.990738
     75          1           0       -1.231640    2.866227   -3.699654
     76          7           0        0.758720    4.306871   -1.597758
     77          1           0        1.731742    4.553133   -1.489107
     78          1           0        0.280514    3.941746   -0.772477
     79          6           0        0.329487    3.837485   -2.779100
     80          8           0        4.867566   -0.509442   -1.895323
     81          1           0        5.677429    1.314539    1.950183
     82          1           0        5.761774   -0.889422   -1.996000
 ---------------------------------------------------------------------

 SCF Done:  E(RB3LYP) =  -2166.40806604     A.U. after    1 cycles

 Alpha  occ. eigenvalues --  -19.31278 -19.29977 -19.26288 -19.24289 -19.24213
 Alpha  occ. eigenvalues --  -19.24151 -19.23860 -19.22630 -19.21456 -19.21405
 Alpha  occ. eigenvalues --  -14.50629 -14.49614 -14.48396 -14.47337 -14.46474
 Alpha  occ. eigenvalues --  -14.44655 -14.43833 -14.40922 -10.46161 -10.44541
 Alpha  occ. eigenvalues --  -10.42372 -10.40637 -10.40265 -10.37883 -10.37278
 Alpha  occ. eigenvalues --  -10.35907 -10.35397 -10.34827 -10.33139 -10.32852
 Alpha  occ. eigenvalues --  -10.32469 -10.31814 -10.31240 -10.30571 -10.29978
 Alpha  occ. eigenvalues --  -10.29873 -10.25736 -10.25595 -10.24736 -10.24689
 Alpha  occ. eigenvalues --  -10.24620 -10.24558 -10.24471  -1.22610  -1.20732
 Alpha  occ. eigenvalues --   -1.16287  -1.15141  -1.14844  -1.13595  -1.13321
 Alpha  occ. eigenvalues --   -1.12474  -1.11929  -1.11140  -1.09921  -1.04797
 Alpha  occ. eigenvalues --   -1.04243  -1.04054  -1.02468  -1.01864  -1.00769
 Alpha  occ. eigenvalues --   -0.97303  -0.91957  -0.91232  -0.90546  -0.86741
 Alpha  occ. eigenvalues --   -0.86625  -0.84475  -0.83181  -0.81403  -0.80171
 Alpha  occ. eigenvalues --   -0.80012  -0.78117  -0.77040  -0.74951  -0.73497
 Alpha  occ. eigenvalues --   -0.73177  -0.72797  -0.72075  -0.71799  -0.70514
 Alpha  occ. eigenvalues --   -0.69625  -0.68756  -0.67959  -0.66959  -0.66275
 Alpha  occ. eigenvalues --   -0.66137  -0.64809  -0.63966  -0.63860  -0.63226
 Alpha  occ. eigenvalues --   -0.62377  -0.62222  -0.61911  -0.61140  -0.60680
 Alpha  occ. eigenvalues --   -0.60342  -0.59685  -0.59393  -0.58747  -0.58485
 Alpha  occ. eigenvalues --   -0.58250  -0.57427  -0.57407  -0.56903  -0.56868
 Alpha  occ. eigenvalues --   -0.56455  -0.55464  -0.55197  -0.54503  -0.54199
 Alpha  occ. eigenvalues --   -0.54071  -0.53804  -0.53181  -0.52866  -0.52026
 Alpha  occ. eigenvalues --   -0.51983  -0.51423  -0.51377  -0.51225  -0.51036
 Alpha  occ. eigenvalues --   -0.50639  -0.50285  -0.49748  -0.49577  -0.49158
 Alpha  occ. eigenvalues --   -0.48783  -0.48515  -0.48052  -0.47779  -0.47549
 Alpha  occ. eigenvalues --   -0.47093  -0.46672  -0.46267  -0.45823  -0.45510
 Alpha  occ. eigenvalues --   -0.45273  -0.44988  -0.43694  -0.43426  -0.42928
 Alpha  occ. eigenvalues --   -0.42032  -0.41621  -0.40866  -0.40571  -0.40186
 Alpha  occ. eigenvalues --   -0.40072  -0.39521  -0.39492  -0.39303  -0.39194
 Alpha  occ. eigenvalues --   -0.38168  -0.37079  -0.36788  -0.36563  -0.36087
 Alpha  occ. eigenvalues --   -0.35723  -0.35299  -0.34158  -0.33525  -0.33097
 Alpha  occ. eigenvalues --   -0.30664  -0.29840
 Alpha virt. eigenvalues --   -0.11665  -0.11187  -0.10695  -0.09969  -0.09125
 Alpha virt. eigenvalues --   -0.07963  -0.07294  -0.06692  -0.05878  -0.05756
 Alpha virt. eigenvalues --   -0.03828  -0.03058  -0.02499  -0.01888  -0.00581

 Mulliken charges:
               1
     1  N   -0.736879
     2  H    0.406103
     3  H    0.317937
     4  H    0.325195
     5  C   -0.088189
     6  H    0.166496
     7  C    0.635799
     8  C   -0.355027
     9  H    0.148899
    10  H    0.163530
    11  O   -0.540932
    12  C    0.149264
    13  C   -0.179048
    14  H    0.144247
    15  C   -0.182316
    16  H    0.127057
    17  C   -0.136124
    18  H    0.127437
    19  C   -0.127221
    20  H    0.140867
    21  C   -0.128657
    22  H    0.136701
    23  N   -0.577890
    24  H    0.363993
    25  C   -0.133615
    26  H    0.179697
    27  C    0.640052
    28  C   -0.041624
    29  H    0.153746
    30  H    0.189240
    31  O   -0.545712
    32  O   -0.616150
    33  N   -0.624894
    34  H    0.394390
    35  C   -0.112476
    36  H    0.185263
    37  C    0.650512
    38  C   -0.027881
    39  H    0.163117
    40  H    0.172229
    41  O   -0.570519
    42  O   -0.663495
    43  H    0.427381
    44  N   -0.590133
    45  H    0.380586
    46  C   -0.055225
    47  H    0.178497
    48  C    0.613164
    49  C   -0.397419
    50  H    0.228518
    51  H    0.221897
    52  O   -0.545102
    53  C    0.616876
    54  O   -0.492345
    55  O   -0.539688
    56  N   -0.620778
    57  H    0.380923
    58  C   -0.068358
    59  H    0.223623
    60  C    0.579740
    61  C   -0.261475
    62  H    0.200247
    63  H    0.126665
    64  O   -0.434831
    65  C   -0.301930
    66  H    0.183439
    67  H    0.176196
    68  C   -0.187228
    69  H    0.193417
    70  H    0.181848
    71  N   -0.586824
    72  H    0.359217
    73  N   -0.755045
    74  H    0.443543
    75  H    0.375267
    76  N   -0.767327
    77  H    0.359596
    78  H    0.406978
    79  C    0.764208
    80  O   -0.572318
    81  H    0.432555
    82  H    0.428525
 Sum of Mulliken charges =   1.00000

 Dipole moment (field-independent basis, Debye):
    X=              0.8546    Y=              9.2020    Z=             -3.2012  Tot=              9.7803
 Quadrupole moment (field-independent basis, Debye-Ang):
   XX=           -144.2796   YY=           -212.9095   ZZ=           -186.1840
   XY=             27.1292   XZ=            -32.6087   YZ=            -25.3574

 Normal termination of Gaussian 16 at Tue May 17 05:37:15 2022.
