 Gaussian 16, Revision C.01,
 Gaussian 16:  ES64L-G16RevC.01  3-Jul-2019

 ----------------------------------------------------------------------
 # B3LYP/6-31G* empiricaldispersion=gd3 guess=read geom=check nosymm in
 tegral(ultrafinegrid)
 ----------------------------------------------------------------------

 ------------------------------------------------------
 Candidate Structure: Conf:156 Charge calc in gas phase
 ------------------------------------------------------
 Structure from the checkpoint file:  "conf-156.chk"
 Charge =  1 Multiplicity = 1

                          Input orientation:
 ---------------------------------------------------------------------
 Center     Atomic      Atomic             Coordinates (Angstroms)
 Number     Number       Type             X           Y           Z
 ---------------------------------------------------------------------
      1          7           0       -7.177494    1.204211    4.196676
      2          1           0       -5.859000   -0.135231    3.359163
      3          1           0       -7.050048    0.951583    5.178324
      4          1           0       -8.154591    0.999372    3.991270
      5          6           0       -6.938297    2.663908    4.063229
      6          1           0       -7.374461    2.967358    3.102114
      7          6           0       -5.413377    2.841881    3.930430
      8          6           0       -7.553319    3.542990    5.183981
      9          1           0       -7.059393    4.519729    5.157863
     10          1           0       -8.608075    3.707723    4.934356
     11          8           0       -4.717880    3.443173    4.730271
     12          6           0       -7.464818    2.939753    6.572487
     13          6           0       -8.537124    2.187801    7.076608
     14          1           0       -9.440597    2.077838    6.479541
     15          6           0       -6.317577    3.084222    7.366710
     16          1           0       -5.478637    3.652895    6.981777
     17          6           0       -8.470648    1.594889    8.338916
     18          1           0       -9.315139    1.022213    8.712527
     19          6           0       -6.251061    2.495362    8.630092
     20          1           0       -5.357529    2.623714    9.235250
     21          6           0       -7.324386    1.747820    9.120044
     22          1           0       -7.269878    1.292390   10.104930
     23          7           0       -4.887627    2.206959    2.810442
     24          1           0       -5.563049    1.600910    2.350336
     25          6           0       -3.625084    1.484886    2.972606
     26          1           0       -3.007578    2.044523    3.682867
     27          6           0       -2.844541    1.409910    1.661293
     28          6           0       -3.929388    0.070917    3.546658
     29          1           0       -4.081521    0.177787    4.630265
     30          1           0       -3.070484   -0.582287    3.378209
     31          8           0       -1.932483    0.585788    1.514855
     32          8           0       -5.058055   -0.504636    2.917807
     33          7           0       -3.176470    2.326953    0.719488
     34          1           0       -4.029803    2.846431    0.903372
     35          6           0       -2.788214    2.207723   -0.686035
     36          1           0       -2.866256    1.150189   -0.976575
     37          6           0       -1.334643    2.642523   -0.955856
     38          6           0       -3.748744    3.040285   -1.537311
     39          1           0       -3.530583    2.855562   -2.596865
     40          1           0       -3.574044    4.108607   -1.343388
     41          8           0       -1.068441    3.494109   -1.832988
     42          8           0       -5.063885    2.642549   -1.176934
     43          1           0       -5.693393    3.178560   -1.682189
     44          7           0       -0.406303    2.038526   -0.205544
     45          1           0       -0.737095    1.290379    0.422467
     46          6           0        1.000160    2.267725   -0.421675
     47          1           0        1.108740    3.295025   -0.763432
     48          6           0        1.534480    1.344697   -1.548736
     49          6           0        1.809397    2.141494    0.884472
     50          1           0        1.171039    2.376484    1.743335
     51          1           0        2.189646    1.126933    1.049831
     52          8           0        0.827534    0.514399   -2.101056
     53          6           0        2.991363    3.092460    0.910065
     54          8           0        3.328363    3.819409   -0.015476
     55          8           0        3.631643    3.052270    2.077305
     56          7           0        2.844338    1.560740   -1.874094
     57          1           0        3.350772    2.242840   -1.318697
     58          6           0        3.669962    0.538358   -2.493896
     59          1           0        3.056836   -0.361712   -2.611875
     60          6           0        4.810463    0.208547   -1.528222
     61          6           0        4.194228    0.967369   -3.878911
     62          1           0        4.893065    0.208053   -4.239547
     63          1           0        4.774105    1.891898   -3.753468
     64          8           0        5.001145    0.772634   -0.471698
     65          6           0        3.042706    1.173396   -4.890573
     66          1           0        2.087612    0.927286   -4.412533
     67          1           0        3.149709    0.481138   -5.733044
     68          6           0        2.976855    2.590970   -5.476789
     69          1           0        3.922786    2.851679   -5.958228
     70          1           0        2.210300    2.657971   -6.258885
     71          7           0        2.732264    3.638520   -4.472392
     72          1           0        3.490481    4.263052   -4.237362
     73          7           0        0.472289    3.162536   -4.139115
     74          1           0       -0.286359    3.117955   -3.451387
     75          1           0        0.448551    2.538346   -4.929749
     76          7           0        1.538761    4.676702   -2.765932
     77          1           0        2.360167    4.784445   -2.180339
     78          1           0        0.652283    4.704178   -2.264074
     79          6           0        1.589965    3.799271   -3.791810
     80          8           0        5.582538   -0.782057   -2.004535
     81          1           0        4.398369    3.655456    2.025832
     82          1           0        6.286867   -0.952186   -1.349467
 ---------------------------------------------------------------------

 SCF Done:  E(RB3LYP) =  -2166.41153366     A.U. after    1 cycles

 Alpha  occ. eigenvalues --  -19.30882 -19.30171 -19.26056 -19.24821 -19.24110
 Alpha  occ. eigenvalues --  -19.23682 -19.22556 -19.21017 -19.20042 -19.19621
 Alpha  occ. eigenvalues --  -14.51154 -14.49546 -14.49244 -14.46256 -14.46075
 Alpha  occ. eigenvalues --  -14.44870 -14.42829 -14.41150 -10.46505 -10.44225
 Alpha  occ. eigenvalues --  -10.42746 -10.40136 -10.39545 -10.37624 -10.36294
 Alpha  occ. eigenvalues --  -10.35860 -10.34622 -10.34604 -10.33325 -10.33058
 Alpha  occ. eigenvalues --  -10.31762 -10.30461 -10.30437 -10.30428 -10.30344
 Alpha  occ. eigenvalues --  -10.29491 -10.25336 -10.24955 -10.24184 -10.23993
 Alpha  occ. eigenvalues --  -10.23831 -10.23768 -10.23427  -1.22259  -1.21209
 Alpha  occ. eigenvalues --   -1.15501  -1.14902  -1.14173  -1.13191  -1.12705
 Alpha  occ. eigenvalues --   -1.12347  -1.11638  -1.11421  -1.07290  -1.04959
 Alpha  occ. eigenvalues --   -1.03527  -1.03447  -1.02715  -1.01775  -0.99573
 Alpha  occ. eigenvalues --   -0.97185  -0.91953  -0.90414  -0.90375  -0.86842
 Alpha  occ. eigenvalues --   -0.86371  -0.83557  -0.82223  -0.81205  -0.80297
 Alpha  occ. eigenvalues --   -0.79258  -0.77977  -0.76945  -0.74392  -0.73286
 Alpha  occ. eigenvalues --   -0.72977  -0.72346  -0.71855  -0.71099  -0.70055
 Alpha  occ. eigenvalues --   -0.69080  -0.68072  -0.67735  -0.66638  -0.65457
 Alpha  occ. eigenvalues --   -0.64942  -0.64355  -0.64103  -0.63215  -0.63152
 Alpha  occ. eigenvalues --   -0.62547  -0.61771  -0.60961  -0.60629  -0.60235
 Alpha  occ. eigenvalues --   -0.59924  -0.59696  -0.59106  -0.58481  -0.58282
 Alpha  occ. eigenvalues --   -0.57817  -0.57698  -0.57142  -0.56713  -0.56381
 Alpha  occ. eigenvalues --   -0.56118  -0.55645  -0.54347  -0.53966  -0.53639
 Alpha  occ. eigenvalues --   -0.53411  -0.52752  -0.52610  -0.52229  -0.51611
 Alpha  occ. eigenvalues --   -0.51528  -0.50942  -0.50887  -0.50598  -0.50481
 Alpha  occ. eigenvalues --   -0.50056  -0.49540  -0.49448  -0.49180  -0.48572
 Alpha  occ. eigenvalues --   -0.48406  -0.47879  -0.47737  -0.47331  -0.46824
 Alpha  occ. eigenvalues --   -0.46569  -0.46181  -0.45987  -0.45795  -0.45574
 Alpha  occ. eigenvalues --   -0.44777  -0.44398  -0.43353  -0.43052  -0.42729
 Alpha  occ. eigenvalues --   -0.42363  -0.41192  -0.40757  -0.40093  -0.39660
 Alpha  occ. eigenvalues --   -0.39135  -0.38837  -0.38692  -0.38629  -0.38261
 Alpha  occ. eigenvalues --   -0.37554  -0.36629  -0.36485  -0.35976  -0.35610
 Alpha  occ. eigenvalues --   -0.34970  -0.34388  -0.34212  -0.32577  -0.31752
 Alpha  occ. eigenvalues --   -0.29947  -0.29448
 Alpha virt. eigenvalues --   -0.11503  -0.10872  -0.09768  -0.09619  -0.08602
 Alpha virt. eigenvalues --   -0.07539  -0.06661  -0.06226  -0.05417  -0.05131
 Alpha virt. eigenvalues --   -0.04265  -0.02393  -0.01903  -0.01645  -0.01559

 Mulliken charges:
               1
     1  N   -0.758204
     2  H    0.429897
     3  H    0.339402
     4  H    0.327828
     5  C   -0.090063
     6  H    0.162242
     7  C    0.608952
     8  C   -0.353836
     9  H    0.175116
    10  H    0.148326
    11  O   -0.482360
    12  C    0.127482
    13  C   -0.196941
    14  H    0.121356
    15  C   -0.179531
    16  H    0.166595
    17  C   -0.126118
    18  H    0.139935
    19  C   -0.131018
    20  H    0.138615
    21  C   -0.128615
    22  H    0.140839
    23  N   -0.625212
    24  H    0.341630
    25  C   -0.077047
    26  H    0.206349
    27  C    0.629702
    28  C   -0.055093
    29  H    0.140709
    30  H    0.182647
    31  O   -0.562708
    32  O   -0.644360
    33  N   -0.605315
    34  H    0.375201
    35  C   -0.073032
    36  H    0.211440
    37  C    0.646891
    38  C   -0.053897
    39  H    0.150027
    40  H    0.152953
    41  O   -0.602875
    42  O   -0.622731
    43  H    0.413112
    44  N   -0.599047
    45  H    0.409337
    46  C   -0.056930
    47  H    0.171764
    48  C    0.595366
    49  C   -0.394888
    50  H    0.223663
    51  H    0.226063
    52  O   -0.509839
    53  C    0.621857
    54  O   -0.505073
    55  O   -0.536311
    56  N   -0.615062
    57  H    0.365543
    58  C   -0.077249
    59  H    0.219174
    60  C    0.588333
    61  C   -0.268499
    62  H    0.193474
    63  H    0.135980
    64  O   -0.466812
    65  C   -0.287223
    66  H    0.182577
    67  H    0.178863
    68  C   -0.187456
    69  H    0.193386
    70  H    0.180905
    71  N   -0.586275
    72  H    0.364440
    73  N   -0.759200
    74  H    0.423300
    75  H    0.372934
    76  N   -0.770365
    77  H    0.375957
    78  H    0.395430
    79  C    0.780969
    80  O   -0.552495
    81  H    0.433232
    82  H    0.431885
 Sum of Mulliken charges =   1.00000

 Dipole moment (field-independent basis, Debye):
    X=              2.8298    Y=             14.2805    Z=             -8.8501  Tot=             17.0371
 Quadrupole moment (field-independent basis, Debye-Ang):
   XX=           -109.1529   YY=           -206.4768   ZZ=           -156.9866
   XY=              0.3816   XZ=            -57.3663   YZ=            -33.8769

 Normal termination of Gaussian 16 at Tue May 17 05:37:13 2022.
