 Gaussian 16, Revision C.01,
 Gaussian 16:  ES64L-G16RevC.01  3-Jul-2019

 ----------------------------------------------------------------------
 # B3LYP/6-31G* empiricaldispersion=gd3 guess=read geom=check nosymm in
 tegral(ultrafinegrid)
 ----------------------------------------------------------------------

 ------------------------------------------------------
 Candidate Structure: Conf:961 Charge calc in gas phase
 ------------------------------------------------------
 Structure from the checkpoint file:  "conf-961.chk"
 Charge =  1 Multiplicity = 1

                          Input orientation:
 ---------------------------------------------------------------------
 Center     Atomic      Atomic             Coordinates (Angstroms)
 Number     Number       Type             X           Y           Z
 ---------------------------------------------------------------------
      1          7           0       -5.095649   -3.794279    4.308363
      2          1           0       -4.264801   -4.388991    4.366208
      3          1           0       -4.975361   -2.993584    4.989726
      4          1           0       -5.930980   -4.367114    4.496725
      5          6           0       -5.202550   -3.071478    2.986575
      6          1           0       -4.643452   -3.638244    2.239577
      7          6           0       -4.562318   -1.694763    3.290428
      8          6           0       -6.687654   -2.936979    2.579185
      9          1           0       -7.176732   -2.238888    3.269047
     10          1           0       -6.704454   -2.469540    1.589098
     11          8           0       -4.453718   -1.369644    4.484705
     12          6           0       -7.391466   -4.275689    2.577830
     13          6           0       -7.181140   -5.192374    1.537650
     14          1           0       -6.566358   -4.909724    0.685694
     15          6           0       -8.197882   -4.651755    3.663618
     16          1           0       -8.404711   -3.934738    4.456945
     17          6           0       -7.769068   -6.455570    1.580001
     18          1           0       -7.609270   -7.152275    0.762395
     19          6           0       -8.783168   -5.921624    3.708351
     20          1           0       -9.415675   -6.194957    4.547721
     21          6           0       -8.567252   -6.824338    2.667692
     22          1           0       -9.025427   -7.808282    2.696630
     23          7           0       -4.232609   -0.970016    2.236589
     24          1           0       -4.318970   -1.315757    1.277077
     25          6           0       -3.551456    0.318532    2.276691
     26          1           0       -4.134869    1.032223    2.870758
     27          6           0       -3.463695    0.742888    0.794436
     28          6           0       -2.115404    0.172389    2.850109
     29          1           0       -2.187025   -0.285092    3.842272
     30          1           0       -1.692789    1.181313    2.986937
     31          8           0       -3.864535   -0.015212   -0.090546
     32          8           0       -1.325365   -0.633951    2.026372
     33          7           0       -2.873186    1.931719    0.568376
     34          1           0       -2.484895    2.432353    1.357720
     35          6           0       -2.243150    2.257635   -0.704571
     36          1           0       -2.680453    1.595267   -1.458190
     37          6           0       -0.716741    2.010669   -0.649129
     38          6           0       -2.523275    3.718665   -1.070508
     39          1           0       -3.593143    3.923935   -0.980204
     40          1           0       -2.224581    3.891257   -2.113531
     41          8           0       -0.016870    2.635638   -1.536474
     42          8           0       -1.866045    4.610469   -0.176427
     43          1           0       -0.913065    4.450635   -0.283709
     44          7           0       -0.253193    1.234948    0.287170
     45          1           0       -0.986539   -0.042039    1.287339
     46          6           0        1.194861    1.071080    0.258586
     47          1           0        1.685622    2.050909    0.205432
     48          6           0        1.616299    0.266720   -0.992761
     49          6           0        1.660099    0.359365    1.539617
     50          1           0        1.108263    0.766135    2.395120
     51          1           0        1.420567   -0.708747    1.522627
     52          8           0        0.872951   -0.553832   -1.525794
     53          6           0        3.130817    0.552916    1.825365
     54          8           0        3.880255    1.308055    1.237198
     55          8           0        3.539959   -0.203429    2.866924
     56          7           0        2.869148    0.547112   -1.442917
     57          1           0        3.465737    1.154179   -0.886984
     58          6           0        3.489023   -0.113141   -2.576586
     59          1           0        3.149309   -1.154270   -2.612150
     60          6           0        4.997964   -0.100334   -2.376277
     61          6           0        3.141254    0.580144   -3.920588
     62          1           0        3.888598    0.305959   -4.673664
     63          1           0        3.235680    1.659424   -3.748534
     64          8           0        5.593302    0.608637   -1.597931
     65          6           0        1.731612    0.232298   -4.445333
     66          1           0        1.092381   -0.110254   -3.625929
     67          1           0        1.793527   -0.601176   -5.153934
     68          6           0        1.055342    1.407582   -5.152882
     69          1           0        1.748388    1.851607   -5.880392
     70          1           0        0.164238    1.067475   -5.696685
     71          7           0        0.674040    2.428732   -4.171942
     72          1           0        0.470660    2.148676   -3.195965
     73          7           0        0.536080    4.202655   -5.690084
     74          1           0        0.645876    5.193833   -5.844342
     75          1           0        0.740932    3.596631   -6.468677
     76          7           0        0.228277    4.558404   -3.412028
     77          1           0        0.051297    4.103669   -2.502363
     78          1           0       -0.223095    5.441156   -3.602588
     79          6           0        0.476744    3.716333   -4.429807
     80          8           0        5.606385   -0.962166   -3.221398
     81          1           0        4.485562   -0.001376    3.001629
     82          1           0        6.566651   -0.877016   -3.068436
 ---------------------------------------------------------------------

 SCF Done:  E(RB3LYP) =  -2166.37606122     A.U. after    1 cycles

 Alpha  occ. eigenvalues --  -19.26169 -19.24968 -19.24416 -19.20791 -19.20599
 Alpha  occ. eigenvalues --  -19.19767 -19.19601 -19.18132 -19.16835 -19.16188
 Alpha  occ. eigenvalues --  -14.57955 -14.48152 -14.46916 -14.46104 -14.45439
 Alpha  occ. eigenvalues --  -14.43096 -14.40653 -14.35349 -10.43142 -10.41181
 Alpha  occ. eigenvalues --  -10.38890 -10.38530 -10.37673 -10.36661 -10.33373
 Alpha  occ. eigenvalues --  -10.32713 -10.32043 -10.31879 -10.31711 -10.31225
 Alpha  occ. eigenvalues --  -10.30125 -10.30105 -10.30054 -10.29687 -10.29500
 Alpha  occ. eigenvalues --  -10.29483 -10.29363 -10.29108 -10.28764 -10.26911
 Alpha  occ. eigenvalues --  -10.26120 -10.25938 -10.25100  -1.17092  -1.16922
 Alpha  occ. eigenvalues --   -1.15992  -1.12147  -1.11844  -1.11564  -1.08600
 Alpha  occ. eigenvalues --   -1.08367  -1.07992  -1.06928  -1.06381  -1.05947
 Alpha  occ. eigenvalues --   -1.03484  -1.01175  -0.99951  -0.99752  -0.97674
 Alpha  occ. eigenvalues --   -0.96709  -0.93334  -0.91832  -0.87485  -0.86555
 Alpha  occ. eigenvalues --   -0.85033  -0.84361  -0.83512  -0.82241  -0.80727
 Alpha  occ. eigenvalues --   -0.78010  -0.76430  -0.74153  -0.73424  -0.73297
 Alpha  occ. eigenvalues --   -0.72217  -0.71765  -0.70742  -0.70543  -0.69472
 Alpha  occ. eigenvalues --   -0.69181  -0.68331  -0.68059  -0.67448  -0.65871
 Alpha  occ. eigenvalues --   -0.65247  -0.64661  -0.63810  -0.63067  -0.61788
 Alpha  occ. eigenvalues --   -0.61363  -0.60776  -0.60183  -0.59545  -0.58791
 Alpha  occ. eigenvalues --   -0.57913  -0.57175  -0.56880  -0.56319  -0.56246
 Alpha  occ. eigenvalues --   -0.55848  -0.55518  -0.55316  -0.55093  -0.54453
 Alpha  occ. eigenvalues --   -0.54247  -0.53759  -0.53612  -0.53383  -0.53106
 Alpha  occ. eigenvalues --   -0.52481  -0.52417  -0.52081  -0.51800  -0.51030
 Alpha  occ. eigenvalues --   -0.50777  -0.50432  -0.50265  -0.50147  -0.49735
 Alpha  occ. eigenvalues --   -0.49493  -0.49282  -0.48054  -0.47890  -0.47502
 Alpha  occ. eigenvalues --   -0.46895  -0.46448  -0.46259  -0.46016  -0.45507
 Alpha  occ. eigenvalues --   -0.44965  -0.44732  -0.44579  -0.44238  -0.43903
 Alpha  occ. eigenvalues --   -0.43195  -0.42505  -0.42050  -0.41839  -0.40729
 Alpha  occ. eigenvalues --   -0.39651  -0.39629  -0.39164  -0.38686  -0.38632
 Alpha  occ. eigenvalues --   -0.38274  -0.37328  -0.37126  -0.35817  -0.35728
 Alpha  occ. eigenvalues --   -0.35268  -0.35218  -0.34139  -0.33988  -0.33436
 Alpha  occ. eigenvalues --   -0.33341  -0.32144  -0.31718  -0.30486  -0.30169
 Alpha  occ. eigenvalues --   -0.29274  -0.28559
 Alpha virt. eigenvalues --   -0.11842  -0.11402  -0.09269  -0.08348  -0.07451
 Alpha virt. eigenvalues --   -0.05615  -0.05413  -0.04713  -0.03975  -0.03054
 Alpha virt. eigenvalues --   -0.02773  -0.02038  -0.01276  -0.00470  -0.00417

 Mulliken charges:
               1
     1  N   -0.751063
     2  H    0.415347
     3  H    0.424527
     4  H    0.402299
     5  C   -0.115474
     6  H    0.216333
     7  C    0.667914
     8  C   -0.382774
     9  H    0.191883
    10  H    0.210010
    11  O   -0.552612
    12  C    0.140623
    13  C   -0.181378
    14  H    0.148771
    15  C   -0.230626
    16  H    0.150279
    17  C   -0.123025
    18  H    0.165305
    19  C   -0.120678
    20  H    0.164873
    21  C   -0.124771
    22  H    0.166245
    23  N   -0.601582
    24  H    0.375175
    25  C   -0.066728
    26  H    0.182518
    27  C    0.614839
    28  C   -0.055624
    29  H    0.167635
    30  H    0.127874
    31  O   -0.539299
    32  O   -0.662992
    33  N   -0.575780
    34  H    0.341653
    35  C   -0.075446
    36  H    0.192640
    37  C    0.571517
    38  C   -0.038373
    39  H    0.161678
    40  H    0.113204
    41  O   -0.691397
    42  O   -0.633356
    43  H    0.404569
    44  N   -0.565614
    45  H    0.461958
    46  C   -0.030020
    47  H    0.156025
    48  C    0.615539
    49  C   -0.384341
    50  H    0.193593
    51  H    0.203487
    52  O   -0.542968
    53  C    0.586084
    54  O   -0.470451
    55  O   -0.562825
    56  N   -0.628541
    57  H    0.384804
    58  C   -0.027020
    59  H    0.193924
    60  C    0.563774
    61  C   -0.273620
    62  H    0.165039
    63  H    0.154610
    64  O   -0.447113
    65  C   -0.325662
    66  H    0.226380
    67  H    0.159970
    68  C   -0.154945
    69  H    0.150836
    70  H    0.175736
    71  N   -0.618274
    72  H    0.424463
    73  N   -0.767411
    74  H    0.370637
    75  H    0.375516
    76  N   -0.786021
    77  H    0.423255
    78  H    0.352601
    79  C    0.781702
    80  O   -0.565869
    81  H    0.415495
    82  H    0.420534
 Sum of Mulliken charges =   1.00000

 Dipole moment (field-independent basis, Debye):
    X=            -15.3382    Y=             -6.4480    Z=             -0.9212  Tot=             16.6639
 Quadrupole moment (field-independent basis, Debye-Ang):
   XX=           -109.0908   YY=           -133.4451   ZZ=           -113.7257
   XY=             89.2807   XZ=            -86.8896   YZ=           -104.0926

 Normal termination of Gaussian 16 at Tue May 17 05:37:14 2022.
