 Gaussian 16, Revision C.01,
 Gaussian 16:  ES64L-G16RevC.01  3-Jul-2019

 ----------------------------------------------------------------------
 # B3LYP/6-31G* empiricaldispersion=gd3 guess=read geom=check nosymm in
 tegral(ultrafinegrid)
 ----------------------------------------------------------------------

 ------------------------------------------------------
 Candidate Structure: Conf:772 Charge calc in gas phase
 ------------------------------------------------------
 Structure from the checkpoint file:  "conf-772.chk"
 Charge =  1 Multiplicity = 1

                          Input orientation:
 ---------------------------------------------------------------------
 Center     Atomic      Atomic             Coordinates (Angstroms)
 Number     Number       Type             X           Y           Z
 ---------------------------------------------------------------------
      1          7           0       -6.496617   -2.675241   -3.042828
      2          1           0       -6.879367   -3.588559   -3.295239
      3          1           0       -5.826027   -2.789083   -2.228044
      4          1           0       -7.271685   -2.030638   -2.831200
      5          6           0       -5.565329   -2.113159   -4.101149
      6          1           0       -5.786156   -2.603163   -5.049178
      7          6           0       -4.148611   -2.431503   -3.578274
      8          6           0       -5.742636   -0.576533   -4.211788
      9          1           0       -5.223121   -0.101627   -3.372580
     10          1           0       -5.213732   -0.284642   -5.123588
     11          8           0       -4.106992   -2.633680   -2.291524
     12          6           0       -7.191975   -0.151866   -4.229477
     13          6           0       -7.978357   -0.286250   -5.382918
     14          1           0       -7.521874   -0.636253   -6.306341
     15          6           0       -7.793827    0.308126   -3.046018
     16          1           0       -7.181365    0.443149   -2.155274
     17          6           0       -9.333847    0.039845   -5.357167
     18          1           0       -9.929876   -0.057284   -6.260113
     19          6           0       -9.155132    0.629226   -3.019503
     20          1           0       -9.606004    0.993970   -2.101006
     21          6           0       -9.925865    0.494527   -4.174429
     22          1           0      -10.981650    0.748341   -4.157761
     23          7           0       -3.214416   -2.355289   -4.463853
     24          1           0       -2.414264   -3.751441   -6.076112
     25          6           0       -1.818004   -2.508563   -4.025236
     26          1           0       -1.718274   -3.351187   -3.324718
     27          6           0       -1.390155   -1.219515   -3.319812
     28          6           0       -0.973369   -2.787473   -5.272772
     29          1           0        0.064555   -2.996225   -4.993465
     30          1           0       -0.982265   -1.891743   -5.911479
     31          8           0       -0.758647   -0.319714   -3.892425
     32          8           0       -1.464961   -3.927086   -5.947527
     33          7           0       -1.819181   -1.116728   -2.032399
     34          1           0       -2.497124   -1.839618   -1.776155
     35          6           0       -1.940002    0.177803   -1.372538
     36          1           0       -2.124777    0.950819   -2.123561
     37          6           0       -0.668551    0.571307   -0.610241
     38          6           0       -3.158129    0.151890   -0.417485
     39          1           0       -3.242148    1.130056    0.064021
     40          1           0       -2.980667   -0.597768    0.369914
     41          8           0       -0.273449    1.750607   -0.577447
     42          8           0       -4.366693   -0.089846   -1.107943
     43          1           0       -4.357519   -1.021393   -1.418840
     44          7           0       -0.069525   -0.431714    0.052378
     45          1           0       -0.337969   -1.387799   -0.160684
     46          6           0        1.147419   -0.265939    0.847104
     47          1           0        1.137174    0.764657    1.216107
     48          6           0        2.402538   -0.457114   -0.035231
     49          6           0        1.180079   -1.216384    2.049157
     50          1           0        2.032600   -0.970450    2.684515
     51          1           0        0.268895   -1.065821    2.641370
     52          8           0        3.165849   -1.398918    0.116742
     53          6           0        1.289668   -2.700222    1.744118
     54          8           0        1.864368   -3.508599    2.423619
     55          8           0        0.566721   -3.055995    0.634479
     56          7           0        2.545546    0.484874   -1.015349
     57          1           0        1.998863    1.334724   -0.923720
     58          6           0        3.746483    0.525829   -1.827008
     59          1           0        4.095744   -0.502860   -1.948973
     60          6           0        4.841934    1.316437   -1.106050
     61          6           0        3.463838    1.159678   -3.204169
     62          1           0        4.399024    1.192667   -3.773071
     63          1           0        3.163568    2.203066   -3.035758
     64          8           0        4.652744    2.056671   -0.169445
     65          6           0        2.371724    0.405055   -3.969554
     66          1           0        1.551523    0.166018   -3.291217
     67          1           0        2.757461   -0.560741   -4.317882
     68          6           0        1.819565    1.133400   -5.206615
     69          1           0        2.551409    1.127915   -6.018144
     70          1           0        0.923555    0.613729   -5.560429
     71          7           0        1.511331    2.565300   -4.985072
     72          1           0        1.942372    3.234654   -5.607350
     73          7           0       -0.066144    2.313211   -3.291684
     74          1           0       -0.271068    2.503120   -2.305364
     75          1           0       -0.301200    1.355085   -3.589355
     76          7           0        0.927185    4.369817   -3.653399
     77          1           0        1.760748    4.884374   -3.896538
     78          1           0        0.281259    4.804097   -3.009884
     79          6           0        0.787624    3.062831   -3.972137
     80          8           0        6.042971    1.113550   -1.685820
     81          1           0        0.698524   -4.015583    0.515881
     82          1           0        6.697885    1.643212   -1.191901
 ---------------------------------------------------------------------

 SCF Done:  E(RB3LYP) =  -2166.39308541     A.U. after    1 cycles

 Alpha  occ. eigenvalues --  -19.27851 -19.27431 -19.23552 -19.23123 -19.23101
 Alpha  occ. eigenvalues --  -19.22201 -19.21759 -19.20913 -19.20685 -19.19891
 Alpha  occ. eigenvalues --  -14.55070 -14.50280 -14.50245 -14.47341 -14.46525
 Alpha  occ. eigenvalues --  -14.45541 -14.44677 -14.39093 -10.45852 -10.40127
 Alpha  occ. eigenvalues --  -10.39651 -10.39622 -10.39033 -10.37588 -10.36123
 Alpha  occ. eigenvalues --  -10.35514 -10.33986 -10.33658 -10.33438 -10.33286
 Alpha  occ. eigenvalues --  -10.32672 -10.29977 -10.29639 -10.29441 -10.29419
 Alpha  occ. eigenvalues --  -10.29350 -10.28740 -10.28738 -10.28369 -10.28250
 Alpha  occ. eigenvalues --  -10.28166 -10.28083 -10.27858  -1.18712  -1.17743
 Alpha  occ. eigenvalues --   -1.14833  -1.14292  -1.14040  -1.12708  -1.12563
 Alpha  occ. eigenvalues --   -1.11076  -1.09884  -1.08877  -1.08244  -1.07581
 Alpha  occ. eigenvalues --   -1.03960  -1.03753  -1.02167  -1.01899  -1.01398
 Alpha  occ. eigenvalues --   -0.97309  -0.94999  -0.90368  -0.89304  -0.88665
 Alpha  occ. eigenvalues --   -0.86125  -0.85335  -0.83860  -0.83552  -0.81121
 Alpha  occ. eigenvalues --   -0.79841  -0.77814  -0.75891  -0.75569  -0.74471
 Alpha  occ. eigenvalues --   -0.72203  -0.71650  -0.71016  -0.70277  -0.70163
 Alpha  occ. eigenvalues --   -0.69537  -0.69017  -0.68724  -0.68091  -0.67712
 Alpha  occ. eigenvalues --   -0.67640  -0.67457  -0.66909  -0.63928  -0.63731
 Alpha  occ. eigenvalues --   -0.62929  -0.62619  -0.61218  -0.60433  -0.60209
 Alpha  occ. eigenvalues --   -0.59757  -0.59240  -0.58996  -0.58848  -0.58313
 Alpha  occ. eigenvalues --   -0.57224  -0.57041  -0.56736  -0.56109  -0.55397
 Alpha  occ. eigenvalues --   -0.55332  -0.54822  -0.54802  -0.54129  -0.53986
 Alpha  occ. eigenvalues --   -0.53618  -0.53268  -0.52934  -0.52660  -0.52486
 Alpha  occ. eigenvalues --   -0.52292  -0.51686  -0.51180  -0.51005  -0.50936
 Alpha  occ. eigenvalues --   -0.50122  -0.49922  -0.49748  -0.49726  -0.48858
 Alpha  occ. eigenvalues --   -0.48475  -0.47852  -0.47640  -0.47415  -0.47066
 Alpha  occ. eigenvalues --   -0.46574  -0.46325  -0.46187  -0.45948  -0.45625
 Alpha  occ. eigenvalues --   -0.44754  -0.44701  -0.44452  -0.44205  -0.43529
 Alpha  occ. eigenvalues --   -0.43012  -0.42212  -0.40631  -0.39975  -0.39564
 Alpha  occ. eigenvalues --   -0.39387  -0.39231  -0.38742  -0.38006  -0.37492
 Alpha  occ. eigenvalues --   -0.37161  -0.36759  -0.36036  -0.35126  -0.34784
 Alpha  occ. eigenvalues --   -0.34570  -0.34448  -0.34360  -0.33760  -0.33066
 Alpha  occ. eigenvalues --   -0.32560  -0.31913
 Alpha virt. eigenvalues --   -0.10856  -0.10210  -0.09933  -0.09898  -0.08809
 Alpha virt. eigenvalues --   -0.07391  -0.06614  -0.06561  -0.06350  -0.05795
 Alpha virt. eigenvalues --   -0.05653  -0.03095  -0.00760  -0.00399  -0.00293

 Mulliken charges:
               1
     1  N   -0.758233
     2  H    0.402399
     3  H    0.414516
     4  H    0.396321
     5  C   -0.066545
     6  H    0.194296
     7  C    0.548960
     8  C   -0.397107
     9  H    0.199582
    10  H    0.198834
    11  O   -0.671858
    12  C    0.127607
    13  C   -0.181284
    14  H    0.143058
    15  C   -0.238256
    16  H    0.165625
    17  C   -0.125677
    18  H    0.157626
    19  C   -0.122686
    20  H    0.156839
    21  C   -0.127219
    22  H    0.158408
    23  N   -0.512551
    24  H    0.398277
    25  C   -0.100206
    26  H    0.161837
    27  C    0.625465
    28  C   -0.011634
    29  H    0.139723
    30  H    0.132595
    31  O   -0.559822
    32  O   -0.621516
    33  N   -0.635597
    34  H    0.381747
    35  C   -0.071015
    36  H    0.170100
    37  C    0.651103
    38  C   -0.064764
    39  H    0.179255
    40  H    0.145088
    41  O   -0.589633
    42  O   -0.645653
    43  H    0.421485
    44  N   -0.594186
    45  H    0.382810
    46  C   -0.100300
    47  H    0.202566
    48  C    0.644495
    49  C   -0.369382
    50  H    0.214611
    51  H    0.190589
    52  O   -0.495293
    53  C    0.622926
    54  O   -0.434374
    55  O   -0.604243
    56  N   -0.608433
    57  H    0.347326
    58  C   -0.045370
    59  H    0.211616
    60  C    0.590419
    61  C   -0.292531
    62  H    0.179841
    63  H    0.128518
    64  O   -0.457154
    65  C   -0.296107
    66  H    0.182623
    67  H    0.173965
    68  C   -0.163247
    69  H    0.176811
    70  H    0.213403
    71  N   -0.599062
    72  H    0.357831
    73  N   -0.821330
    74  H    0.392934
    75  H    0.440237
    76  N   -0.761723
    77  H    0.371679
    78  H    0.381098
    79  C    0.780522
    80  O   -0.561915
    81  H    0.423644
    82  H    0.424696
 Sum of Mulliken charges =   1.00000

 Dipole moment (field-independent basis, Debye):
    X=            -12.8653    Y=              6.3163    Z=            -17.5449  Tot=             22.6547
 Quadrupole moment (field-independent basis, Debye-Ang):
   XX=            -87.4743   YY=           -204.3573   ZZ=           -180.1434
   XY=             62.6641   XZ=             28.4162   YZ=            -29.1634

 Normal termination of Gaussian 16 at Tue May 17 05:37:19 2022.
