 Gaussian 16, Revision C.01,
 Gaussian 16:  ES64L-G16RevC.01  3-Jul-2019

 ----------------------------------------------------------------------
 # B3LYP/6-31G* empiricaldispersion=gd3 guess=read geom=check nosymm in
 tegral(ultrafinegrid)
 ----------------------------------------------------------------------

 ------------------------------------------------------
 Candidate Structure: Conf:883 Charge calc in gas phase
 ------------------------------------------------------
 Structure from the checkpoint file:  "conf-883.chk"
 Charge =  1 Multiplicity = 1

                          Input orientation:
 ---------------------------------------------------------------------
 Center     Atomic      Atomic             Coordinates (Angstroms)
 Number     Number       Type             X           Y           Z
 ---------------------------------------------------------------------
      1          7           0       -7.038672   -0.283100    6.045466
      2          1           0       -6.562783   -0.837679    6.762624
      3          1           0       -6.618200    0.705883    6.034862
      4          1           0       -8.041243   -0.265632    6.249073
      5          6           0       -6.715919   -0.723523    4.630873
      6          1           0       -6.381248   -1.762384    4.647487
      7          6           0       -5.578301    0.260911    4.250145
      8          6           0       -7.970011   -0.549939    3.740521
      9          1           0       -8.741808   -1.244121    4.099147
     10          1           0       -8.347496    0.471064    3.879675
     11          8           0       -5.513146    1.311233    4.913750
     12          6           0       -7.662231   -0.788768    2.277595
     13          6           0       -7.526193    0.295322    1.402899
     14          1           0       -7.716234    1.304353    1.760782
     15          6           0       -7.427191   -2.085100    1.799929
     16          1           0       -7.546475   -2.938660    2.465182
     17          6           0       -7.143579    0.088482    0.076646
     18          1           0       -7.048292    0.936094   -0.597807
     19          6           0       -7.029398   -2.289009    0.478464
     20          1           0       -6.827706   -3.295769    0.126022
     21          6           0       -6.874717   -1.201909   -0.384031
     22          1           0       -6.520395   -1.346081   -1.398908
     23          7           0       -4.811819   -0.103529    3.239533
     24          1           0       -5.010109   -0.959458    2.711204
     25          6           0       -3.838540    0.733376    2.548579
     26          1           0       -4.316272    1.676474    2.254350
     27          6           0       -3.484291   -0.057172    1.273483
     28          6           0       -2.593831    1.105270    3.392361
     29          1           0       -2.029723    0.195719    3.641187
     30          1           0       -2.947781    1.564731    4.325191
     31          8           0       -4.020626   -1.145833    1.040381
     32          8           0       -1.813148    2.005386    2.638036
     33          7           0       -2.609708    0.560390    0.455864
     34          1           0       -2.131443    1.373763    0.858813
     35          6           0       -2.217603    0.024507   -0.845606
     36          1           0       -2.397860   -1.056491   -0.824491
     37          6           0       -0.725368    0.275961   -1.132453
     38          6           0       -3.093099    0.621051   -1.962382
     39          1           0       -2.720310    0.278960   -2.929202
     40          1           0       -3.006066    1.719359   -1.939073
     41          8           0       -0.335171    0.527542   -2.280594
     42          8           0       -4.443277    0.198386   -1.862443
     43          1           0       -4.717427    0.292115   -0.937245
     44          7           0        0.085644    0.132583   -0.073677
     45          1           0       -0.274424    0.058587    0.895624
     46          6           0        1.504875    0.451314   -0.104070
     47          1           0        1.628667    1.534873   -0.252529
     48          6           0        2.182608   -0.286838   -1.253837
     49          6           0        2.149920    0.066875    1.247345
     50          1           0        2.053911   -1.015354    1.383972
     51          1           0        3.205950    0.347071    1.231944
     52          8           0        2.017568   -1.507740   -1.414755
     53          6           0        1.424419    0.834417    2.392615
     54          8           0        2.015909    1.720496    2.996724
     55          8           0        0.190670    0.452604    2.540020
     56          7           0        2.981086    0.465005   -2.042349
     57          1           0        3.150670    1.431605   -1.793020
     58          6           0        3.734293   -0.063137   -3.156423
     59          1           0        3.721919   -1.150816   -3.073440
     60          6           0        5.178745    0.414118   -3.049265
     61          6           0        3.187204    0.367584   -4.547190
     62          1           0        3.707018   -0.241559   -5.295953
     63          1           0        3.483888    1.406849   -4.735869
     64          8           0        5.534048    1.379785   -2.416169
     65          6           0        1.665048    0.281664   -4.726005
     66          1           0        1.434101    0.593886   -5.753426
     67          1           0        1.157069    0.983178   -4.058373
     68          6           0        1.027834   -1.079384   -4.436723
     69          1           0        1.039539   -1.278805   -3.370471
     70          1           0       -0.024981   -1.069624   -4.734395
     71          7           0        1.699823   -2.189029   -5.140305
     72          1           0        1.766633   -2.109587   -6.147057
     73          7           0        2.371370   -3.429520   -3.281424
     74          1           0        2.555490   -4.344769   -2.896413
     75          1           0        2.254810   -2.649387   -2.602672
     76          7           0        2.541145   -4.329636   -5.404586
     77          1           0        2.289658   -4.339945   -6.381596
     78          1           0        3.161035   -5.057723   -5.081884
     79          6           0        2.197608   -3.300396   -4.594183
     80          8           0        5.999134   -0.344822   -3.806664
     81          1           0       -0.889098    1.595059    2.692495
     82          1           0        6.893491    0.041979   -3.737237
 ---------------------------------------------------------------------

 SCF Done:  E(RB3LYP) =  -2166.36976431     A.U. after    1 cycles

 Alpha  occ. eigenvalues --  -19.28408 -19.24974 -19.22663 -19.21019 -19.20285
 Alpha  occ. eigenvalues --  -19.20053 -19.18156 -19.17577 -19.12310 -19.10778
 Alpha  occ. eigenvalues --  -14.58580 -14.50278 -14.50067 -14.48025 -14.47203
 Alpha  occ. eigenvalues --  -14.45108 -14.43067 -14.40845 -10.46136 -10.41501
 Alpha  occ. eigenvalues --  -10.40698 -10.39330 -10.37676 -10.36827 -10.35166
 Alpha  occ. eigenvalues --  -10.33029 -10.32930 -10.32050 -10.31463 -10.29895
 Alpha  occ. eigenvalues --  -10.29730 -10.29727 -10.29588 -10.28992 -10.28873
 Alpha  occ. eigenvalues --  -10.28524 -10.28185 -10.28022 -10.27587 -10.27443
 Alpha  occ. eigenvalues --  -10.27377 -10.27010 -10.22793  -1.19232  -1.17511
 Alpha  occ. eigenvalues --   -1.14486  -1.12638  -1.12378  -1.11840  -1.10439
 Alpha  occ. eigenvalues --   -1.09586  -1.07668  -1.05964  -1.04469  -1.03931
 Alpha  occ. eigenvalues --   -1.03899  -1.02273  -1.01761  -1.00070  -0.98084
 Alpha  occ. eigenvalues --   -0.95812  -0.95386  -0.91306  -0.89629  -0.86091
 Alpha  occ. eigenvalues --   -0.85467  -0.84002  -0.83208  -0.82495  -0.80715
 Alpha  occ. eigenvalues --   -0.79171  -0.78078  -0.75941  -0.73101  -0.72954
 Alpha  occ. eigenvalues --   -0.72147  -0.72103  -0.71750  -0.71599  -0.70768
 Alpha  occ. eigenvalues --   -0.69430  -0.68793  -0.67900  -0.67318  -0.67099
 Alpha  occ. eigenvalues --   -0.66860  -0.65724  -0.64761  -0.64089  -0.63686
 Alpha  occ. eigenvalues --   -0.62686  -0.61447  -0.60491  -0.59814  -0.59445
 Alpha  occ. eigenvalues --   -0.58693  -0.58364  -0.58029  -0.57350  -0.57135
 Alpha  occ. eigenvalues --   -0.56983  -0.56362  -0.55395  -0.55317  -0.54719
 Alpha  occ. eigenvalues --   -0.54636  -0.54433  -0.54415  -0.53987  -0.53309
 Alpha  occ. eigenvalues --   -0.52507  -0.52257  -0.51631  -0.51203  -0.50736
 Alpha  occ. eigenvalues --   -0.50613  -0.50356  -0.50029  -0.49592  -0.49295
 Alpha  occ. eigenvalues --   -0.49185  -0.48728  -0.48312  -0.48071  -0.47676
 Alpha  occ. eigenvalues --   -0.47165  -0.46684  -0.45925  -0.45395  -0.44816
 Alpha  occ. eigenvalues --   -0.44628  -0.44457  -0.44174  -0.43991  -0.43330
 Alpha  occ. eigenvalues --   -0.43188  -0.42860  -0.42633  -0.42286  -0.40718
 Alpha  occ. eigenvalues --   -0.40616  -0.40354  -0.39897  -0.39516  -0.39381
 Alpha  occ. eigenvalues --   -0.38273  -0.38192  -0.36747  -0.36507  -0.35255
 Alpha  occ. eigenvalues --   -0.34843  -0.34708  -0.34235  -0.33775  -0.33112
 Alpha  occ. eigenvalues --   -0.32929  -0.31646  -0.31126  -0.30992  -0.27300
 Alpha  occ. eigenvalues --   -0.27128  -0.24691
 Alpha virt. eigenvalues --   -0.10836  -0.09892  -0.09760  -0.09728  -0.09104
 Alpha virt. eigenvalues --   -0.07596  -0.06944  -0.06368  -0.05501  -0.04649
 Alpha virt. eigenvalues --   -0.04595  -0.02742  -0.01751  -0.01577  -0.00360

 Mulliken charges:
               1
     1  N   -0.757485
     2  H    0.415158
     3  H    0.433515
     4  H    0.410127
     5  C   -0.112755
     6  H    0.213129
     7  C    0.659542
     8  C   -0.378674
     9  H    0.181308
    10  H    0.180803
    11  O   -0.549016
    12  C    0.146383
    13  C   -0.175712
    14  H    0.143173
    15  C   -0.196205
    16  H    0.129276
    17  C   -0.162064
    18  H    0.164993
    19  C   -0.102143
    20  H    0.153998
    21  C   -0.112326
    22  H    0.181463
    23  N   -0.613327
    24  H    0.387122
    25  C   -0.063925
    26  H    0.194118
    27  C    0.592988
    28  C   -0.031860
    29  H    0.163758
    30  H    0.156677
    31  O   -0.549503
    32  O   -0.664945
    33  N   -0.636520
    34  H    0.375383
    35  C   -0.089529
    36  H    0.202735
    37  C    0.618553
    38  C   -0.003662
    39  H    0.161056
    40  H    0.132463
    41  O   -0.573518
    42  O   -0.641064
    43  H    0.409414
    44  N   -0.619397
    45  H    0.388025
    46  C   -0.050802
    47  H    0.163848
    48  C    0.672812
    49  C   -0.364298
    50  H    0.163008
    51  H    0.159073
    52  O   -0.582911
    53  C    0.584908
    54  O   -0.513743
    55  O   -0.657493
    56  N   -0.580741
    57  H    0.361940
    58  C   -0.054051
    59  H    0.173351
    60  C    0.588890
    61  C   -0.279741
    62  H    0.152116
    63  H    0.171049
    64  O   -0.442808
    65  C   -0.299713
    66  H    0.147477
    67  H    0.219989
    68  C   -0.178307
    69  H    0.222768
    70  H    0.190974
    71  N   -0.602869
    72  H    0.349930
    73  N   -0.796546
    74  H    0.363709
    75  H    0.454602
    76  N   -0.772428
    77  H    0.372625
    78  H    0.376036
    79  C    0.812506
    80  O   -0.568574
    81  H    0.454430
    82  H    0.427453
 Sum of Mulliken charges =   1.00000

 Dipole moment (field-independent basis, Debye):
    X=            -15.3724    Y=            -15.7668    Z=             -4.7067  Tot=             22.5179
 Quadrupole moment (field-independent basis, Debye-Ang):
   XX=            -39.3370   YY=           -205.7408   ZZ=            -60.4658
   XY=            -16.4103   XZ=           -198.5816   YZ=             23.5867

 Normal termination of Gaussian 16 at Tue May 17 05:37:17 2022.
