 Gaussian 16, Revision C.01,
 Gaussian 16:  ES64L-G16RevC.01  3-Jul-2019

 ----------------------------------------------------------------------
 # B3LYP/6-31G* empiricaldispersion=gd3 guess=read geom=check nosymm in
 tegral(ultrafinegrid)
 ----------------------------------------------------------------------

 ------------------------------------------------------
 Candidate Structure: Conf:472 Charge calc in gas phase
 ------------------------------------------------------
 Structure from the checkpoint file:  "conf-472.chk"
 Charge =  1 Multiplicity = 1

                          Input orientation:
 ---------------------------------------------------------------------
 Center     Atomic      Atomic             Coordinates (Angstroms)
 Number     Number       Type             X           Y           Z
 ---------------------------------------------------------------------
      1          7           0       -8.217090    1.298673    4.509758
      2          1           0       -8.238692    1.607464    5.482825
      3          1           0       -8.049236    2.123194    3.923680
      4          1           0       -9.100659    0.856733    4.252819
      5          6           0       -7.091239    0.384385    4.256713
      6          1           0       -6.951304   -0.277858    5.115277
      7          6           0       -5.842181    1.220951    4.023919
      8          6           0       -7.358786   -0.472675    3.013617
      9          1           0       -7.532115    0.195526    2.165880
     10          1           0       -6.458416   -1.045490    2.782813
     11          8           0       -5.907715    2.366040    3.616054
     12          6           0       -8.539839   -1.384834    3.209481
     13          6           0       -8.453837   -2.467836    4.083365
     14          1           0       -7.515062   -2.652541    4.594502
     15          6           0       -9.753459   -1.133192    2.577528
     16          1           0       -9.840600   -0.280823    1.910849
     17          6           0       -9.547359   -3.301270    4.296209
     18          1           0       -9.452963   -4.144040    4.971723
     19          6           0      -10.857454   -1.952792    2.797214
     20          1           0      -11.793676   -1.735595    2.296519
     21          6           0      -10.755671   -3.043345    3.655365
     22          1           0      -11.611704   -3.686657    3.824136
     23          7           0       -4.646861    0.583978    4.255310
     24          1           0       -4.700282   -0.418374    4.332247
     25          6           0       -3.486496    1.033607    3.520114
     26          1           0       -3.451642    2.122958    3.567351
     27          6           0       -3.509188    0.570596    2.073666
     28          6           0       -2.178120    0.388107    4.164230
     29          1           0       -2.438299   -0.696657    4.200502
     30          1           0       -2.214469    0.705913    5.226832
     31          8           0       -4.048199   -0.474367    1.742404
     32          8           0       -1.075401    0.643925    3.571458
     33          7           0       -2.819052    1.366379    1.217565
     34          1           0       -2.280667    2.139387    1.577466
     35          6           0       -2.325926    0.792899   -0.011635
     36          1           0       -2.570263   -0.268122    0.020974
     37          6           0       -0.829089    1.042062    0.059182
     38          6           0       -2.925293    1.400731   -1.257009
     39          1           0       -2.436183    0.976989   -2.144656
     40          1           0       -2.748482    2.481716   -1.241806
     41          8           0       -0.412936    2.190292    0.245978
     42          8           0       -4.315976    1.092257   -1.236041
     43          1           0       -4.747359    1.600009   -1.927262
     44          7           0       -0.009607   -0.010625   -0.024602
     45          1           0       -0.405768   -0.939693   -0.017561
     46          6           0        1.367401    0.165283    0.411172
     47          1           0        1.375526    1.020666    1.094284
     48          6           0        2.289353    0.482301   -0.760380
     49          6           0        1.788915   -1.069121    1.213411
     50          1           0        1.863732   -1.963713    0.597061
     51          1           0        2.750304   -0.895125    1.695963
     52          8           0        3.267572   -0.190726   -1.043521
     53          6           0        0.650410   -1.167188    2.195293
     54          8           0       -0.273644   -1.938781    2.121495
     55          8           0        0.729502   -0.158344    3.084153
     56          7           0        1.951031    1.573104   -1.498373
     57          1           0        1.250242    2.203767   -1.133911
     58          6           0        2.897094    2.024353   -2.497644
     59          1           0        3.050970    1.215716   -3.220678
     60          6           0        4.227293    2.322371   -1.826811
     61          6           0        2.363054    3.269304   -3.208681
     62          1           0        2.274882    4.075654   -2.476036
     63          1           0        1.356300    3.031488   -3.560627
     64          8           0        4.364598    2.796469   -0.729996
     65          6           0        3.216417    3.722620   -4.384443
     66          1           0        3.345307    2.889278   -5.078685
     67          1           0        4.211512    4.012508   -4.043094
     68          6           0        2.578622    4.883650   -5.125029
     69          1           0        1.590220    4.580720   -5.481389
     70          1           0        2.438787    5.733745   -4.446281
     71          7           0        3.418907    5.263972   -6.277802
     72          1           0        4.412124    5.169683   -6.123421
     73          7           0        1.887889    6.871800   -7.001677
     74          1           0        1.538965    7.408006   -7.779080
     75          1           0        1.195179    6.459303   -6.400485
     76          7           0        3.998012    6.688670   -8.004488
     77          1           0        4.710570    6.025747   -8.276308
     78          1           0        3.671192    7.280510   -8.752153
     79          6           0        3.083042    6.267023   -7.101984
     80          8           0        5.268811    2.042687   -2.647486
     81          1           0       -0.081834   -0.138338    3.609178
     82          1           0        6.059122    2.287390   -2.152379
 ---------------------------------------------------------------------

 SCF Done:  E(RB3LYP) =  -2166.21464528     A.U. after    1 cycles

 Alpha  occ. eigenvalues --  -19.25686 -19.20961 -19.19634 -19.18406 -19.15479
 Alpha  occ. eigenvalues --  -19.15244 -19.13327 -19.10853 -19.10606 -19.02133
 Alpha  occ. eigenvalues --  -14.58446 -14.55765 -14.55073 -14.54932 -14.41999
 Alpha  occ. eigenvalues --  -14.39991 -14.39525 -14.37276 -10.51558 -10.37781
 Alpha  occ. eigenvalues --  -10.37622 -10.37393 -10.36416 -10.31989 -10.31985
 Alpha  occ. eigenvalues --  -10.31161 -10.30496 -10.29811 -10.29435 -10.29250
 Alpha  occ. eigenvalues --  -10.28546 -10.28537 -10.27662 -10.27397 -10.27304
 Alpha  occ. eigenvalues --  -10.27242 -10.27147 -10.26963 -10.25602 -10.25546
 Alpha  occ. eigenvalues --  -10.23336 -10.20247 -10.19943  -1.20218  -1.16815
 Alpha  occ. eigenvalues --   -1.15228  -1.11847  -1.09260  -1.08754  -1.08440
 Alpha  occ. eigenvalues --   -1.07779  -1.07292  -1.06071  -1.05958  -1.05415
 Alpha  occ. eigenvalues --   -0.98780  -0.98245  -0.97708  -0.96422  -0.94893
 Alpha  occ. eigenvalues --   -0.94738  -0.93321  -0.92978  -0.90031  -0.86219
 Alpha  occ. eigenvalues --   -0.83986  -0.82973  -0.82241  -0.81501  -0.79258
 Alpha  occ. eigenvalues --   -0.78549  -0.77144  -0.77049  -0.74771  -0.73594
 Alpha  occ. eigenvalues --   -0.72378  -0.72359  -0.71775  -0.70796  -0.69199
 Alpha  occ. eigenvalues --   -0.68498  -0.68217  -0.67596  -0.67137  -0.65959
 Alpha  occ. eigenvalues --   -0.64773  -0.63713  -0.63156  -0.62543  -0.62350
 Alpha  occ. eigenvalues --   -0.61421  -0.61028  -0.60661  -0.60115  -0.60068
 Alpha  occ. eigenvalues --   -0.58903  -0.57582  -0.57115  -0.56737  -0.56041
 Alpha  occ. eigenvalues --   -0.54548  -0.54139  -0.53992  -0.53694  -0.52985
 Alpha  occ. eigenvalues --   -0.52646  -0.52267  -0.52172  -0.51303  -0.50968
 Alpha  occ. eigenvalues --   -0.50526  -0.50420  -0.49655  -0.49609  -0.49372
 Alpha  occ. eigenvalues --   -0.48548  -0.47744  -0.47531  -0.47474  -0.47341
 Alpha  occ. eigenvalues --   -0.46987  -0.46774  -0.46127  -0.45304  -0.45028
 Alpha  occ. eigenvalues --   -0.44504  -0.44240  -0.44119  -0.43905  -0.43803
 Alpha  occ. eigenvalues --   -0.43296  -0.42633  -0.42412  -0.42392  -0.42273
 Alpha  occ. eigenvalues --   -0.41732  -0.41306  -0.40857  -0.39202  -0.38361
 Alpha  occ. eigenvalues --   -0.37719  -0.37617  -0.37441  -0.36623  -0.35679
 Alpha  occ. eigenvalues --   -0.35497  -0.33711  -0.33605  -0.33191  -0.32715
 Alpha  occ. eigenvalues --   -0.31752  -0.31277  -0.30863  -0.30509  -0.30058
 Alpha  occ. eigenvalues --   -0.28052  -0.27075  -0.26965  -0.25824  -0.24399
 Alpha  occ. eigenvalues --   -0.19364  -0.17559
 Alpha virt. eigenvalues --   -0.16554  -0.11014  -0.09927  -0.08814  -0.07532
 Alpha virt. eigenvalues --   -0.07178  -0.06381  -0.06111  -0.05647  -0.05359
 Alpha virt. eigenvalues --   -0.02480  -0.02370  -0.02132  -0.01169  -0.00603

 Mulliken charges:
               1
     1  N   -0.715546
     2  H    0.422929
     3  H    0.413249
     4  H    0.406551
     5  C   -0.153314
     6  H    0.210434
     7  C    0.633176
     8  C   -0.393631
     9  H    0.185894
    10  H    0.251235
    11  O   -0.511371
    12  C    0.150674
    13  C   -0.183052
    14  H    0.145475
    15  C   -0.216689
    16  H    0.134206
    17  C   -0.124551
    18  H    0.160047
    19  C   -0.123107
    20  H    0.154046
    21  C   -0.125475
    22  H    0.158524
    23  N   -0.561090
    24  H    0.332480
    25  C   -0.144812
    26  H    0.157784
    27  C    0.653214
    28  C    0.093833
    29  H    0.035923
    30  H    0.042243
    31  O   -0.558053
    32  O   -0.686734
    33  N   -0.579896
    34  H    0.355471
    35  C   -0.059729
    36  H    0.196593
    37  C    0.631859
    38  C   -0.021870
    39  H    0.113998
    40  H    0.126634
    41  O   -0.575057
    42  O   -0.609209
    43  H    0.387565
    44  N   -0.605427
    45  H    0.359042
    46  C   -0.104675
    47  H    0.242319
    48  C    0.645153
    49  C   -0.333450
    50  H    0.156770
    51  H    0.179963
    52  O   -0.527715
    53  C    0.550733
    54  O   -0.509061
    55  O   -0.559234
    56  N   -0.633088
    57  H    0.360819
    58  C    0.011132
    59  H    0.184419
    60  C    0.592903
    61  C   -0.321449
    62  H    0.176449
    63  H    0.163364
    64  O   -0.449524
    65  C   -0.306824
    66  H    0.181127
    67  H    0.173543
    68  C   -0.168480
    69  H    0.182794
    70  H    0.197685
    71  N   -0.584615
    72  H    0.375819
    73  N   -0.725069
    74  H    0.385957
    75  H    0.398495
    76  N   -0.726348
    77  H    0.389554
    78  H    0.380524
    79  C    0.774861
    80  O   -0.576884
    81  H    0.442872
    82  H    0.414696
 Sum of Mulliken charges =   1.00000

 Dipole moment (field-independent basis, Debye):
    X=            -14.1401    Y=             28.9490    Z=            -26.5696  Tot=             41.7604
 Quadrupole moment (field-independent basis, Debye-Ang):
   XX=             53.0621   YY=            -76.2143   ZZ=             45.1755
   XY=             69.6413   XZ=           -219.5947   YZ=           -209.8406

 Normal termination of Gaussian 16 at Tue May 17 05:37:10 2022.
