 Gaussian 16, Revision C.01,
 Gaussian 16:  ES64L-G16RevC.01  3-Jul-2019

 ----------------------------------------------------------------------
 # B3LYP/6-31G* empiricaldispersion=gd3 guess=read geom=check nosymm in
 tegral(ultrafinegrid)
 ----------------------------------------------------------------------

 -----------------------------------------------------
 Candidate Structure: Conf:34 Charge calc in gas phase
 -----------------------------------------------------
 Structure from the checkpoint file:  "conf-34.chk"
 Charge =  1 Multiplicity = 1

                          Input orientation:
 ---------------------------------------------------------------------
 Center     Atomic      Atomic             Coordinates (Angstroms)
 Number     Number       Type             X           Y           Z
 ---------------------------------------------------------------------
      1          7           0       -5.010290    2.796796    5.890336
      2          1           0       -4.199329    2.561612    6.468309
      3          1           0       -4.833874    3.752130    5.403178
      4          1           0       -5.846112    2.808536    6.479762
      5          6           0       -5.152409    1.917328    4.653338
      6          1           0       -4.623711    0.978315    4.824925
      7          6           0       -4.462061    2.806556    3.574449
      8          6           0       -6.642339    1.635526    4.369682
      9          1           0       -7.110094    1.271409    5.295198
     10          1           0       -7.144720    2.569775    4.089414
     11          8           0       -4.349864    4.019217    3.853325
     12          6           0       -6.767220    0.593308    3.276379
     13          6           0       -6.970557    0.971706    1.944876
     14          1           0       -7.082689    2.022217    1.692504
     15          6           0       -6.628089   -0.764560    3.594605
     16          1           0       -6.485211   -1.068418    4.630883
     17          6           0       -7.021176    0.004151    0.940783
     18          1           0       -7.168991    0.303047   -0.092062
     19          6           0       -6.681099   -1.731414    2.590837
     20          1           0       -6.576014   -2.782280    2.844590
     21          6           0       -6.873558   -1.345787    1.262480
     22          1           0       -6.908605   -2.095730    0.478215
     23          7           0       -4.074699    2.202887    2.479040
     24          1           0       -4.305702    1.220646    2.273447
     25          6           0       -3.412013    2.839744    1.345312
     26          1           0       -3.940996    3.748545    1.036314
     27          6           0       -3.432936    1.774241    0.230987
     28          6           0       -1.920508    3.245017    1.614074
     29          1           0       -1.417580    2.323249    2.032598
     30          1           0       -1.917038    3.981201    2.437097
     31          8           0       -3.826537    0.629103    0.490672
     32          8           0       -1.314202    3.700950    0.472083
     33          7           0       -2.883791    2.216649   -0.922625
     34          1           0       -2.196270    3.050289   -0.645590
     35          6           0       -2.356202    1.200106   -1.833909
     36          1           0       -2.878146    0.267938   -1.599597
     37          6           0       -0.882580    1.115206   -1.456125
     38          6           0       -2.540187    1.554572   -3.303332
     39          1           0       -1.973475    0.827771   -3.909766
     40          1           0       -2.098696    2.550141   -3.474347
     41          8           0       -0.053138    1.837503   -2.023967
     42          8           0       -3.928118    1.515635   -3.585994
     43          1           0       -4.047783    1.716310   -4.526145
     44          7           0       -0.577610    0.358192   -0.375237
     45          1           0       -1.344173   -0.079782    0.125646
     46          6           0        0.631294    0.649709    0.395976
     47          1           0        0.534649    1.661472    0.798567
     48          6           0        1.882445    0.610326   -0.487723
     49          6           0        0.822110   -0.398944    1.500872
     50          1           0        0.811788   -1.386762    1.022578
     51          1           0        1.803909   -0.272433    1.966426
     52          8           0        2.155704   -0.325917   -1.222080
     53          6           0       -0.250046   -0.409976    2.580175
     54          8           0       -1.442198   -0.471092    2.377283
     55          8           0        0.266718   -0.412215    3.836491
     56          7           0        2.715087    1.672164   -0.247942
     57          1           0        2.451233    2.362606    0.446255
     58          6           0        4.102647    1.613585   -0.666057
     59          1           0        4.295226    0.587723   -0.993706
     60          6           0        4.997658    1.935948    0.528036
     61          6           0        4.391054    2.598063   -1.822688
     62          1           0        5.472695    2.691069   -1.962503
     63          1           0        4.023391    3.582445   -1.504598
     64          8           0        4.612213    2.449079    1.556558
     65          6           0        3.665680    2.170921   -3.120329
     66          1           0        2.944148    1.372324   -2.897895
     67          1           0        4.351141    1.758185   -3.866968
     68          6           0        2.905489    3.360821   -3.722008
     69          1           0        3.581041    4.222784   -3.791163
     70          1           0        2.523247    3.142481   -4.726951
     71          7           0        1.823085    3.676793   -2.804030
     72          1           0        1.303601    2.890186   -2.407847
     73          7           0        1.836848    6.014722   -3.007815
     74          1           0        1.622760    6.909981   -2.595443
     75          1           0        2.579544    5.991734   -3.687676
     76          7           0        0.409317    4.943943   -1.512346
     77          1           0        0.069380    4.097180   -1.069951
     78          1           0        0.059372    5.816632   -1.148175
     79          6           0        1.356789    4.875097   -2.451141
     80          8           0        6.284590    1.626281    0.278166
     81          1           0       -0.491851   -0.604201    4.422714
     82          1           0        6.807021    1.886853    1.061230
 ---------------------------------------------------------------------

 SCF Done:  E(RB3LYP) =  -2166.34130465     A.U. after    1 cycles

 Alpha  occ. eigenvalues --  -19.27939 -19.27873 -19.23624 -19.22523 -19.22322
 Alpha  occ. eigenvalues --  -19.20335 -19.19913 -19.19292 -19.17936 -19.10109
 Alpha  occ. eigenvalues --  -14.57270 -14.48570 -14.46494 -14.46050 -14.45730
 Alpha  occ. eigenvalues --  -14.44023 -14.43407 -14.39227 -10.43842 -10.40734
 Alpha  occ. eigenvalues --  -10.40271 -10.40072 -10.38137 -10.36625 -10.36623
 Alpha  occ. eigenvalues --  -10.33894 -10.32849 -10.31890 -10.31872 -10.31816
 Alpha  occ. eigenvalues --  -10.29046 -10.28910 -10.28752 -10.28610 -10.28546
 Alpha  occ. eigenvalues --  -10.27807 -10.27528 -10.27290 -10.26922 -10.26639
 Alpha  occ. eigenvalues --  -10.26637 -10.26331 -10.26249  -1.18852  -1.18784
 Alpha  occ. eigenvalues --   -1.16090  -1.12497  -1.12075  -1.11125  -1.10732
 Alpha  occ. eigenvalues --   -1.09916  -1.09879  -1.09385  -1.07298  -1.02502
 Alpha  occ. eigenvalues --   -1.02029  -1.00826  -1.00310  -1.00246  -0.98247
 Alpha  occ. eigenvalues --   -0.95444  -0.94404  -0.90149  -0.89199  -0.87267
 Alpha  occ. eigenvalues --   -0.84236  -0.83896  -0.82439  -0.82217  -0.79749
 Alpha  occ. eigenvalues --   -0.78135  -0.76807  -0.76601  -0.74436  -0.71271
 Alpha  occ. eigenvalues --   -0.71153  -0.70802  -0.70617  -0.69545  -0.69339
 Alpha  occ. eigenvalues --   -0.68907  -0.68390  -0.67301  -0.66936  -0.66327
 Alpha  occ. eigenvalues --   -0.66139  -0.65614  -0.64076  -0.63105  -0.61713
 Alpha  occ. eigenvalues --   -0.60928  -0.60574  -0.60241  -0.59919  -0.59424
 Alpha  occ. eigenvalues --   -0.58780  -0.58708  -0.57842  -0.57392  -0.56988
 Alpha  occ. eigenvalues --   -0.56430  -0.56216  -0.56013  -0.55631  -0.54743
 Alpha  occ. eigenvalues --   -0.54612  -0.54188  -0.53808  -0.53725  -0.53496
 Alpha  occ. eigenvalues --   -0.52843  -0.52720  -0.52201  -0.51395  -0.51162
 Alpha  occ. eigenvalues --   -0.50769  -0.49906  -0.49800  -0.49398  -0.49223
 Alpha  occ. eigenvalues --   -0.49170  -0.49076  -0.48203  -0.48119  -0.47846
 Alpha  occ. eigenvalues --   -0.47564  -0.47243  -0.46627  -0.46398  -0.45758
 Alpha  occ. eigenvalues --   -0.45360  -0.44407  -0.44048  -0.43609  -0.43570
 Alpha  occ. eigenvalues --   -0.43438  -0.43045  -0.42817  -0.42305  -0.42011
 Alpha  occ. eigenvalues --   -0.41920  -0.40352  -0.39959  -0.39935  -0.38967
 Alpha  occ. eigenvalues --   -0.38886  -0.38333  -0.36376  -0.36213  -0.35989
 Alpha  occ. eigenvalues --   -0.35621  -0.35084  -0.34157  -0.33709  -0.32802
 Alpha  occ. eigenvalues --   -0.32619  -0.32503  -0.32453  -0.31643  -0.30473
 Alpha  occ. eigenvalues --   -0.25398  -0.24282
 Alpha virt. eigenvalues --   -0.09539  -0.09032  -0.08560  -0.08095  -0.07846
 Alpha virt. eigenvalues --   -0.07502  -0.07199  -0.06945  -0.05074  -0.04664
 Alpha virt. eigenvalues --   -0.03924  -0.02385  -0.01009  -0.00595  -0.00047

 Mulliken charges:
               1
     1  N   -0.763399
     2  H    0.407285
     3  H    0.430666
     4  H    0.403033
     5  C   -0.105480
     6  H    0.210159
     7  C    0.652443
     8  C   -0.377853
     9  H    0.169259
    10  H    0.187982
    11  O   -0.563127
    12  C    0.138835
    13  C   -0.183317
    14  H    0.141725
    15  C   -0.181214
    16  H    0.122124
    17  C   -0.098123
    18  H    0.160922
    19  C   -0.122312
    20  H    0.150011
    21  C   -0.115261
    22  H    0.154746
    23  N   -0.603853
    24  H    0.394571
    25  C   -0.085255
    26  H    0.181539
    27  C    0.596389
    28  C    0.038031
    29  H    0.051300
    30  H    0.105465
    31  O   -0.562150
    32  O   -0.724920
    33  N   -0.603033
    34  H    0.379264
    35  C   -0.083909
    36  H    0.191108
    37  C    0.645982
    38  C   -0.011094
    39  H    0.129529
    40  H    0.128164
    41  O   -0.584146
    42  O   -0.614587
    43  H    0.399250
    44  N   -0.609346
    45  H    0.382058
    46  C   -0.053057
    47  H    0.192260
    48  C    0.636409
    49  C   -0.390677
    50  H    0.222059
    51  H    0.194246
    52  O   -0.520723
    53  C    0.593453
    54  O   -0.460473
    55  O   -0.552608
    56  N   -0.602901
    57  H    0.350728
    58  C   -0.065305
    59  H    0.216725
    60  C    0.577164
    61  C   -0.269108
    62  H    0.177616
    63  H    0.142303
    64  O   -0.462311
    65  C   -0.309639
    66  H    0.208261
    67  H    0.170732
    68  C   -0.157413
    69  H    0.147447
    70  H    0.186485
    71  N   -0.625378
    72  H    0.434750
    73  N   -0.769156
    74  H    0.369543
    75  H    0.374614
    76  N   -0.776651
    77  H    0.423831
    78  H    0.365804
    79  C    0.796711
    80  O   -0.557370
    81  H    0.407416
    82  H    0.424752
 Sum of Mulliken charges =   1.00000

 Dipole moment (field-independent basis, Debye):
    X=             -6.0938    Y=             15.6605    Z=             10.0701  Tot=             19.5906
 Quadrupole moment (field-independent basis, Debye-Ang):
   XX=           -128.3525   YY=           -165.6171   ZZ=            -97.9000
   XY=             11.6507   XZ=           -102.7442   YZ=            -12.8476

 Normal termination of Gaussian 16 at Tue May 17 05:37:19 2022.
