 Gaussian 16, Revision C.01,
 Gaussian 16:  ES64L-G16RevC.01  3-Jul-2019

 ----------------------------------------------------------------------
 # B3LYP/6-31G* empiricaldispersion=gd3 guess=read geom=check nosymm in
 tegral(ultrafinegrid)
 ----------------------------------------------------------------------

 ------------------------------------------------------
 Candidate Structure: Conf:304 Charge calc in gas phase
 ------------------------------------------------------
 Structure from the checkpoint file:  "conf-304.chk"
 Charge =  1 Multiplicity = 1

                          Input orientation:
 ---------------------------------------------------------------------
 Center     Atomic      Atomic             Coordinates (Angstroms)
 Number     Number       Type             X           Y           Z
 ---------------------------------------------------------------------
      1          7           0       -9.202652    0.583992    2.223025
      2          1           0       -9.805201    0.759200    3.031430
      3          1           0       -8.975521    1.528800    1.782119
      4          1           0       -9.686663   -0.046037    1.578911
      5          6           0       -7.823763    0.086314    2.614005
      6          1           0       -7.880460   -0.298616    3.634122
      7          6           0       -6.961129    1.368559    2.509744
      8          6           0       -7.336536   -1.032194    1.656129
      9          1           0       -8.204879   -1.653858    1.394411
     10          1           0       -6.951478   -0.572653    0.740837
     11          8           0       -7.479543    2.356637    1.969424
     12          6           0       -6.291174   -1.912913    2.309773
     13          6           0       -4.926908   -1.731246    2.059483
     14          1           0       -4.584827   -0.970024    1.366483
     15          6           0       -6.699116   -2.902207    3.218768
     16          1           0       -7.759864   -3.059299    3.410048
     17          6           0       -3.982795   -2.525268    2.717546
     18          1           0       -2.933621   -2.340963    2.517360
     19          6           0       -5.757308   -3.698727    3.866085
     20          1           0       -6.084689   -4.467574    4.560196
     21          6           0       -4.394307   -3.508168    3.616345
     22          1           0       -3.658948   -4.126462    4.123223
     23          7           0       -5.713569    1.320779    2.988727
     24          1           0       -5.332036    0.408494    3.226673
     25          6           0       -4.742579    2.318764    2.544870
     26          1           0       -5.235362    3.294313    2.588687
     27          6           0       -4.429818    2.074677    1.049572
     28          6           0       -3.526218    2.330064    3.505022
     29          1           0       -3.224689    1.294736    3.686434
     30          1           0       -3.854337    2.786348    4.447062
     31          8           0       -4.975057    1.201454    0.379700
     32          8           0       -2.446866    3.054215    2.956192
     33          7           0       -3.595636    3.026548    0.534838
     34          1           0       -2.952569    3.408441    1.241491
     35          6           0       -3.096279    2.914365   -0.828937
     36          1           0       -3.688921    2.128302   -1.312095
     37          6           0       -1.622642    2.497003   -0.781762
     38          6           0       -3.248116    4.217029   -1.613983
     39          1           0       -2.640377    4.999484   -1.157100
     40          1           0       -4.297509    4.536936   -1.610851
     41          8           0       -0.714934    3.345072   -0.871915
     42          8           0       -2.740058    4.075787   -2.947961
     43          1           0       -3.292091    3.413497   -3.398187
     44          7           0       -1.384941    1.196325   -0.614196
     45          1           0       -2.169115    0.586094   -0.394514
     46          6           0       -0.048154    0.696938   -0.269524
     47          1           0        0.496161    1.541152    0.159929
     48          6           0        0.597275    0.214995   -1.572952
     49          6           0       -0.219141   -0.361739    0.827779
     50          1           0       -0.678998   -1.262883    0.412519
     51          1           0        0.753908   -0.605546    1.262582
     52          8           0        0.068509   -0.625511   -2.288497
     53          6           0       -1.159944    0.321465    1.850516
     54          8           0       -2.368196   -0.027498    1.815694
     55          8           0       -0.648753    1.273882    2.508395
     56          7           0        1.747735    0.874030   -1.900556
     57          1           0        2.116347    1.570880   -1.268310
     58          6           0        2.382052    0.757293   -3.199363
     59          1           0        1.972172   -0.135215   -3.677168
     60          6           0        3.891730    0.577314   -3.103614
     61          6           0        2.104673    2.006729   -4.073511
     62          1           0        2.735844    1.955106   -4.968012
     63          1           0        2.440371    2.880457   -3.500451
     64          8           0        4.570020    0.082907   -3.970854
     65          6           0        0.627934    2.166451   -4.477769
     66          1           0       -0.030675    1.751361   -3.706870
     67          1           0        0.427389    1.595499   -5.391443
     68          6           0        0.224532    3.631065   -4.718169
     69          1           0        0.930516    4.121078   -5.395819
     70          1           0       -0.763855    3.688556   -5.181165
     71          7           0        0.126087    4.381328   -3.461089
     72          1           0       -0.649071    4.096646   -2.857954
     73          7           0        2.066962    5.673640   -3.576599
     74          1           0        2.840642    6.121955   -3.109750
     75          1           0        1.979793    5.811930   -4.571748
     76          7           0        1.028197    5.264313   -1.536487
     77          1           0        0.376810    4.684417   -1.004160
     78          1           0        1.484362    6.045697   -1.089559
     79          6           0        1.067539    5.104390   -2.867371
     80          8           0        4.400544    1.121242   -1.969853
     81          1           0       -1.685898    2.390042    2.832360
     82          1           0        5.366882    0.987528   -2.002359
 ---------------------------------------------------------------------

 SCF Done:  E(RB3LYP) =  -2166.38784567     A.U. after    1 cycles

 Alpha  occ. eigenvalues --  -19.27639 -19.25310 -19.24814 -19.21562 -19.21485
 Alpha  occ. eigenvalues --  -19.19970 -19.18313 -19.17946 -19.13964 -19.13749
 Alpha  occ. eigenvalues --  -14.58340 -14.49718 -14.48042 -14.47700 -14.46947
 Alpha  occ. eigenvalues --  -14.44469 -14.43780 -14.42785 -10.45174 -10.41370
 Alpha  occ. eigenvalues --  -10.39711 -10.38580 -10.37998 -10.36670 -10.35739
 Alpha  occ. eigenvalues --  -10.33680 -10.32289 -10.31921 -10.31769 -10.31499
 Alpha  occ. eigenvalues --  -10.31323 -10.31093 -10.30218 -10.29164 -10.28376
 Alpha  occ. eigenvalues --  -10.28322 -10.28034 -10.26805 -10.26245 -10.25757
 Alpha  occ. eigenvalues --  -10.25374 -10.25153 -10.23806  -1.18278  -1.17342
 Alpha  occ. eigenvalues --   -1.13876  -1.13161  -1.12198  -1.11716  -1.11354
 Alpha  occ. eigenvalues --   -1.10441  -1.09323  -1.07433  -1.05446  -1.03563
 Alpha  occ. eigenvalues --   -1.03094  -1.01807  -1.01232  -1.00429  -0.99706
 Alpha  occ. eigenvalues --   -0.98210  -0.93909  -0.90208  -0.89348  -0.86492
 Alpha  occ. eigenvalues --   -0.85082  -0.83825  -0.82808  -0.81497  -0.81293
 Alpha  occ. eigenvalues --   -0.78811  -0.77044  -0.75406  -0.74531  -0.72518
 Alpha  occ. eigenvalues --   -0.72052  -0.71416  -0.71246  -0.70715  -0.70433
 Alpha  occ. eigenvalues --   -0.69692  -0.68441  -0.67769  -0.67606  -0.67099
 Alpha  occ. eigenvalues --   -0.65995  -0.65674  -0.65480  -0.63959  -0.63022
 Alpha  occ. eigenvalues --   -0.62672  -0.62081  -0.60868  -0.60472  -0.59661
 Alpha  occ. eigenvalues --   -0.59061  -0.58420  -0.57923  -0.57538  -0.56567
 Alpha  occ. eigenvalues --   -0.56075  -0.56051  -0.55605  -0.55359  -0.55067
 Alpha  occ. eigenvalues --   -0.54691  -0.54438  -0.53431  -0.53040  -0.52800
 Alpha  occ. eigenvalues --   -0.52691  -0.52213  -0.51577  -0.51322  -0.51092
 Alpha  occ. eigenvalues --   -0.50887  -0.50617  -0.49720  -0.49591  -0.49168
 Alpha  occ. eigenvalues --   -0.48796  -0.48559  -0.48252  -0.48112  -0.47558
 Alpha  occ. eigenvalues --   -0.47439  -0.47353  -0.46754  -0.46436  -0.45823
 Alpha  occ. eigenvalues --   -0.45602  -0.44894  -0.44253  -0.44126  -0.43778
 Alpha  occ. eigenvalues --   -0.43591  -0.43155  -0.42963  -0.41989  -0.41361
 Alpha  occ. eigenvalues --   -0.41010  -0.40487  -0.40359  -0.39602  -0.39429
 Alpha  occ. eigenvalues --   -0.38220  -0.37582  -0.37473  -0.37275  -0.36598
 Alpha  occ. eigenvalues --   -0.36111  -0.35259  -0.33838  -0.33257  -0.32550
 Alpha  occ. eigenvalues --   -0.32183  -0.32058  -0.31763  -0.31346  -0.29540
 Alpha  occ. eigenvalues --   -0.28530  -0.27637
 Alpha virt. eigenvalues --   -0.10321  -0.09625  -0.09550  -0.08477  -0.08009
 Alpha virt. eigenvalues --   -0.07455  -0.06847  -0.05826  -0.05136  -0.04846
 Alpha virt. eigenvalues --   -0.04621  -0.03231  -0.02151  -0.01261  -0.00627

 Mulliken charges:
               1
     1  N   -0.756849
     2  H    0.413141
     3  H    0.430271
     4  H    0.408278
     5  C   -0.116810
     6  H    0.218157
     7  C    0.663194
     8  C   -0.388890
     9  H    0.160060
    10  H    0.224107
    11  O   -0.543397
    12  C    0.131377
    13  C   -0.228949
    14  H    0.209056
    15  C   -0.181296
    16  H    0.113722
    17  C   -0.124387
    18  H    0.175599
    19  C   -0.125889
    20  H    0.147575
    21  C   -0.127116
    22  H    0.151299
    23  N   -0.586640
    24  H    0.373235
    25  C   -0.114421
    26  H    0.205132
    27  C    0.651169
    28  C   -0.017141
    29  H    0.165332
    30  H    0.139796
    31  O   -0.548551
    32  O   -0.687451
    33  N   -0.621772
    34  H    0.382875
    35  C   -0.087594
    36  H    0.178627
    37  C    0.646914
    38  C   -0.039212
    39  H    0.163721
    40  H    0.161956
    41  O   -0.607002
    42  O   -0.630901
    43  H    0.405304
    44  N   -0.580505
    45  H    0.375467
    46  C   -0.086360
    47  H    0.181616
    48  C    0.642087
    49  C   -0.342911
    50  H    0.166517
    51  H    0.165182
    52  O   -0.525369
    53  C    0.579628
    54  O   -0.593963
    55  O   -0.603483
    56  N   -0.599308
    57  H    0.343312
    58  C   -0.062525
    59  H    0.220797
    60  C    0.591196
    61  C   -0.284148
    62  H    0.177747
    63  H    0.137986
    64  O   -0.444084
    65  C   -0.272882
    66  H    0.180986
    67  H    0.173301
    68  C   -0.182273
    69  H    0.155824
    70  H    0.189703
    71  N   -0.597766
    72  H    0.425143
    73  N   -0.755542
    74  H    0.373619
    75  H    0.377455
    76  N   -0.781738
    77  H    0.431700
    78  H    0.360636
    79  C    0.774174
    80  O   -0.577783
    81  H    0.457178
    82  H    0.423755
 Sum of Mulliken charges =   1.00000

 Dipole moment (field-independent basis, Debye):
    X=            -20.7403    Y=             14.7373    Z=             -3.5252  Tot=             25.6861
 Quadrupole moment (field-independent basis, Debye-Ang):
   XX=             28.8658   YY=           -164.3881   ZZ=           -194.3192
   XY=             34.4785   XZ=            -75.2843   YZ=            -67.4255

 Normal termination of Gaussian 16 at Tue May 17 05:37:20 2022.
