 Gaussian 16, Revision C.01,
 Gaussian 16:  ES64L-G16RevC.01  3-Jul-2019

 ----------------------------------------------------------------------
 # B3LYP/6-31G* empiricaldispersion=gd3 guess=read geom=check nosymm in
 tegral(ultrafinegrid)
 ----------------------------------------------------------------------

 ------------------------------------------------------
 Candidate Structure: Conf:962 Charge calc in gas phase
 ------------------------------------------------------
 Structure from the checkpoint file:  "conf-962.chk"
 Charge =  1 Multiplicity = 1

                          Input orientation:
 ---------------------------------------------------------------------
 Center     Atomic      Atomic             Coordinates (Angstroms)
 Number     Number       Type             X           Y           Z
 ---------------------------------------------------------------------
      1          7           0       -8.199001    3.890659    2.846991
      2          1           0       -7.925851    4.038757    3.821406
      3          1           0       -7.723411    4.591565    2.273846
      4          1           0       -9.205376    4.029531    2.767176
      5          6           0       -7.798723    2.543310    2.365531
      6          1           0       -8.143677    1.784549    3.075121
      7          6           0       -6.278982    2.513690    2.273989
      8          6           0       -8.387082    2.283670    0.979785
      9          1           0       -9.458673    2.493038    1.026407
     10          1           0       -7.936747    3.010441    0.301272
     11          8           0       -5.677871    3.297729    1.542316
     12          6           0       -8.171200    0.876833    0.491255
     13          6           0       -6.922787    0.466776    0.019428
     14          1           0       -6.103107    1.183923    0.001874
     15          6           0       -9.206519   -0.057757    0.537050
     16          1           0      -10.179287    0.246955    0.900728
     17          6           0       -6.712965   -0.845782   -0.387545
     18          1           0       -5.721188   -1.142250   -0.713277
     19          6           0       -9.001328   -1.368895    0.116870
     20          1           0       -9.821026   -2.077786    0.155343
     21          6           0       -7.749428   -1.767448   -0.348801
     22          1           0       -7.587974   -2.791359   -0.670133
     23          7           0       -5.636525    1.630344    3.078033
     24          1           0       -6.110398    0.822978    3.442962
     25          6           0       -4.206295    1.546426    3.048253
     26          1           0       -3.823613    2.552637    2.893945
     27          6           0       -3.695976    0.649384    1.899742
     28          6           0       -3.686981    1.027570    4.451652
     29          1           0       -4.019950    1.835279    5.140261
     30          1           0       -2.578337    1.172712    4.408081
     31          8           0       -4.363842   -0.203357    1.329369
     32          8           0       -4.073661   -0.139782    4.783699
     33          7           0       -2.392707    0.844167    1.589080
     34          1           0       -1.781501    1.446311    2.118592
     35          6           0       -1.774120    0.022937    0.581920
     36          1           0       -2.198725   -0.983922    0.640903
     37          6           0       -0.276330    0.027760    0.862100
     38          6           0       -2.068602    0.562069   -0.830232
     39          1           0       -1.722855    1.601370   -0.905585
     40          1           0       -3.152444    0.539243   -0.943782
     41          8           0        0.238453    0.912243    1.521179
     42          8           0       -1.496269   -0.255860   -1.831535
     43          1           0       -0.571417    0.002754   -1.966871
     44          7           0        0.433047   -0.991695    0.298777
     45          1           0       -0.035211   -1.527200   -0.414529
     46          6           0        1.863697   -0.840704    0.109699
     47          1           0        2.254269   -0.373902    1.012920
     48          6           0        2.141540    0.055489   -1.101021
     49          6           0        2.545718   -2.198873   -0.117992
     50          1           0        2.129641   -2.676830   -1.003720
     51          1           0        3.614763   -2.048629   -0.279619
     52          8           0        1.408132    0.068778   -2.083830
     53          6           0        2.355373   -3.128312    1.048873
     54          8           0        1.788421   -4.190806    1.006844
     55          8           0        2.893704   -2.629566    2.183759
     56          7           0        3.269544    0.808072   -1.023747
     57          1           0        3.930240    0.549396   -0.311416
     58          6           0        3.854264    1.351281   -2.236434
     59          1           0        3.039715    1.560101   -2.931706
     60          6           0        4.755581    0.309147   -2.869102
     61          6           0        4.645114    2.633059   -1.962370
     62          1           0        5.168258    2.904238   -2.874876
     63          1           0        5.400679    2.417277   -1.201856
     64          8           0        5.150117   -0.691502   -2.327292
     65          6           0        3.731319    3.762784   -1.511517
     66          1           0        3.184120    3.464934   -0.613624
     67          1           0        2.980569    3.942663   -2.286366
     68          6           0        4.445059    5.071134   -1.195096
     69          1           0        3.715968    5.786026   -0.809397
     70          1           0        5.183914    4.924062   -0.401740
     71          7           0        5.079989    5.716298   -2.360273
     72          1           0        4.446444    6.017427   -3.086914
     73          7           0        7.188812    4.716142   -2.106470
     74          1           0        8.184344    4.831645   -2.215439
     75          1           0        6.887735    4.344769   -1.219102
     76          7           0        6.738745    6.141440   -3.912855
     77          1           0        6.248448    6.983816   -4.186021
     78          1           0        7.726367    6.145953   -4.122152
     79          6           0        6.344638    5.538742   -2.762974
     80          8           0        5.091718    0.647953   -4.129680
     81          1           0        2.721729   -3.280833    2.876455
     82          1           0        5.679762   -0.047859   -4.447835
 ---------------------------------------------------------------------

 SCF Done:  E(RB3LYP) =  -2166.22153907     A.U. after    3 cycles

 Alpha  occ. eigenvalues --  -19.29564 -19.24936 -19.24189 -19.21477 -19.19163
 Alpha  occ. eigenvalues --  -19.18724 -19.18013 -19.17629 -19.13080 -19.01594
 Alpha  occ. eigenvalues --  -14.59319 -14.53580 -14.53528 -14.53071 -14.46045
 Alpha  occ. eigenvalues --  -14.41773 -14.41445 -14.37675 -10.48618 -10.41924
 Alpha  occ. eigenvalues --  -10.37985 -10.37610 -10.37597 -10.35809 -10.35636
 Alpha  occ. eigenvalues --  -10.34364 -10.34066 -10.31689 -10.31625 -10.31218
 Alpha  occ. eigenvalues --  -10.30091 -10.28693 -10.27272 -10.27087 -10.26191
 Alpha  occ. eigenvalues --  -10.25005 -10.23747 -10.23167 -10.22977 -10.22873
 Alpha  occ. eigenvalues --  -10.22842 -10.22401 -10.19926  -1.21039  -1.17990
 Alpha  occ. eigenvalues --   -1.16175  -1.14809  -1.13697  -1.11981  -1.10310
 Alpha  occ. eigenvalues --   -1.10160  -1.07574  -1.06999  -1.06564  -1.05801
 Alpha  occ. eigenvalues --   -1.05345  -1.03287  -0.99275  -0.97849  -0.94788
 Alpha  occ. eigenvalues --   -0.93565  -0.91993  -0.91498  -0.88765  -0.88096
 Alpha  occ. eigenvalues --   -0.86162  -0.82290  -0.81247  -0.79885  -0.79415
 Alpha  occ. eigenvalues --   -0.78656  -0.76680  -0.76079  -0.75724  -0.74111
 Alpha  occ. eigenvalues --   -0.73608  -0.72767  -0.71493  -0.71038  -0.71025
 Alpha  occ. eigenvalues --   -0.68873  -0.68544  -0.66884  -0.66814  -0.65959
 Alpha  occ. eigenvalues --   -0.65766  -0.65046  -0.64074  -0.63038  -0.62357
 Alpha  occ. eigenvalues --   -0.62300  -0.62095  -0.61506  -0.61127  -0.59613
 Alpha  occ. eigenvalues --   -0.59341  -0.58928  -0.58154  -0.57848  -0.57132
 Alpha  occ. eigenvalues --   -0.56693  -0.56045  -0.55833  -0.55576  -0.55433
 Alpha  occ. eigenvalues --   -0.54496  -0.53543  -0.53092  -0.52434  -0.51812
 Alpha  occ. eigenvalues --   -0.51547  -0.50993  -0.50833  -0.50510  -0.50096
 Alpha  occ. eigenvalues --   -0.49914  -0.49518  -0.49005  -0.48523  -0.48101
 Alpha  occ. eigenvalues --   -0.47950  -0.47554  -0.47324  -0.46983  -0.46658
 Alpha  occ. eigenvalues --   -0.46272  -0.45697  -0.45494  -0.44977  -0.44867
 Alpha  occ. eigenvalues --   -0.44805  -0.44258  -0.43947  -0.43586  -0.43489
 Alpha  occ. eigenvalues --   -0.42311  -0.41889  -0.41656  -0.40958  -0.40199
 Alpha  occ. eigenvalues --   -0.39172  -0.39062  -0.38156  -0.37985  -0.37274
 Alpha  occ. eigenvalues --   -0.37146  -0.36893  -0.36567  -0.35137  -0.33543
 Alpha  occ. eigenvalues --   -0.33296  -0.32395  -0.32201  -0.32017  -0.31367
 Alpha  occ. eigenvalues --   -0.30729  -0.29360  -0.29150  -0.27076  -0.26587
 Alpha  occ. eigenvalues --   -0.16886  -0.15617
 Alpha virt. eigenvalues --   -0.14844  -0.10190  -0.09630  -0.09198  -0.07815
 Alpha virt. eigenvalues --   -0.07212  -0.06214  -0.05352  -0.05279  -0.04670
 Alpha virt. eigenvalues --   -0.04607  -0.03862  -0.03299  -0.03011  -0.02201

 Mulliken charges:
               1
     1  N   -0.713065
     2  H    0.425958
     3  H    0.418441
     4  H    0.411142
     5  C   -0.131084
     6  H    0.209983
     7  C    0.615513
     8  C   -0.372483
     9  H    0.141045
    10  H    0.188595
    11  O   -0.545438
    12  C    0.146973
    13  C   -0.163853
    14  H    0.159902
    15  C   -0.187110
    16  H    0.112720
    17  C   -0.103092
    18  H    0.161468
    19  C   -0.127244
    20  H    0.138122
    21  C   -0.125704
    22  H    0.144161
    23  N   -0.549653
    24  H    0.345687
    25  C   -0.115458
    26  H    0.133659
    27  C    0.648651
    28  C    0.086185
    29  H    0.012701
    30  H    0.022428
    31  O   -0.542518
    32  O   -0.614866
    33  N   -0.619689
    34  H    0.347657
    35  C   -0.045066
    36  H    0.196634
    37  C    0.594544
    38  C   -0.047701
    39  H    0.121275
    40  H    0.177536
    41  O   -0.531404
    42  O   -0.650824
    43  H    0.426265
    44  N   -0.588727
    45  H    0.349975
    46  C   -0.094414
    47  H    0.203821
    48  C    0.634546
    49  C   -0.366853
    50  H    0.196730
    51  H    0.192933
    52  O   -0.527941
    53  C    0.586057
    54  O   -0.436995
    55  O   -0.565073
    56  N   -0.577981
    57  H    0.343796
    58  C   -0.064929
    59  H    0.219645
    60  C    0.587640
    61  C   -0.298828
    62  H    0.177275
    63  H    0.135309
    64  O   -0.449494
    65  C   -0.267000
    66  H    0.202872
    67  H    0.165537
    68  C   -0.196206
    69  H    0.210330
    70  H    0.175010
    71  N   -0.572208
    72  H    0.365679
    73  N   -0.730394
    74  H    0.376176
    75  H    0.379808
    76  N   -0.733600
    77  H    0.376097
    78  H    0.372684
    79  C    0.730720
    80  O   -0.564214
    81  H    0.423779
    82  H    0.427441
 Sum of Mulliken charges =   1.00000

 Dipole moment (field-independent basis, Debye):
    X=             13.1691    Y=             34.7461    Z=            -11.2213  Tot=             38.8154
 Quadrupole moment (field-independent basis, Debye-Ang):
   XX=            142.9454   YY=            -75.3795   ZZ=           -232.7551
   XY=             42.6743   XZ=           -117.4614   YZ=            -26.2109

 Normal termination of Gaussian 16 at Tue May 17 05:37:49 2022.
