 Gaussian 16, Revision C.01,
 Gaussian 16:  ES64L-G16RevC.01  3-Jul-2019

 ----------------------------------------------------------------------
 # B3LYP/6-31G* empiricaldispersion=gd3 guess=read geom=check nosymm in
 tegral(ultrafinegrid)
 ----------------------------------------------------------------------

 ------------------------------------------------------
 Candidate Structure: Conf:549 Charge calc in gas phase
 ------------------------------------------------------
 Structure from the checkpoint file:  "conf-549.chk"
 Charge =  1 Multiplicity = 1

                          Input orientation:
 ---------------------------------------------------------------------
 Center     Atomic      Atomic             Coordinates (Angstroms)
 Number     Number       Type             X           Y           Z
 ---------------------------------------------------------------------
      1          7           0       -3.353622    4.732276    1.940379
      2          1           0       -3.980076    5.442199    2.312216
      3          1           0       -2.428450    5.153637    1.929150
      4          6           0       -3.384711    3.540036    2.816590
      5          1           0       -2.627571    3.584673    3.617612
      6          6           0       -3.073442    2.328672    1.916554
      7          6           0       -4.768212    3.393248    3.457341
      8          1           0       -4.985811    4.323014    3.997726
      9          1           0       -5.515751    3.284001    2.667616
     10          8           0       -3.907941    1.502390    1.565419
     11          6           0       -4.868116    2.211251    4.433563
     12          1           0       -4.075984    2.242464    5.186866
     13          1           0       -4.768825    1.274805    3.875238
     14          6           0       -6.180916    2.156019    5.181912
     15          8           0       -6.304711    1.924150    6.361545
     16          8           0       -7.239792    2.379107    4.362343
     17          7           0       -1.768579    2.232230    1.504311
     18          1           0       -1.119550    2.992741    1.660705
     19          6           0       -1.411688    1.294501    0.460956
     20          1           0       -1.937316    0.361835    0.683554
     21          6           0        0.091429    1.048348    0.515178
     22          6           0       -1.862094    1.793553   -0.948422
     23          1           0       -1.590279    2.852087   -1.021114
     24          1           0       -2.955326    1.744467   -0.943265
     25          8           0        0.909637    1.944469    0.746313
     26          6           0       -1.266903    1.056810   -2.112998
     27          6           0       -0.616086    1.662245   -3.155727
     28          1           0       -0.502197    2.707291   -3.390991
     29          6           0       -1.226767   -0.361659   -2.383903
     30          6           0       -0.486943   -0.532138   -3.593412
     31          6           0       -1.703322   -1.505110   -1.716410
     32          1           0       -2.347069   -1.413559   -0.841876
     33          7           0       -0.131502    0.721858   -4.045669
     34          1           0        0.131534    0.992395   -4.995470
     35          6           0       -0.662461   -2.912269   -3.420907
     36          1           0       -0.461044   -3.905502   -3.807973
     37          6           0       -0.199205   -1.799457   -4.113593
     38          1           0        0.358318   -1.908733   -5.039239
     39          6           0       -1.412370   -2.773419   -2.235391
     40          1           0       -1.818664   -3.658271   -1.751971
     41          7           0        0.453683   -0.239267    0.272825
     42          1           0       -0.242254   -0.849854   -0.140057
     43          6           0        1.829871   -0.688495    0.213807
     44          1           0        2.370071   -0.243635    1.056994
     45          6           0        2.518801   -0.175981   -1.060394
     46          6           0        1.941679   -2.237664    0.330701
     47          1           0        3.002773   -2.473393    0.457833
     48          8           0        2.814188   -0.960965   -2.049043
     49          6           0        1.143026   -2.816354    1.489002
     50          1           0        1.442960   -2.350626    2.433018
     51          1           0        1.332258   -3.890133    1.553622
     52          1           0        0.067650   -2.658872    1.366570
     53          8           0        1.604262   -2.875667   -0.924095
     54          1           0        0.632870   -2.884362   -1.093102
     55          7           0        2.824008    1.088780   -1.156600
     56          1           0        2.513338    1.698611   -0.385471
     57          6           0        3.526573    1.647447   -2.315942
     58          1           0        3.421821    0.909717   -3.117651
     59          6           0        5.020858    1.696966   -1.970869
     60          6           0        2.925489    2.987144   -2.801453
     61          1           0        3.455453    3.835868   -2.358738
     62          1           0        1.880294    3.048689   -2.481754
     63          8           0        5.499312    1.240996   -0.961920
     64          6           0        3.003473    3.004110   -4.332821
     65          1           0        4.052763    2.969658   -4.645855
     66          1           0        2.533780    2.073115   -4.673231
     67          6           0        2.305399    4.165429   -5.060728
     68          1           0        1.401525    4.486774   -4.534599
     69          1           0        2.955588    5.041836   -5.130112
     70          7           0        1.913504    3.761262   -6.432778
     71          1           0        2.716030    3.447087   -6.970724
     72          7           0       -0.343339    3.404984   -6.073858
     73          1           0       -1.157402    2.821966   -6.229104
     74          1           0       -0.469616    4.365951   -6.367723
     75          7           0        0.900766    1.574012   -6.757863
     76          1           0        1.861450    1.291164   -6.949906
     77          6           0        0.850353    2.832745   -6.474088
     78          8           0        5.720106    2.283539   -2.958107
     79          1           0        2.390877   -1.903069   -1.891065
     80          1           0        6.660879    2.269622   -2.703123
     81          1           0       -8.035842    2.307670    4.919305
 ---------------------------------------------------------------------

 SCF Done:  E(RB3LYP) =  -2054.00862010     A.U. after    1 cycles

 Alpha  occ. eigenvalues --  -19.35043 -19.31939 -19.31260 -19.26265 -19.25692
 Alpha  occ. eigenvalues --  -19.24274 -19.19631 -19.18471 -14.53801 -14.50101
 Alpha  occ. eigenvalues --  -14.46753 -14.44798 -14.44651 -14.44407 -14.40081
 Alpha  occ. eigenvalues --  -14.39597 -10.47811 -10.44619 -10.42202 -10.39635
 Alpha  occ. eigenvalues --  -10.39582 -10.38816 -10.37881 -10.36804 -10.36551
 Alpha  occ. eigenvalues --  -10.33943 -10.32417 -10.32403 -10.31899 -10.31552
 Alpha  occ. eigenvalues --  -10.30702 -10.30079 -10.29860 -10.29678 -10.29494
 Alpha  occ. eigenvalues --  -10.29359 -10.29338 -10.29126 -10.29116 -10.28471
 Alpha  occ. eigenvalues --  -10.25514 -10.25363  -1.25709  -1.22949  -1.17692
 Alpha  occ. eigenvalues --   -1.17297  -1.15117  -1.14286  -1.11692  -1.11030
 Alpha  occ. eigenvalues --   -1.07970  -1.07410  -1.07030  -1.06111  -1.01497
 Alpha  occ. eigenvalues --   -0.98702  -0.96545  -0.95144  -0.94654  -0.94414
 Alpha  occ. eigenvalues --   -0.92281  -0.90321  -0.87283  -0.86141  -0.85439
 Alpha  occ. eigenvalues --   -0.84619  -0.83904  -0.82255  -0.79995  -0.78586
 Alpha  occ. eigenvalues --   -0.77892  -0.77274  -0.76146  -0.74497  -0.72983
 Alpha  occ. eigenvalues --   -0.72504  -0.71763  -0.70477  -0.70102  -0.69358
 Alpha  occ. eigenvalues --   -0.68512  -0.68455  -0.67471  -0.66427  -0.65478
 Alpha  occ. eigenvalues --   -0.65134  -0.65021  -0.64261  -0.63198  -0.62952
 Alpha  occ. eigenvalues --   -0.61746  -0.60352  -0.60152  -0.59461  -0.58941
 Alpha  occ. eigenvalues --   -0.58770  -0.58312  -0.58083  -0.57804  -0.57501
 Alpha  occ. eigenvalues --   -0.57092  -0.56506  -0.56193  -0.55582  -0.55559
 Alpha  occ. eigenvalues --   -0.55514  -0.54862  -0.54493  -0.54323  -0.53843
 Alpha  occ. eigenvalues --   -0.53651  -0.53008  -0.52773  -0.52492  -0.51815
 Alpha  occ. eigenvalues --   -0.51700  -0.51506  -0.50768  -0.50652  -0.50527
 Alpha  occ. eigenvalues --   -0.50372  -0.50287  -0.49515  -0.49419  -0.48792
 Alpha  occ. eigenvalues --   -0.48338  -0.47570  -0.47531  -0.46892  -0.46596
 Alpha  occ. eigenvalues --   -0.46299  -0.45894  -0.45254  -0.44991  -0.44663
 Alpha  occ. eigenvalues --   -0.44282  -0.44135  -0.43894  -0.43429  -0.43301
 Alpha  occ. eigenvalues --   -0.42634  -0.42141  -0.40849  -0.40308  -0.39857
 Alpha  occ. eigenvalues --   -0.39233  -0.38875  -0.37821  -0.36456  -0.35409
 Alpha  occ. eigenvalues --   -0.34821  -0.34132  -0.33325  -0.33109  -0.32017
 Alpha  occ. eigenvalues --   -0.30883  -0.30582
 Alpha virt. eigenvalues --   -0.17005  -0.12588  -0.11513  -0.11268  -0.09187
 Alpha virt. eigenvalues --   -0.07505  -0.06169  -0.06024  -0.04487  -0.03698
 Alpha virt. eigenvalues --   -0.03622  -0.03122  -0.02909  -0.01696  -0.01466

 Mulliken charges:
               1
     1  N   -0.728957
     2  H    0.320231
     3  H    0.296884
     4  C   -0.085999
     5  H    0.135448
     6  C    0.670278
     7  C   -0.274895
     8  H    0.143011
     9  H    0.195689
    10  O   -0.522615
    11  C   -0.357236
    12  H    0.165580
    13  H    0.201590
    14  C    0.566329
    15  O   -0.454781
    16  O   -0.560185
    17  N   -0.621149
    18  H    0.338819
    19  C   -0.050823
    20  H    0.184113
    21  C    0.638555
    22  C   -0.343873
    23  H    0.156958
    24  H    0.210895
    25  O   -0.557549
    26  C    0.060503
    27  C   -0.031819
    28  H    0.175951
    29  C    0.075624
    30  C    0.301138
    31  C   -0.303144
    32  H    0.171921
    33  N   -0.713358
    34  H    0.394954
    35  C   -0.154073
    36  H    0.159957
    37  C   -0.165895
    38  H    0.162153
    39  C   -0.200479
    40  H    0.160595
    41  N   -0.613626
    42  H    0.362336
    43  C   -0.078905
    44  H    0.227945
    45  C    0.666679
    46  C    0.066750
    47  H    0.200304
    48  O   -0.578047
    49  C   -0.468383
    50  H    0.186844
    51  H    0.202726
    52  H    0.166540
    53  O   -0.664261
    54  H    0.430790
    55  N   -0.559244
    56  H    0.413674
    57  C   -0.078110
    58  H    0.231471
    59  C    0.603045
    60  C   -0.294911
    61  H    0.179827
    62  H    0.173301
    63  O   -0.439744
    64  C   -0.305043
    65  H    0.178972
    66  H    0.146451
    67  C   -0.166728
    68  H    0.171125
    69  H    0.177050
    70  N   -0.567034
    71  H    0.322954
    72  N   -0.724596
    73  H    0.352519
    74  H    0.355775
    75  N   -0.639892
    76  H    0.287461
    77  C    0.525610
    78  O   -0.554030
    79  H    0.490112
    80  H    0.437961
    81  H    0.413982
 Sum of Mulliken charges =   1.00000

 Dipole moment (field-independent basis, Debye):
    X=              9.7671    Y=              5.6866    Z=            -10.4058  Tot=             15.3628
 Quadrupole moment (field-independent basis, Debye-Ang):
   XX=           -201.0346   YY=           -179.8832   ZZ=           -201.3611
   XY=              6.0030   XZ=            -25.1213   YZ=            -24.6958

 Normal termination of Gaussian 16 at Sun May 15 18:54:45 2022.
