 Gaussian 16, Revision C.01,
 Gaussian 16:  ES64L-G16RevC.01  3-Jul-2019

 ----------------------------------------------------------------------
 # B3LYP/6-31G* empiricaldispersion=gd3 guess=read geom=check nosymm in
 tegral(ultrafinegrid)
 ----------------------------------------------------------------------

 ------------------------------------------------------
 Candidate Structure: Conf:684 Charge calc in gas phase
 ------------------------------------------------------
 Structure from the checkpoint file:  "conf-684.chk"
 Charge =  1 Multiplicity = 1

                          Input orientation:
 ---------------------------------------------------------------------
 Center     Atomic      Atomic             Coordinates (Angstroms)
 Number     Number       Type             X           Y           Z
 ---------------------------------------------------------------------
      1          7           0       -4.204755    1.395875    2.502094
      2          1           0       -4.824163    1.320791    1.697349
      3          1           0       -4.773319    1.312772    3.339125
      4          6           0       -3.154806    0.375948    2.465674
      5          1           0       -2.848903    0.152551    3.493876
      6          6           0       -1.923573    0.900929    1.705938
      7          6           0       -3.521606   -0.930743    1.717781
      8          1           0       -3.560509   -0.699867    0.649971
      9          1           0       -2.714532   -1.654204    1.858906
     10          8           0       -0.956745    0.136902    1.502238
     11          6           0       -4.855204   -1.568884    2.079956
     12          1           0       -5.673875   -0.838388    2.032430
     13          1           0       -4.873439   -1.991799    3.090409
     14          6           0       -5.178626   -2.655552    1.071101
     15          8           0       -4.607596   -2.810842    0.007174
     16          8           0       -6.201212   -3.428302    1.477865
     17          7           0       -2.021166    2.137693    1.201715
     18          1           0       -2.875217    2.619507    1.487636
     19          6           0       -1.394395    2.538290   -0.063563
     20          1           0       -1.464501    1.676759   -0.737976
     21          6           0        0.093547    2.869615    0.143639
     22          6           0       -2.159122    3.728409   -0.687425
     23          1           0       -1.850159    3.785063   -1.740353
     24          1           0       -1.812689    4.648947   -0.206429
     25          8           0        0.466184    3.852490    0.759908
     26          6           0       -3.652458    3.605890   -0.553878
     27          6           0       -4.482496    4.575420   -0.041629
     28          1           0       -4.240028    5.578247    0.282932
     29          6           0       -4.487193    2.452065   -0.807740
     30          6           0       -5.812346    2.803500   -0.419276
     31          6           0       -4.251284    1.137691   -1.251607
     32          1           0       -3.256745    0.824185   -1.552170
     33          7           0       -5.775961    4.107625    0.025701
     34          1           0       -6.572086    4.640211    0.342491
     35          6           0       -6.600505    0.598511   -0.885290
     36          1           0       -7.403506   -0.131781   -0.921833
     37          6           0       -6.873783    1.892997   -0.454938
     38          1           0       -7.874475    2.184029   -0.148575
     39          6           0       -5.299006    0.223269   -1.281762
     40          1           0       -5.108778   -0.800210   -1.594354
     41          7           0        0.952673    1.948452   -0.419308
     42          1           0        0.557917    1.101831   -0.805648
     43          6           0        2.336177    1.851984    0.035868
     44          1           0        2.660462    2.869076    0.279271
     45          6           0        3.233109    1.278325   -1.089132
     46          6           0        2.461788    0.950143    1.294051
     47          1           0        3.472436    0.547882    1.335256
     48          8           0        4.038735    0.370927   -0.885435
     49          6           0        2.105586    1.652496    2.594324
     50          1           0        2.779168    2.500122    2.751880
     51          1           0        2.217397    0.958915    3.432794
     52          1           0        1.084324    2.040351    2.582535
     53          8           0        1.614074   -0.235059    1.136159
     54          1           0        0.671263   -0.022257    1.387735
     55          7           0        3.045031    1.820060   -2.314529
     56          1           0        2.406951    2.598448   -2.414017
     57          6           0        3.764853    1.346808   -3.495246
     58          1           0        4.843026    1.408564   -3.303759
     59          6           0        3.501151    2.236404   -4.708625
     60          6           0        3.417173   -0.115902   -3.859989
     61          1           0        3.825091   -0.757449   -3.072518
     62          1           0        3.951916   -0.355778   -4.783446
     63          8           0        3.957717    2.008544   -5.801337
     64          6           0        1.898846   -0.339093   -4.016980
     65          1           0        1.364466    0.255798   -3.269932
     66          1           0        1.570202    0.032708   -4.994285
     67          6           0        1.495895   -1.833365   -3.869096
     68          1           0        1.236111   -2.282120   -4.831246
     69          1           0        2.345769   -2.412343   -3.491811
     70          7           0        0.356962   -2.075637   -2.966610
     71          1           0       -0.526066   -2.265863   -3.417830
     72          7           0       -0.936233   -1.497301   -1.114807
     73          1           0       -0.944180   -1.257207   -0.128334
     74          1           0       -1.671619   -2.140577   -1.384327
     75          7           0        1.352044   -1.192063   -1.032315
     76          1           0        2.240851   -1.299073   -1.508306
     77          6           0        0.291963   -1.601644   -1.698782
     78          8           0        2.694947    3.292592   -4.437713
     79          1           0        1.468502   -0.673871    0.020513
     80          1           0        2.603452    3.803722   -5.265072
     81          1           0       -6.367193   -4.087946    0.776940
 ---------------------------------------------------------------------

 SCF Done:  E(RB3LYP) =  -2054.06602551     A.U. after    1 cycles

 Alpha  occ. eigenvalues --  -19.30210 -19.28538 -19.28240 -19.24394 -19.23783
 Alpha  occ. eigenvalues --  -19.23153 -19.22327 -19.22139 -14.49404 -14.48180
 Alpha  occ. eigenvalues --  -14.47244 -14.47087 -14.46797 -14.46590 -14.45031
 Alpha  occ. eigenvalues --  -14.42486 -10.44366 -10.42287 -10.41372 -10.40336
 Alpha  occ. eigenvalues --  -10.39433 -10.39421 -10.34781 -10.34581 -10.34529
 Alpha  occ. eigenvalues --  -10.34438 -10.34126 -10.33140 -10.31226 -10.31117
 Alpha  occ. eigenvalues --  -10.29835 -10.29561 -10.29436 -10.29148 -10.28476
 Alpha  occ. eigenvalues --  -10.28042 -10.27890 -10.27824 -10.27708 -10.27479
 Alpha  occ. eigenvalues --  -10.27081 -10.26922  -1.20784  -1.19521  -1.16703
 Alpha  occ. eigenvalues --   -1.15151  -1.14376  -1.13939  -1.12804  -1.11801
 Alpha  occ. eigenvalues --   -1.10478  -1.07139  -1.04273  -1.03939  -1.02858
 Alpha  occ. eigenvalues --   -1.02547  -0.99881  -0.99381  -0.93020  -0.90924
 Alpha  occ. eigenvalues --   -0.90329  -0.88736  -0.88528  -0.86026  -0.85831
 Alpha  occ. eigenvalues --   -0.82663  -0.82019  -0.81698  -0.80624  -0.79546
 Alpha  occ. eigenvalues --   -0.76144  -0.75349  -0.74185  -0.73059  -0.72396
 Alpha  occ. eigenvalues --   -0.71303  -0.70352  -0.69982  -0.69710  -0.68562
 Alpha  occ. eigenvalues --   -0.68358  -0.67768  -0.67243  -0.67061  -0.65622
 Alpha  occ. eigenvalues --   -0.65045  -0.64147  -0.63697  -0.63385  -0.62220
 Alpha  occ. eigenvalues --   -0.61151  -0.60474  -0.59774  -0.59327  -0.59018
 Alpha  occ. eigenvalues --   -0.58579  -0.58440  -0.57984  -0.57781  -0.57284
 Alpha  occ. eigenvalues --   -0.57072  -0.56757  -0.56642  -0.55862  -0.55501
 Alpha  occ. eigenvalues --   -0.55269  -0.54818  -0.53643  -0.53377  -0.53207
 Alpha  occ. eigenvalues --   -0.52825  -0.52370  -0.52160  -0.51985  -0.51785
 Alpha  occ. eigenvalues --   -0.51401  -0.51266  -0.50912  -0.50730  -0.50281
 Alpha  occ. eigenvalues --   -0.50002  -0.49564  -0.49310  -0.48773  -0.48175
 Alpha  occ. eigenvalues --   -0.47922  -0.47503  -0.47070  -0.46641  -0.46416
 Alpha  occ. eigenvalues --   -0.46036  -0.45835  -0.45706  -0.45486  -0.44347
 Alpha  occ. eigenvalues --   -0.44294  -0.44203  -0.43684  -0.42348  -0.42228
 Alpha  occ. eigenvalues --   -0.41934  -0.41219  -0.40766  -0.39327  -0.39105
 Alpha  occ. eigenvalues --   -0.38687  -0.37911  -0.37634  -0.37484  -0.36805
 Alpha  occ. eigenvalues --   -0.36477  -0.35972  -0.35543  -0.34695  -0.34207
 Alpha  occ. eigenvalues --   -0.31463  -0.29617
 Alpha virt. eigenvalues --   -0.10853  -0.10208  -0.09977  -0.09286  -0.09268
 Alpha virt. eigenvalues --   -0.08138  -0.08051  -0.06731  -0.06139  -0.04009
 Alpha virt. eigenvalues --   -0.02927  -0.02612  -0.02060  -0.01523  -0.00930

 Mulliken charges:
               1
     1  N   -0.769333
     2  H    0.343890
     3  H    0.330188
     4  C   -0.054762
     5  H    0.179882
     6  C    0.628547
     7  C   -0.297393
     8  H    0.170126
     9  H    0.167159
    10  O   -0.615290
    11  C   -0.366352
    12  H    0.179705
    13  H    0.189265
    14  C    0.601791
    15  O   -0.485503
    16  O   -0.553712
    17  N   -0.570260
    18  H    0.391052
    19  C   -0.066933
    20  H    0.153908
    21  C    0.641515
    22  C   -0.376701
    23  H    0.168122
    24  H    0.193793
    25  O   -0.499188
    26  C    0.023517
    27  C    0.014444
    28  H    0.176392
    29  C    0.077522
    30  C    0.305841
    31  C   -0.235542
    32  H    0.123717
    33  N   -0.676722
    34  H    0.344708
    35  C   -0.167205
    36  H    0.145722
    37  C   -0.169971
    38  H    0.147424
    39  C   -0.146396
    40  H    0.151433
    41  N   -0.636243
    42  H    0.341943
    43  C   -0.112577
    44  H    0.221422
    45  C    0.620119
    46  C    0.125593
    47  H    0.208736
    48  O   -0.530670
    49  C   -0.484986
    50  H    0.180625
    51  H    0.178186
    52  H    0.177308
    53  O   -0.709288
    54  H    0.478714
    55  N   -0.622763
    56  H    0.366880
    57  C   -0.031153
    58  H    0.218894
    59  C    0.590895
    60  C   -0.304933
    61  H    0.178558
    62  H    0.196276
    63  O   -0.439512
    64  C   -0.299789
    65  H    0.153631
    66  H    0.174968
    67  C   -0.180302
    68  H    0.192749
    69  H    0.188729
    70  N   -0.590166
    71  H    0.350694
    72  N   -0.796504
    73  H    0.395129
    74  H    0.368005
    75  N   -0.830219
    76  H    0.367831
    77  C    0.748446
    78  O   -0.584947
    79  H    0.478839
    80  H    0.431903
    81  H    0.420576
 Sum of Mulliken charges =   1.00000

 Dipole moment (field-independent basis, Debye):
    X=             -9.8955    Y=              2.2532    Z=             -4.1299  Tot=             10.9569
 Quadrupole moment (field-independent basis, Debye-Ang):
   XX=           -163.7388   YY=           -197.8871   ZZ=           -205.8417
   XY=             -9.5226   XZ=            -21.0655   YZ=              3.5168

 Normal termination of Gaussian 16 at Sun May 15 18:54:49 2022.
