 Gaussian 16, Revision C.01,
 Gaussian 16:  ES64L-G16RevC.01  3-Jul-2019

 ----------------------------------------------------------------------
 # B3LYP/6-31G* empiricaldispersion=gd3 guess=read geom=check nosymm in
 tegral(ultrafinegrid)
 ----------------------------------------------------------------------

 ------------------------------------------------------
 Candidate Structure: Conf:962 Charge calc in gas phase
 ------------------------------------------------------
 Structure from the checkpoint file:  "conf-962.chk"
 Charge =  1 Multiplicity = 1

                          Input orientation:
 ---------------------------------------------------------------------
 Center     Atomic      Atomic             Coordinates (Angstroms)
 Number     Number       Type             X           Y           Z
 ---------------------------------------------------------------------
      1          7           0       -3.775792   -1.582379    2.960863
      2          1           0       -4.401003   -1.932468    2.237038
      3          1           0       -2.937615   -2.160246    2.901422
      4          6           0       -3.412564   -0.200669    2.673436
      5          1           0       -4.333379    0.364114    2.499281
      6          6           0       -2.523471   -0.081871    1.421162
      7          6           0       -2.704805    0.387448    3.916405
      8          1           0       -3.373076    0.210966    4.764333
      9          1           0       -1.794565   -0.197324    4.105068
     10          8           0       -1.774339   -1.019042    1.080775
     11          6           0       -2.310565    1.879430    3.864806
     12          1           0       -1.620706    2.066260    3.033266
     13          1           0       -1.801069    2.144984    4.793878
     14          6           0       -3.492794    2.819964    3.727522
     15          8           0       -3.982782    3.482633    4.606013
     16          8           0       -3.959697    2.839465    2.441812
     17          7           0       -2.583751    1.075660    0.733138
     18          1           0       -3.221266    1.793103    1.073687
     19          6           0       -2.039364    1.264942   -0.611473
     20          1           0       -2.213444    0.336132   -1.175973
     21          6           0       -0.520765    1.481248   -0.642581
     22          6           0       -2.771148    2.420297   -1.323943
     23          1           0       -2.375264    2.490058   -2.339862
     24          1           0       -2.496086    3.361128   -0.835781
     25          8           0        0.003869    2.344699   -1.359865
     26          6           0       -4.264282    2.246996   -1.267899
     27          6           0       -5.013157    1.171426   -1.695474
     28          1           0       -4.706366    0.269272   -2.211180
     29          6           0       -5.172346    3.137542   -0.589503
     30          6           0       -6.462002    2.540746   -0.636991
     31          6           0       -5.016115    4.368617    0.074512
     32          1           0       -4.047832    4.862092    0.101270
     33          7           0       -6.329675    1.352886   -1.323400
     34          1           0       -7.079778    0.713460   -1.537038
     35          6           0       -7.391108    4.328278    0.637689
     36          1           0       -8.236028    4.807427    1.122620
     37          6           0       -7.580274    3.126229   -0.032354
     38          1           0       -8.557857    2.654833   -0.077355
     39          6           0       -6.120853    4.946234    0.691261
     40          1           0       -6.016738    5.899066    1.202546
     41          7           0        0.211862    0.608435    0.095813
     42          1           0       -0.307502   -0.191102    0.491403
     43          6           0        1.648116    0.725095    0.272237
     44          1           0        1.896573    1.792058    0.365486
     45          6           0        2.415289    0.242003   -0.975906
     46          6           0        2.077384   -0.018531    1.569813
     47          1           0        1.702550    0.564321    2.419068
     48          8           0        3.453185   -0.541915   -0.912963
     49          6           0        1.586712   -1.458949    1.675739
     50          1           0        0.501435   -1.515038    1.789777
     51          1           0        2.047838   -1.916258    2.554549
     52          1           0        1.876059   -2.043970    0.795817
     53          8           0        3.521109   -0.082002    1.614944
     54          1           0        3.734320   -0.602044    0.056237
     55          7           0        1.995924    0.646766   -2.138465
     56          1           0        1.253143    1.370150   -2.103590
     57          6           0        2.611363    0.318091   -3.423560
     58          1           0        2.918571   -0.732940   -3.400138
     59          6           0        3.880303    1.167609   -3.588312
     60          6           0        1.581263    0.534070   -4.548162
     61          1           0        2.064713    0.253651   -5.489018
     62          1           0        1.344141    1.603561   -4.621297
     63          8           0        4.299051    1.939136   -2.760760
     64          6           0        0.299241   -0.280611   -4.333682
     65          1           0        0.557844   -1.333086   -4.148413
     66          1           0       -0.231825    0.073181   -3.441169
     67          6           0       -0.670249   -0.203863   -5.523930
     68          1           0       -0.902906    0.839841   -5.751012
     69          1           0       -0.209516   -0.637398   -6.418278
     70          7           0       -1.927694   -0.917249   -5.276534
     71          1           0       -1.797503   -1.917769   -5.171430
     72          7           0       -3.123964    0.940465   -4.534051
     73          1           0       -3.907910    1.311159   -4.009184
     74          1           0       -2.924794    1.352074   -5.437204
     75          7           0       -3.460152   -1.066020   -3.426507
     76          1           0       -3.109702   -2.022102   -3.360266
     77          6           0       -2.859263   -0.410312   -4.358674
     78          8           0        4.453256    0.917047   -4.776772
     79          1           0        3.895864    0.787549    1.836033
     80          1           0        5.257671    1.466776   -4.843090
     81          1           0       -4.703225    3.472265    2.364339
 ---------------------------------------------------------------------

 SCF Done:  E(RB3LYP) =  -2054.02824180     A.U. after    1 cycles

 Alpha  occ. eigenvalues --  -19.35512 -19.31947 -19.31607 -19.28026 -19.26135
 Alpha  occ. eigenvalues --  -19.25329 -19.22553 -19.21920 -14.53154 -14.48836
 Alpha  occ. eigenvalues --  -14.45813 -14.45426 -14.44123 -14.43060 -14.39409
 Alpha  occ. eigenvalues --  -14.37624 -10.47797 -10.44425 -10.41715 -10.40148
 Alpha  occ. eigenvalues --  -10.39736 -10.39712 -10.38496 -10.37989 -10.37405
 Alpha  occ. eigenvalues --  -10.34053 -10.32566 -10.31866 -10.31063 -10.30263
 Alpha  occ. eigenvalues --  -10.30241 -10.29321 -10.28700 -10.28618 -10.28311
 Alpha  occ. eigenvalues --  -10.28203 -10.26259 -10.26213 -10.26054 -10.25963
 Alpha  occ. eigenvalues --  -10.25714 -10.25620  -1.26192  -1.22650  -1.18465
 Alpha  occ. eigenvalues --   -1.18346  -1.17202  -1.14082  -1.13818  -1.11113
 Alpha  occ. eigenvalues --   -1.09676  -1.06514  -1.06038  -1.05328  -1.02665
 Alpha  occ. eigenvalues --   -0.97676  -0.97172  -0.94443  -0.93233  -0.91950
 Alpha  occ. eigenvalues --   -0.91334  -0.89293  -0.87764  -0.87303  -0.85586
 Alpha  occ. eigenvalues --   -0.84206  -0.80973  -0.80185  -0.79604  -0.78842
 Alpha  occ. eigenvalues --   -0.78190  -0.76386  -0.76132  -0.73786  -0.72986
 Alpha  occ. eigenvalues --   -0.71824  -0.70982  -0.69717  -0.69594  -0.69298
 Alpha  occ. eigenvalues --   -0.69046  -0.68852  -0.67127  -0.66704  -0.65800
 Alpha  occ. eigenvalues --   -0.64452  -0.64382  -0.64248  -0.63387  -0.62148
 Alpha  occ. eigenvalues --   -0.61427  -0.60811  -0.60263  -0.59816  -0.59297
 Alpha  occ. eigenvalues --   -0.59165  -0.58691  -0.58015  -0.57488  -0.57225
 Alpha  occ. eigenvalues --   -0.56517  -0.56187  -0.56009  -0.55471  -0.55262
 Alpha  occ. eigenvalues --   -0.54926  -0.54487  -0.54234  -0.54159  -0.53294
 Alpha  occ. eigenvalues --   -0.53108  -0.52922  -0.52298  -0.52218  -0.51835
 Alpha  occ. eigenvalues --   -0.51553  -0.51512  -0.50497  -0.50410  -0.50291
 Alpha  occ. eigenvalues --   -0.50075  -0.49800  -0.49455  -0.49059  -0.48790
 Alpha  occ. eigenvalues --   -0.48284  -0.47890  -0.47781  -0.47732  -0.47391
 Alpha  occ. eigenvalues --   -0.46366  -0.46083  -0.45444  -0.45055  -0.44656
 Alpha  occ. eigenvalues --   -0.44572  -0.44207  -0.44132  -0.43674  -0.42743
 Alpha  occ. eigenvalues --   -0.42535  -0.40951  -0.40815  -0.40120  -0.40052
 Alpha  occ. eigenvalues --   -0.39764  -0.39164  -0.36573  -0.36185  -0.35781
 Alpha  occ. eigenvalues --   -0.35312  -0.34716  -0.33802  -0.32122  -0.31516
 Alpha  occ. eigenvalues --   -0.29843  -0.27845
 Alpha virt. eigenvalues --   -0.17155  -0.11618  -0.11153  -0.08895  -0.08463
 Alpha virt. eigenvalues --   -0.08135  -0.07451  -0.05176  -0.04059  -0.03748
 Alpha virt. eigenvalues --   -0.03387  -0.02491  -0.01967  -0.01456  -0.01120

 Mulliken charges:
               1
     1  N   -0.686749
     2  H    0.310977
     3  H    0.310706
     4  C   -0.086137
     5  H    0.171488
     6  C    0.586987
     7  C   -0.266143
     8  H    0.197007
     9  H    0.145307
    10  O   -0.576521
    11  C   -0.357868
    12  H    0.151112
    13  H    0.190602
    14  C    0.583770
    15  O   -0.428463
    16  O   -0.601810
    17  N   -0.623358
    18  H    0.418403
    19  C   -0.075673
    20  H    0.215254
    21  C    0.641602
    22  C   -0.382569
    23  H    0.183433
    24  H    0.166443
    25  O   -0.551213
    26  C    0.007319
    27  C   -0.035133
    28  H    0.233820
    29  C    0.086189
    30  C    0.314830
    31  C   -0.248078
    32  H    0.134989
    33  N   -0.691258
    34  H    0.340139
    35  C   -0.148066
    36  H    0.148090
    37  C   -0.159477
    38  H    0.143067
    39  C   -0.167046
    40  H    0.145889
    41  N   -0.652332
    42  H    0.418178
    43  C   -0.079584
    44  H    0.224487
    45  C    0.643791
    46  C    0.061207
    47  H    0.188348
    48  O   -0.563702
    49  C   -0.492162
    50  H    0.211901
    51  H    0.203268
    52  H    0.162555
    53  O   -0.633759
    54  H    0.482135
    55  N   -0.567917
    56  H    0.433288
    57  C   -0.072226
    58  H    0.217961
    59  C    0.610173
    60  C   -0.311714
    61  H    0.197210
    62  H    0.175882
    63  O   -0.446037
    64  C   -0.276705
    65  H    0.143827
    66  H    0.157567
    67  C   -0.153164
    68  H    0.160788
    69  H    0.171422
    70  N   -0.580898
    71  H    0.319503
    72  N   -0.766390
    73  H    0.359837
    74  H    0.343920
    75  N   -0.658965
    76  H    0.277041
    77  C    0.597637
    78  O   -0.552846
    79  H    0.434843
    80  H    0.438142
    81  H    0.431623
 Sum of Mulliken charges =   1.00000

 Dipole moment (field-independent basis, Debye):
    X=              3.0928    Y=              1.4555    Z=             -8.0996  Tot=              8.7914
 Quadrupole moment (field-independent basis, Debye-Ang):
   XX=           -169.0008   YY=           -236.4120   ZZ=           -192.5708
   XY=             -2.6063   XZ=              2.0307   YZ=             -1.2838

 Normal termination of Gaussian 16 at Sun May 15 18:54:46 2022.
