 Gaussian 16, Revision C.01,
 Gaussian 16:  ES64L-G16RevC.01  3-Jul-2019

 ----------------------------------------------------------------------
 # B3LYP/6-31G* empiricaldispersion=gd3 guess=read geom=check nosymm in
 tegral(ultrafinegrid)
 ----------------------------------------------------------------------

 ------------------------------------------------------
 Candidate Structure: Conf:302 Charge calc in gas phase
 ------------------------------------------------------
 Structure from the checkpoint file:  "conf-302.chk"
 Charge =  1 Multiplicity = 1

                          Input orientation:
 ---------------------------------------------------------------------
 Center     Atomic      Atomic             Coordinates (Angstroms)
 Number     Number       Type             X           Y           Z
 ---------------------------------------------------------------------
      1          7           0       -4.765861    0.092091    3.257065
      2          1           0       -5.142642   -0.249747    4.139018
      3          1           0       -5.174072    1.009086    3.087619
      4          6           0       -3.300700    0.152291    3.348325
      5          1           0       -2.930666    1.017120    3.933896
      6          6           0       -2.760061    0.329691    1.917710
      7          6           0       -2.733256   -1.117960    4.000737
      8          1           0       -1.647329   -1.112452    3.866059
      9          1           0       -2.931064   -1.068162    5.076505
     10          8           0       -2.082444   -0.525340    1.329992
     11          6           0       -3.299909   -2.433561    3.450921
     12          1           0       -2.597570   -3.256000    3.637999
     13          1           0       -3.432654   -2.393342    2.367183
     14          6           0       -4.611154   -2.838379    4.089038
     15          8           0       -5.152617   -2.290987    5.029433
     16          8           0       -5.121954   -3.941216    3.499929
     17          7           0       -3.077352    1.513908    1.332236
     18          1           0       -3.690175    2.136225    1.844241
     19          6           0       -3.023456    1.712668   -0.120999
     20          1           0       -3.290840    0.759606   -0.592836
     21          6           0       -1.579203    2.071284   -0.506650
     22          6           0       -4.020648    2.804545   -0.561457
     23          1           0       -4.000961    2.851772   -1.655518
     24          1           0       -3.655622    3.774941   -0.207803
     25          8           0       -1.173083    3.217334   -0.662383
     26          6           0       -5.403503    2.523644   -0.049695
     27          6           0       -6.354514    1.713778   -0.622238
     28          1           0       -6.349009    1.218054   -1.583568
     29          6           0       -5.921412    2.908774    1.239951
     30          6           0       -7.185860    2.274249    1.392953
     31          6           0       -5.425394    3.699113    2.296242
     32          1           0       -4.484285    4.236467    2.193057
     33          7           0       -7.426383    1.568785    0.233493
     34          1           0       -8.255667    1.028269    0.040897
     35          6           0       -7.415221    3.157720    3.597274
     36          1           0       -7.976212    3.262732    4.520892
     37          6           0       -7.942286    2.391286    2.563053
     38          1           0       -8.902795    1.894461    2.665365
     39          6           0       -6.171263    3.809547    3.465037
     40          1           0       -5.799664    4.417072    4.284931
     41          7           0       -0.754017    0.977991   -0.641234
     42          1           0       -1.066051    0.100341   -0.211706
     43          6           0        0.654855    1.203298   -0.812170
     44          1           0        0.774355    2.058981   -1.487519
     45          6           0        1.381838   -0.035237   -1.325216
     46          6           0        1.269301    1.593945    0.560567
     47          1           0        0.889113    2.575178    0.847748
     48          8           0        1.168548   -1.147765   -0.872167
     49          6           0        1.194016    0.580418    1.676420
     50          1           0        0.143921    0.322504    1.844530
     51          1           0        1.608654    0.998751    2.597014
     52          1           0        1.708408   -0.347527    1.414927
     53          8           0        2.791841    1.873030    0.366520
     54          1           0        3.312353    1.028822    0.096883
     55          7           0        2.455389    0.241757   -2.137519
     56          1           0        2.420935    1.043753   -2.755268
     57          6           0        3.402303   -0.820458   -2.450268
     58          1           0        2.873293   -1.716422   -2.792075
     59          6           0        4.155446   -1.254600   -1.198615
     60          6           0        4.411976   -0.363518   -3.521705
     61          1           0        5.183023   -1.136487   -3.605391
     62          1           0        4.913056    0.548645   -3.166467
     63          8           0        4.745932   -2.283925   -1.062899
     64          6           0        3.756393   -0.116622   -4.887175
     65          1           0        3.399107   -1.062781   -5.310564
     66          1           0        2.884336    0.536805   -4.781288
     67          6           0        4.730059    0.555721   -5.862607
     68          1           0        5.099610    1.490782   -5.416041
     69          1           0        5.598856   -0.096696   -6.004324
     70          7           0        4.150274    0.802530   -7.190729
     71          1           0        4.790560    0.566124   -7.939286
     72          7           0        2.521123    2.333978   -6.483763
     73          1           0        2.064649    3.200767   -6.756565
     74          1           0        1.830914    1.590169   -6.410873
     75          7           0        3.702593    2.829293   -8.420860
     76          1           0        4.526693    2.571372   -8.967316
     77          6           0        3.502763    2.024907   -7.448248
     78          8           0        4.186853   -0.279781   -0.186962
     79          1           0        2.951514    2.561594   -0.309529
     80          1           0        4.725397   -0.655260    0.538145
     81          1           0       -5.946184   -4.156203    3.976393
 ---------------------------------------------------------------------

 SCF Done:  E(RB3LYP) =  -2053.96318467     A.U. after    1 cycles

 Alpha  occ. eigenvalues --  -19.42938 -19.36067 -19.28550 -19.26358 -19.25313
 Alpha  occ. eigenvalues --  -19.22946 -19.21677 -19.19829 -14.50941 -14.47088
 Alpha  occ. eigenvalues --  -14.45484 -14.45401 -14.42766 -14.41720 -14.38108
 Alpha  occ. eigenvalues --  -14.36276 -10.46516 -10.43243 -10.42794 -10.39571
 Alpha  occ. eigenvalues --  -10.38207 -10.37989 -10.37855 -10.37732 -10.35277
 Alpha  occ. eigenvalues --  -10.33108 -10.32066 -10.31725 -10.31597 -10.30270
 Alpha  occ. eigenvalues --  -10.29621 -10.29457 -10.29393 -10.28138 -10.26383
 Alpha  occ. eigenvalues --  -10.26323 -10.26197 -10.26026 -10.25894 -10.25873
 Alpha  occ. eigenvalues --  -10.25716 -10.25660  -1.28937  -1.25048  -1.18528
 Alpha  occ. eigenvalues --   -1.16673  -1.16285  -1.14957  -1.12964  -1.07388
 Alpha  occ. eigenvalues --   -1.07232  -1.05449  -1.04867  -1.04706  -1.02123
 Alpha  occ. eigenvalues --   -0.96478  -0.95854  -0.94516  -0.92825  -0.91623
 Alpha  occ. eigenvalues --   -0.91415  -0.88824  -0.87188  -0.85563  -0.85268
 Alpha  occ. eigenvalues --   -0.83818  -0.81023  -0.80441  -0.79648  -0.78827
 Alpha  occ. eigenvalues --   -0.78222  -0.77658  -0.75913  -0.74124  -0.73214
 Alpha  occ. eigenvalues --   -0.71773  -0.71174  -0.69979  -0.69565  -0.68235
 Alpha  occ. eigenvalues --   -0.67436  -0.67174  -0.66800  -0.65878  -0.65055
 Alpha  occ. eigenvalues --   -0.64536  -0.63451  -0.63397  -0.62300  -0.61794
 Alpha  occ. eigenvalues --   -0.61384  -0.60722  -0.59757  -0.59508  -0.59215
 Alpha  occ. eigenvalues --   -0.58521  -0.57701  -0.57204  -0.56924  -0.56789
 Alpha  occ. eigenvalues --   -0.56529  -0.55889  -0.55547  -0.55081  -0.54799
 Alpha  occ. eigenvalues --   -0.54542  -0.54417  -0.54371  -0.53795  -0.53323
 Alpha  occ. eigenvalues --   -0.53106  -0.52179  -0.51838  -0.51797  -0.51650
 Alpha  occ. eigenvalues --   -0.51359  -0.51116  -0.50476  -0.50454  -0.49880
 Alpha  occ. eigenvalues --   -0.49720  -0.49532  -0.49020  -0.48285  -0.48243
 Alpha  occ. eigenvalues --   -0.47442  -0.47124  -0.47016  -0.46482  -0.46310
 Alpha  occ. eigenvalues --   -0.46030  -0.45838  -0.44518  -0.44515  -0.43598
 Alpha  occ. eigenvalues --   -0.43046  -0.42674  -0.42654  -0.42123  -0.41330
 Alpha  occ. eigenvalues --   -0.40997  -0.40601  -0.40487  -0.39855  -0.38074
 Alpha  occ. eigenvalues --   -0.37678  -0.37385  -0.35478  -0.34994  -0.34865
 Alpha  occ. eigenvalues --   -0.34444  -0.33536  -0.33287  -0.30591  -0.30524
 Alpha  occ. eigenvalues --   -0.29732  -0.27864
 Alpha virt. eigenvalues --   -0.14594  -0.13378  -0.12533  -0.09743  -0.08884
 Alpha virt. eigenvalues --   -0.07421  -0.07315  -0.07051  -0.05157  -0.04721
 Alpha virt. eigenvalues --   -0.04446  -0.03444  -0.01854  -0.01265  -0.00788

 Mulliken charges:
               1
     1  N   -0.760549
     2  H    0.343390
     3  H    0.323735
     4  C   -0.073924
     5  H    0.130498
     6  C    0.649418
     7  C   -0.279262
     8  H    0.139390
     9  H    0.169967
    10  O   -0.557113
    11  C   -0.343310
    12  H    0.180328
    13  H    0.204664
    14  C    0.598701
    15  O   -0.481593
    16  O   -0.562335
    17  N   -0.618399
    18  H    0.361127
    19  C   -0.044131
    20  H    0.181724
    21  C    0.628829
    22  C   -0.397692
    23  H    0.170860
    24  H    0.185378
    25  O   -0.525726
    26  C    0.065070
    27  C    0.018004
    28  H    0.162754
    29  C    0.054003
    30  C    0.327622
    31  C   -0.257223
    32  H    0.135702
    33  N   -0.684086
    34  H    0.342063
    35  C   -0.155949
    36  H    0.147398
    37  C   -0.156269
    38  H    0.145872
    39  C   -0.138821
    40  H    0.140490
    41  N   -0.623145
    42  H    0.398929
    43  C   -0.056761
    44  H    0.179626
    45  C    0.598659
    46  C    0.043449
    47  H    0.241240
    48  O   -0.473972
    49  C   -0.498222
    50  H    0.237187
    51  H    0.192527
    52  H    0.196057
    53  O   -0.651353
    54  H    0.517277
    55  N   -0.662749
    56  H    0.355026
    57  C   -0.013998
    58  H    0.227031
    59  C    0.635446
    60  C   -0.321573
    61  H    0.198885
    62  H    0.147040
    63  O   -0.398116
    64  C   -0.266688
    65  H    0.171280
    66  H    0.138350
    67  C   -0.130777
    68  H    0.151976
    69  H    0.158975
    70  N   -0.586514
    71  H    0.324966
    72  N   -0.742931
    73  H    0.342147
    74  H    0.321682
    75  N   -0.598236
    76  H    0.277779
    77  C    0.517633
    78  O   -0.657764
    79  H    0.474356
    80  H    0.450078
    81  H    0.414595
 Sum of Mulliken charges =   1.00000

 Dipole moment (field-independent basis, Debye):
    X=              4.9041    Y=              4.8222    Z=             -2.4173  Tot=              7.2902
 Quadrupole moment (field-independent basis, Debye-Ang):
   XX=           -116.1816   YY=           -246.0434   ZZ=           -207.6827
   XY=              7.6900   XZ=            -31.0669   YZ=             16.2273

 Normal termination of Gaussian 16 at Sun May 15 18:54:39 2022.
