 Gaussian 16, Revision C.01,
 Gaussian 16:  ES64L-G16RevC.01  3-Jul-2019

 ----------------------------------------------------------------------
 # B3LYP/6-31G* empiricaldispersion=gd3 guess=read geom=check nosymm in
 tegral(ultrafinegrid)
 ----------------------------------------------------------------------

 ------------------------------------------------------
 Candidate Structure: Conf:205 Charge calc in gas phase
 ------------------------------------------------------
 Structure from the checkpoint file:  "conf-205.chk"
 Charge =  1 Multiplicity = 1

                          Input orientation:
 ---------------------------------------------------------------------
 Center     Atomic      Atomic             Coordinates (Angstroms)
 Number     Number       Type             X           Y           Z
 ---------------------------------------------------------------------
      1          7           0       -5.157235    0.341325    3.638401
      2          1           0       -5.509304    1.140541    3.113546
      3          1           0       -5.601293   -0.477069    3.220246
      4          6           0       -3.715300    0.223788    3.451824
      5          1           0       -3.262807    1.197718    3.664566
      6          6           0       -3.353839   -0.184807    2.006346
      7          6           0       -3.182494   -0.801431    4.473898
      8          1           0       -3.512229   -0.472753    5.464116
      9          1           0       -3.664006   -1.767734    4.279862
     10          8           0       -4.104003   -0.882955    1.326681
     11          6           0       -1.656288   -1.028251    4.463333
     12          1           0       -1.346517   -1.405298    3.483579
     13          1           0       -1.391383   -1.771926    5.217680
     14          6           0       -0.869039    0.238527    4.707979
     15          8           0       -0.780776    1.175802    3.934574
     16          8           0       -0.241157    0.241979    5.904834
     17          7           0       -2.167003    0.289012    1.511937
     18          1           0       -1.595228    0.909087    2.083087
     19          6           0       -1.898833    0.178576    0.089682
     20          1           0       -2.157769   -0.836072   -0.230919
     21          6           0       -0.422675    0.483410   -0.159259
     22          6           0       -2.795514    1.176109   -0.709359
     23          1           0       -2.599455    2.176916   -0.310993
     24          1           0       -3.827863    0.912399   -0.466094
     25          8           0        0.115940    1.499365    0.244146
     26          6           0       -2.578473    1.154150   -2.189558
     27          6           0       -3.206375    0.360451   -3.121380
     28          1           0       -4.000768   -0.360457   -2.983054
     29          6           0       -1.627520    1.956159   -2.918586
     30          6           0       -1.717110    1.573739   -4.294883
     31          6           0       -0.716448    2.962124   -2.536122
     32          1           0       -0.641748    3.268833   -1.497700
     33          7           0       -2.689025    0.603801   -4.379850
     34          1           0       -3.026346    0.187287   -5.235753
     35          6           0        0.055676    3.077827   -4.855231
     36          1           0        0.715865    3.529071   -5.589721
     37          6           0       -0.874130    2.119897   -5.271146
     38          1           0       -0.934757    1.813924   -6.311274
     39          6           0        0.118216    3.510964   -3.504576
     40          1           0        0.830100    4.283170   -3.229423
     41          7           0        0.255211   -0.418065   -0.976795
     42          1           0       -0.169946   -1.327926   -1.106071
     43          6           0        1.706521   -0.314864   -1.204406
     44          1           0        2.017811   -1.265188   -1.652225
     45          6           0        2.546719   -0.067526    0.078623
     46          6           0        2.035342    0.812369   -2.195114
     47          1           0        1.782716    1.779237   -1.760640
     48          8           0        3.265368    0.916191    0.177733
     49          6           0        3.401528    0.771509   -2.835119
     50          1           0        4.144947    0.947113   -2.055788
     51          1           0        3.501277    1.561559   -3.586601
     52          1           0        3.587513   -0.198005   -3.307539
     53          8           0        1.034616    0.587578   -3.333340
     54          1           0        0.140539    0.477636   -2.905928
     55          7           0        2.447791   -1.025351    1.029074
     56          1           0        2.001827   -1.905238    0.807684
     57          6           0        3.293294   -0.963449    2.219630
     58          1           0        3.085774   -0.021084    2.734200
     59          6           0        4.788333   -0.943570    1.894624
     60          6           0        3.011697   -2.147780    3.159489
     61          1           0        3.615525   -1.996001    4.059772
     62          1           0        3.367893   -3.076419    2.693085
     63          8           0        5.618708   -0.489026    2.640209
     64          6           0        1.535321   -2.287588    3.551221
     65          1           0        1.130258   -1.296286    3.786522
     66          1           0        0.938663   -2.680723    2.714904
     67          6           0        1.361760   -3.209683    4.771740
     68          1           0        0.309419   -3.517843    4.860198
     69          1           0        1.950704   -4.117466    4.621376
     70          7           0        1.824993   -2.564474    5.981565
     71          1           0        1.318412   -1.739741    6.272199
     72          7           0        3.282456   -4.300701    6.590323
     73          1           0        4.025004   -4.516740    7.248660
     74          1           0        2.549727   -5.003521    6.646138
     75          7           0        3.387608   -2.300371    7.763832
     76          1           0        3.082106   -1.325262    7.735804
     77          6           0        2.830107   -2.994383    6.839503
     78          8           0        5.078819   -1.574859    0.729020
     79          1           0        0.950528    1.416196   -3.895025
     80          1           0        6.051753   -1.555292    0.647165
     81          1           0        0.217699    1.101145    5.990955
 ---------------------------------------------------------------------

 SCF Done:  E(RB3LYP) =  -2053.98110501     A.U. after    1 cycles

 Alpha  occ. eigenvalues --  -19.41893 -19.29981 -19.28303 -19.25878 -19.24382
 Alpha  occ. eigenvalues --  -19.23673 -19.22158 -19.20499 -14.51655 -14.50800
 Alpha  occ. eigenvalues --  -14.47936 -14.45140 -14.41472 -14.39464 -14.38782
 Alpha  occ. eigenvalues --  -14.33535 -10.42712 -10.42358 -10.41632 -10.41312
 Alpha  occ. eigenvalues --  -10.40440 -10.39071 -10.37096 -10.35405 -10.35072
 Alpha  occ. eigenvalues --  -10.34393 -10.33648 -10.33631 -10.32705 -10.32120
 Alpha  occ. eigenvalues --  -10.31762 -10.31636 -10.31621 -10.31520 -10.30708
 Alpha  occ. eigenvalues --  -10.30383 -10.30266 -10.30254 -10.29500 -10.28626
 Alpha  occ. eigenvalues --  -10.28381 -10.28033  -1.28480  -1.20708  -1.18998
 Alpha  occ. eigenvalues --   -1.18099  -1.15755  -1.12407  -1.11619  -1.10780
 Alpha  occ. eigenvalues --   -1.10057  -1.07209  -1.04299  -1.03251  -1.01954
 Alpha  occ. eigenvalues --   -0.97450  -0.96541  -0.95023  -0.94825  -0.92781
 Alpha  occ. eigenvalues --   -0.90138  -0.89174  -0.88684  -0.87881  -0.86808
 Alpha  occ. eigenvalues --   -0.85698  -0.84218  -0.82998  -0.79837  -0.78577
 Alpha  occ. eigenvalues --   -0.77763  -0.76352  -0.75658  -0.75121  -0.74126
 Alpha  occ. eigenvalues --   -0.72275  -0.72051  -0.71229  -0.69816  -0.69413
 Alpha  occ. eigenvalues --   -0.69115  -0.68794  -0.68490  -0.67447  -0.66601
 Alpha  occ. eigenvalues --   -0.66503  -0.65571  -0.63281  -0.62126  -0.61190
 Alpha  occ. eigenvalues --   -0.60209  -0.60030  -0.59938  -0.59545  -0.59090
 Alpha  occ. eigenvalues --   -0.58663  -0.58363  -0.58166  -0.57497  -0.57101
 Alpha  occ. eigenvalues --   -0.56652  -0.56599  -0.56192  -0.56116  -0.55587
 Alpha  occ. eigenvalues --   -0.55063  -0.54938  -0.54563  -0.54199  -0.53758
 Alpha  occ. eigenvalues --   -0.53554  -0.53367  -0.52973  -0.52740  -0.52449
 Alpha  occ. eigenvalues --   -0.52012  -0.51978  -0.51315  -0.50900  -0.50523
 Alpha  occ. eigenvalues --   -0.50117  -0.50082  -0.49982  -0.49606  -0.49275
 Alpha  occ. eigenvalues --   -0.48862  -0.48498  -0.47746  -0.47622  -0.46805
 Alpha  occ. eigenvalues --   -0.46717  -0.46572  -0.45737  -0.45165  -0.45135
 Alpha  occ. eigenvalues --   -0.44591  -0.44249  -0.43641  -0.42641  -0.42270
 Alpha  occ. eigenvalues --   -0.41840  -0.41818  -0.40933  -0.40112  -0.39223
 Alpha  occ. eigenvalues --   -0.38761  -0.37657  -0.37085  -0.36059  -0.35348
 Alpha  occ. eigenvalues --   -0.34905  -0.34570  -0.32898  -0.32228  -0.31345
 Alpha  occ. eigenvalues --   -0.31099  -0.27814
 Alpha virt. eigenvalues --   -0.14932  -0.12896  -0.11520  -0.11313  -0.09726
 Alpha virt. eigenvalues --   -0.08851  -0.07443  -0.07250  -0.06775  -0.05972
 Alpha virt. eigenvalues --   -0.04085  -0.03218  -0.03167  -0.02363  -0.02243

 Mulliken charges:
               1
     1  N   -0.690459
     2  H    0.306627
     3  H    0.317285
     4  C   -0.084468
     5  H    0.163302
     6  C    0.578392
     7  C   -0.266283
     8  H    0.187667
     9  H    0.167280
    10  O   -0.534304
    11  C   -0.366581
    12  H    0.175397
    13  H    0.185543
    14  C    0.600276
    15  O   -0.472721
    16  O   -0.559420
    17  N   -0.643358
    18  H    0.389370
    19  C   -0.009630
    20  H    0.161405
    21  C    0.609995
    22  C   -0.363627
    23  H    0.178220
    24  H    0.202298
    25  O   -0.486237
    26  C    0.071139
    27  C    0.002316
    28  H    0.195268
    29  C   -0.037309
    30  C    0.319209
    31  C   -0.194769
    32  H    0.190699
    33  N   -0.673133
    34  H    0.355296
    35  C   -0.226602
    36  H    0.174799
    37  C   -0.168289
    38  H    0.171519
    39  C   -0.184024
    40  H    0.173705
    41  N   -0.679793
    42  H    0.353044
    43  C   -0.089088
    44  H    0.193889
    45  C    0.696298
    46  C    0.059822
    47  H    0.242876
    48  O   -0.505423
    49  C   -0.478699
    50  H    0.243005
    51  H    0.180222
    52  H    0.180892
    53  O   -0.647454
    54  H    0.486141
    55  N   -0.620619
    56  H    0.332390
    57  C   -0.013657
    58  H    0.205870
    59  C    0.602816
    60  C   -0.322973
    61  H    0.214788
    62  H    0.158120
    63  O   -0.441158
    64  C   -0.272798
    65  H    0.146210
    66  H    0.113636
    67  C   -0.136457
    68  H    0.142277
    69  H    0.180075
    70  N   -0.620846
    71  H    0.328653
    72  N   -0.747812
    73  H    0.345279
    74  H    0.320243
    75  N   -0.624596
    76  H    0.260832
    77  C    0.569289
    78  O   -0.585185
    79  H    0.464714
    80  H    0.423279
    81  H    0.426110
 Sum of Mulliken charges =   1.00000

 Dipole moment (field-independent basis, Debye):
    X=             -1.4098    Y=             -2.2585    Z=            -12.0780  Tot=             12.3680
 Quadrupole moment (field-independent basis, Debye-Ang):
   XX=           -237.4439   YY=           -215.0587   ZZ=           -178.2575
   XY=             -7.8473   XZ=            -17.4873   YZ=            -19.2622

 Normal termination of Gaussian 16 at Sun May 15 18:55:00 2022.
