 Gaussian 16, Revision C.01,
 Gaussian 16:  ES64L-G16RevC.01  3-Jul-2019

 ----------------------------------------------------------------------
 # B3LYP/6-31G* empiricaldispersion=gd3 guess=read geom=check nosymm in
 tegral(ultrafinegrid)
 ----------------------------------------------------------------------

 ------------------------------------------------------
 Candidate Structure: Conf:428 Charge calc in gas phase
 ------------------------------------------------------
 Structure from the checkpoint file:  "conf-428.chk"
 Charge =  1 Multiplicity = 1

                          Input orientation:
 ---------------------------------------------------------------------
 Center     Atomic      Atomic             Coordinates (Angstroms)
 Number     Number       Type             X           Y           Z
 ---------------------------------------------------------------------
      1          7           0       -4.762322   -0.838073    2.190155
      2          1           0       -5.539776   -0.626852    1.567349
      3          1           0       -4.261806   -1.627015    1.781230
      4          6           0       -3.856903    0.305030    2.295754
      5          1           0       -4.449012    1.179937    2.593954
      6          6           0       -3.130472    0.579826    0.971763
      7          6           0       -2.797067    0.000193    3.367511
      8          1           0       -3.302681   -0.298882    4.288315
      9          1           0       -2.212724   -0.856288    3.010866
     10          8           0       -2.315374   -0.222716    0.508602
     11          6           0       -1.854142    1.197530    3.636421
     12          1           0       -2.368284    1.947846    4.246080
     13          1           0       -1.539095    1.670729    2.704053
     14          6           0       -0.612415    0.737203    4.351122
     15          8           0        0.498865    0.613102    3.844147
     16          8           0       -0.841508    0.411829    5.623342
     17          7           0       -3.418040    1.744192    0.322405
     18          1           0       -3.909764    2.481784    0.816111
     19          6           0       -2.637451    2.122766   -0.846231
     20          1           0       -2.812894    1.385602   -1.637168
     21          6           0       -1.162909    2.035661   -0.475028
     22          6           0       -3.045824    3.526707   -1.381855
     23          1           0       -4.020129    3.394326   -1.866550
     24          1           0       -2.340685    3.796506   -2.176129
     25          8           0       -0.776151    2.717281    0.545663
     26          6           0       -3.136237    4.607969   -0.348537
     27          6           0       -2.167913    5.522426   -0.010914
     28          1           0       -1.181620    5.665884   -0.429782
     29          6           0       -4.261204    4.860881    0.522591
     30          6           0       -3.893530    5.938054    1.374551
     31          6           0       -5.543253    4.292128    0.662156
     32          1           0       -5.870384    3.490720    0.003365
     33          7           0       -2.612219    6.314933    1.022986
     34          1           0       -2.109488    7.098247    1.411697
     35          6           0       -6.004796    5.853225    2.477062
     36          1           0       -6.696792    6.223300    3.227304
     37          6           0       -4.752815    6.444739    2.353916
     38          1           0       -4.455254    7.271345    2.992756
     39          6           0       -6.397751    4.789743    1.638450
     40          1           0       -7.390301    4.363810    1.750657
     41          7           0       -0.361180    1.279847   -1.190644
     42          1           0       -0.784725    0.617749   -1.850086
     43          6           0        1.027051    0.886874   -0.898915
     44          1           0        1.682629    1.762375   -0.973685
     45          6           0        1.360529   -0.138636   -2.011441
     46          6           0        1.157067    0.306834    0.536092
     47          1           0        0.262304   -0.295762    0.732810
     48          8           0        0.438356   -0.729119   -2.575851
     49          6           0        2.420589   -0.490043    0.819363
     50          1           0        2.467584   -1.404153    0.223596
     51          1           0        2.424531   -0.767032    1.878067
     52          1           0        3.317013    0.107587    0.625966
     53          8           0        1.152937    1.479162    1.398791
     54          1           0        0.125492    2.317894    0.959212
     55          7           0        2.664683   -0.299101   -2.290477
     56          1           0        3.351230    0.214888   -1.754796
     57          6           0        3.150930   -1.343162   -3.193766
     58          1           0        2.371961   -2.112862   -3.241690
     59          6           0        4.365425   -2.073772   -2.637290
     60          6           0        3.466230   -0.818863   -4.612396
     61          1           0        4.040620   -1.599806   -5.115842
     62          1           0        4.120306    0.058653   -4.526564
     63          8           0        4.942388   -2.945083   -3.242456
     64          6           0        2.242166   -0.469556   -5.466638
     65          1           0        1.691192    0.374658   -5.031195
     66          1           0        2.614084   -0.124617   -6.439901
     67          6           0        1.249588   -1.641848   -5.667212
     68          1           0        0.605256   -1.708334   -4.790022
     69          1           0        0.593594   -1.418145   -6.516854
     70          7           0        1.886021   -2.929526   -5.862421
     71          1           0        2.313954   -3.130254   -6.754924
     72          7           0        2.933628   -4.879993   -5.207786
     73          1           0        2.961142   -5.589625   -4.483358
     74          1           0        3.857943   -4.483795   -5.353162
     75          7           0        1.269320   -4.041002   -3.818595
     76          1           0        0.477039   -3.397082   -3.806681
     77          6           0        1.962584   -3.925157   -4.901607
     78          8           0        4.740181   -1.650648   -1.403311
     79          1           0        0.951433    1.194843    2.336438
     80          1           0        5.518824   -2.182509   -1.148839
     81          1           0       -0.008126    0.083330    6.013672
 ---------------------------------------------------------------------

 SCF Done:  E(RB3LYP) =  -2054.02969132     A.U. after    1 cycles

 Alpha  occ. eigenvalues --  -19.32173 -19.31417 -19.29941 -19.29674 -19.26919
 Alpha  occ. eigenvalues --  -19.24797 -19.23511 -19.23110 -14.52338 -14.48678
 Alpha  occ. eigenvalues --  -14.47769 -14.47288 -14.41301 -14.41252 -14.38986
 Alpha  occ. eigenvalues --  -14.33982 -10.46009 -10.44600 -10.42089 -10.41900
 Alpha  occ. eigenvalues --  -10.39504 -10.38119 -10.37918 -10.37014 -10.33832
 Alpha  occ. eigenvalues --  -10.33371 -10.32801 -10.31551 -10.31547 -10.31054
 Alpha  occ. eigenvalues --  -10.30891 -10.29466 -10.29174 -10.29065 -10.28028
 Alpha  occ. eigenvalues --  -10.27799 -10.27784 -10.27596 -10.27555 -10.26893
 Alpha  occ. eigenvalues --  -10.26760 -10.26721  -1.23643  -1.22856  -1.20442
 Alpha  occ. eigenvalues --   -1.16911  -1.16339  -1.15024  -1.13534  -1.11404
 Alpha  occ. eigenvalues --   -1.09264  -1.07223  -1.05144  -1.04411  -1.03258
 Alpha  occ. eigenvalues --   -0.98831  -0.94590  -0.93035  -0.92705  -0.91019
 Alpha  occ. eigenvalues --   -0.90338  -0.89348  -0.88539  -0.87455  -0.84680
 Alpha  occ. eigenvalues --   -0.82935  -0.82384  -0.81945  -0.80768  -0.78590
 Alpha  occ. eigenvalues --   -0.76591  -0.76419  -0.74816  -0.73540  -0.72273
 Alpha  occ. eigenvalues --   -0.71915  -0.71565  -0.71180  -0.70490  -0.69015
 Alpha  occ. eigenvalues --   -0.68460  -0.67995  -0.66579  -0.65940  -0.65391
 Alpha  occ. eigenvalues --   -0.63898  -0.63114  -0.62865  -0.62713  -0.61865
 Alpha  occ. eigenvalues --   -0.60692  -0.60434  -0.60038  -0.59758  -0.59320
 Alpha  occ. eigenvalues --   -0.58632  -0.58509  -0.57906  -0.57502  -0.57294
 Alpha  occ. eigenvalues --   -0.57202  -0.56313  -0.55908  -0.55654  -0.55472
 Alpha  occ. eigenvalues --   -0.54565  -0.54361  -0.54012  -0.53571  -0.53352
 Alpha  occ. eigenvalues --   -0.52839  -0.52483  -0.52409  -0.51907  -0.51801
 Alpha  occ. eigenvalues --   -0.51540  -0.51080  -0.50721  -0.50569  -0.50339
 Alpha  occ. eigenvalues --   -0.50171  -0.49717  -0.49499  -0.49275  -0.48669
 Alpha  occ. eigenvalues --   -0.48568  -0.48242  -0.47432  -0.47168  -0.47005
 Alpha  occ. eigenvalues --   -0.46149  -0.45282  -0.45221  -0.44835  -0.44110
 Alpha  occ. eigenvalues --   -0.43862  -0.43583  -0.43439  -0.42461  -0.42224
 Alpha  occ. eigenvalues --   -0.42170  -0.41642  -0.41450  -0.41077  -0.40302
 Alpha  occ. eigenvalues --   -0.38963  -0.38690  -0.38419  -0.37508  -0.36495
 Alpha  occ. eigenvalues --   -0.36130  -0.32966  -0.31796  -0.31324  -0.31212
 Alpha  occ. eigenvalues --   -0.29492  -0.28393
 Alpha virt. eigenvalues --   -0.15472  -0.11414  -0.10785  -0.10228  -0.09456
 Alpha virt. eigenvalues --   -0.08539  -0.06525  -0.04418  -0.04111  -0.03356
 Alpha virt. eigenvalues --   -0.02374  -0.01475  -0.01056  -0.00849  -0.00656

 Mulliken charges:
               1
     1  N   -0.693873
     2  H    0.315712
     3  H    0.321237
     4  C   -0.072439
     5  H    0.153027
     6  C    0.605535
     7  C   -0.271596
     8  H    0.196752
     9  H    0.170779
    10  O   -0.550035
    11  C   -0.365091
    12  H    0.197077
    13  H    0.165691
    14  C    0.600850
    15  O   -0.511178
    16  O   -0.523141
    17  N   -0.613587
    18  H    0.370602
    19  C   -0.020297
    20  H    0.187443
    21  C    0.651385
    22  C   -0.402676
    23  H    0.195053
    24  H    0.175901
    25  O   -0.585021
    26  C    0.064654
    27  C    0.025862
    28  H    0.158153
    29  C    0.054034
    30  C    0.316950
    31  C   -0.240989
    32  H    0.134471
    33  N   -0.686731
    34  H    0.343405
    35  C   -0.151150
    36  H    0.150492
    37  C   -0.156728
    38  H    0.146074
    39  C   -0.135637
    40  H    0.145439
    41  N   -0.579819
    42  H    0.401837
    43  C   -0.088049
    44  H    0.201262
    45  C    0.629825
    46  C    0.104487
    47  H    0.206726
    48  O   -0.522550
    49  C   -0.476797
    50  H    0.192669
    51  H    0.187950
    52  H    0.163999
    53  O   -0.717207
    54  H    0.488148
    55  N   -0.599946
    56  H    0.353463
    57  C   -0.086641
    58  H    0.246973
    59  C    0.605423
    60  C   -0.261639
    61  H    0.180292
    62  H    0.142688
    63  O   -0.446914
    64  C   -0.269614
    65  H    0.132461
    66  H    0.152249
    67  C   -0.159094
    68  H    0.180287
    69  H    0.158446
    70  N   -0.594838
    71  H    0.330166
    72  N   -0.739241
    73  H    0.339599
    74  H    0.329087
    75  N   -0.654273
    76  H    0.281702
    77  C    0.566879
    78  O   -0.587843
    79  H    0.478020
    80  H    0.429756
    81  H    0.433660
 Sum of Mulliken charges =   1.00000

 Dipole moment (field-independent basis, Debye):
    X=              0.1205    Y=             11.4770    Z=              1.5278  Tot=             11.5789
 Quadrupole moment (field-independent basis, Debye-Ang):
   XX=           -182.7081   YY=           -203.1688   ZZ=           -182.4731
   XY=            -27.5359   XZ=            -19.6675   YZ=              6.6219

 Normal termination of Gaussian 16 at Sun May 15 18:54:42 2022.
