 Gaussian 16, Revision C.01,
 Gaussian 16:  ES64L-G16RevC.01  3-Jul-2019

 ----------------------------------------------------------------------
 # B3LYP/6-31G* empiricaldispersion=gd3 guess=read geom=check nosymm in
 tegral(ultrafinegrid)
 ----------------------------------------------------------------------

 -----------------------------------------------------
 Candidate Structure: Conf:95 Charge calc in gas phase
 -----------------------------------------------------
 Structure from the checkpoint file:  "conf-95.chk"
 Charge =  1 Multiplicity = 1

                          Input orientation:
 ---------------------------------------------------------------------
 Center     Atomic      Atomic             Coordinates (Angstroms)
 Number     Number       Type             X           Y           Z
 ---------------------------------------------------------------------
      1          7           0       -1.780985    0.849509    5.018738
      2          1           0       -2.094615    0.558903    5.940061
      3          1           0       -1.256786    0.075277    4.611075
      4          6           0       -2.922156    1.143849    4.150091
      5          1           0       -3.856118    0.699564    4.537664
      6          6           0       -2.687340    0.512098    2.765496
      7          6           0       -3.133251    2.667990    4.016444
      8          1           0       -2.262306    3.098696    3.508737
      9          1           0       -4.007939    2.893539    3.400081
     10          8           0       -1.731490   -0.246689    2.550575
     11          6           0       -3.322368    3.349355    5.370161
     12          1           0       -2.415670    3.267907    5.978741
     13          1           0       -4.130196    2.874094    5.945131
     14          6           0       -3.682249    4.812454    5.212721
     15          8           0       -3.917159    5.374725    4.163162
     16          8           0       -3.725675    5.443566    6.408155
     17          7           0       -3.565503    0.828587    1.790027
     18          1           0       -4.364960    1.414773    1.993307
     19          6           0       -3.437683    0.321043    0.433580
     20          1           0       -3.741287   -0.735093    0.401316
     21          6           0       -1.975147    0.464034   -0.004258
     22          6           0       -4.330909    1.138292   -0.541415
     23          1           0       -4.295966    0.635762   -1.514876
     24          1           0       -3.861720    2.120231   -0.667797
     25          8           0       -1.392787    1.538894    0.001788
     26          6           0       -5.748076    1.291483   -0.076343
     27          6           0       -6.803886    0.447228   -0.326592
     28          1           0       -6.844911   -0.442425   -0.940667
     29          6           0       -6.249796    2.327291    0.797002
     30          6           0       -7.620681    2.039718    1.042400
     31          6           0       -5.672728    3.461306    1.401772
     32          1           0       -4.631500    3.717674    1.221740
     33          7           0       -7.926545    0.890728    0.340014
     34          1           0       -8.840041    0.466756    0.286325
     35          6           0       -7.809475    3.939939    2.468810
     36          1           0       -8.396381    4.576286    3.124778
     37          6           0       -8.414068    2.839681    1.870785
     38          1           0       -9.460826    2.606833    2.045575
     39          6           0       -6.452351    4.250126    2.239644
     40          1           0       -6.003286    5.102971    2.737414
     41          7           0       -1.366582   -0.677068   -0.484967
     42          1           0       -1.755312   -1.586038   -0.264090
     43          6           0        0.058462   -0.625573   -0.686449
     44          1           0        0.278206    0.337196   -1.162035
     45          6           0        0.550705   -1.799346   -1.522685
     46          6           0        0.777656   -0.646934    0.696349
     47          1           0        0.462172    0.226608    1.266989
     48          8           0        0.148357   -2.937619   -1.337598
     49          6           0        0.692902   -1.908483    1.520662
     50          1           0       -0.352746   -2.051586    1.797505
     51          1           0        1.262896   -1.779126    2.444162
     52          1           0        1.049126   -2.787197    0.979501
     53          8           0        2.284395   -0.413402    0.471796
     54          1           0        2.766497   -1.197469   -0.047326
     55          7           0        1.603449   -1.506742   -2.351996
     56          1           0        1.815117   -0.546273   -2.585154
     57          6           0        2.496743   -2.550319   -2.812515
     58          1           0        1.901993   -3.435066   -3.063387
     59          6           0        3.411729   -2.950893   -1.653854
     60          6           0        3.319864   -2.113554   -4.040694
     61          1           0        4.036686   -2.910314   -4.265422
     62          1           0        3.913200   -1.224300   -3.780475
     63          8           0        3.516778   -2.351805   -0.579943
     64          6           0        2.444745   -1.834520   -5.268731
     65          1           0        1.849945   -2.724591   -5.510294
     66          1           0        1.725222   -1.033176   -5.053352
     67          6           0        3.288688   -1.447815   -6.491826
     68          1           0        3.905045   -0.566863   -6.253807
     69          1           0        3.979654   -2.259590   -6.736091
     70          7           0        2.451890   -1.192791   -7.663076
     71          1           0        2.040067   -0.267698   -7.682791
     72          7           0        3.390867   -2.915643   -8.935590
     73          1           0        3.573634   -3.219009   -9.886685
     74          1           0        2.838509   -3.603276   -8.431228
     75          7           0        2.679874   -1.008541  -10.050897
     76          1           0        2.403521   -0.035408   -9.904870
     77          6           0        2.821214   -1.636847   -8.944825
     78          8           0        4.123134   -4.028363   -1.916581
     79          1           0        2.472822    0.449259    0.056263
     80          1           0        4.696129   -4.241054   -1.152100
     81          1           0       -3.973397    6.370686    6.227772
 ---------------------------------------------------------------------

 SCF Done:  E(RB3LYP) =  -2053.97734557     A.U. after    1 cycles

 Alpha  occ. eigenvalues --  -19.40530 -19.35812 -19.32042 -19.25917 -19.25232
 Alpha  occ. eigenvalues --  -19.22189 -19.21053 -19.19845 -14.50883 -14.47510
 Alpha  occ. eigenvalues --  -14.45029 -14.44812 -14.42229 -14.40149 -14.37989
 Alpha  occ. eigenvalues --  -14.34678 -10.48986 -10.43030 -10.40880 -10.39357
 Alpha  occ. eigenvalues --  -10.38450 -10.37978 -10.37542 -10.37507 -10.34244
 Alpha  occ. eigenvalues --  -10.33109 -10.32514 -10.30927 -10.30066 -10.30037
 Alpha  occ. eigenvalues --  -10.29632 -10.29224 -10.28587 -10.28183 -10.26089
 Alpha  occ. eigenvalues --  -10.25669 -10.25314 -10.25298 -10.25270 -10.24923
 Alpha  occ. eigenvalues --  -10.24603 -10.23996  -1.27783  -1.26413  -1.18616
 Alpha  occ. eigenvalues --   -1.17961  -1.16157  -1.14748  -1.12413  -1.07500
 Alpha  occ. eigenvalues --   -1.07193  -1.04878  -1.04468  -1.03905  -1.01586
 Alpha  occ. eigenvalues --   -0.95657  -0.95627  -0.93813  -0.92431  -0.90462
 Alpha  occ. eigenvalues --   -0.90340  -0.88624  -0.86883  -0.85633  -0.85183
 Alpha  occ. eigenvalues --   -0.83367  -0.79925  -0.79525  -0.79096  -0.78841
 Alpha  occ. eigenvalues --   -0.77827  -0.76500  -0.75949  -0.74249  -0.73134
 Alpha  occ. eigenvalues --   -0.71346  -0.70759  -0.70117  -0.68740  -0.67964
 Alpha  occ. eigenvalues --   -0.67343  -0.66860  -0.66343  -0.65653  -0.65172
 Alpha  occ. eigenvalues --   -0.64168  -0.63768  -0.63297  -0.61957  -0.61772
 Alpha  occ. eigenvalues --   -0.60889  -0.60746  -0.60580  -0.60126  -0.59246
 Alpha  occ. eigenvalues --   -0.58909  -0.57385  -0.56820  -0.56388  -0.56109
 Alpha  occ. eigenvalues --   -0.55776  -0.55286  -0.55168  -0.54299  -0.54090
 Alpha  occ. eigenvalues --   -0.53670  -0.53471  -0.53212  -0.53125  -0.52412
 Alpha  occ. eigenvalues --   -0.52115  -0.51748  -0.51732  -0.51212  -0.50953
 Alpha  occ. eigenvalues --   -0.50712  -0.50419  -0.49913  -0.49822  -0.49251
 Alpha  occ. eigenvalues --   -0.49164  -0.49097  -0.48776  -0.48445  -0.48268
 Alpha  occ. eigenvalues --   -0.47790  -0.47496  -0.47098  -0.46385  -0.45633
 Alpha  occ. eigenvalues --   -0.45562  -0.45377  -0.44832  -0.44618  -0.43856
 Alpha  occ. eigenvalues --   -0.43340  -0.42864  -0.42527  -0.41477  -0.41166
 Alpha  occ. eigenvalues --   -0.40440  -0.40064  -0.39767  -0.39555  -0.37504
 Alpha  occ. eigenvalues --   -0.37243  -0.36544  -0.34839  -0.34492  -0.34085
 Alpha  occ. eigenvalues --   -0.33415  -0.33001  -0.31853  -0.30532  -0.29152
 Alpha  occ. eigenvalues --   -0.28822  -0.27123
 Alpha virt. eigenvalues --   -0.15734  -0.13436  -0.11494  -0.09018  -0.07901
 Alpha virt. eigenvalues --   -0.06993  -0.06262  -0.05939  -0.04793  -0.04096
 Alpha virt. eigenvalues --   -0.03438  -0.02257  -0.01897  -0.00887  -0.00389

 Mulliken charges:
               1
     1  N   -0.735583
     2  H    0.307624
     3  H    0.318637
     4  C   -0.082633
     5  H    0.149155
     6  C    0.635156
     7  C   -0.252327
     8  H    0.162162
     9  H    0.160816
    10  O   -0.580222
    11  C   -0.363285
    12  H    0.201413
    13  H    0.173433
    14  C    0.585374
    15  O   -0.464753
    16  O   -0.562328
    17  N   -0.615279
    18  H    0.371634
    19  C   -0.002425
    20  H    0.148730
    21  C    0.645764
    22  C   -0.391594
    23  H    0.161557
    24  H    0.191826
    25  O   -0.527827
    26  C    0.048936
    27  C    0.008516
    28  H    0.157254
    29  C    0.054989
    30  C    0.317222
    31  C   -0.247518
    32  H    0.150762
    33  N   -0.686200
    34  H    0.339351
    35  C   -0.154221
    36  H    0.140354
    37  C   -0.157390
    38  H    0.138300
    39  C   -0.143279
    40  H    0.168114
    41  N   -0.601812
    42  H    0.356890
    43  C   -0.068252
    44  H    0.177875
    45  C    0.612755
    46  C    0.054272
    47  H    0.253376
    48  O   -0.493060
    49  C   -0.478644
    50  H    0.228947
    51  H    0.193858
    52  H    0.183094
    53  O   -0.653625
    54  H    0.508324
    55  N   -0.626121
    56  H    0.339503
    57  C   -0.042038
    58  H    0.235728
    59  C    0.653496
    60  C   -0.314563
    61  H    0.195852
    62  H    0.147795
    63  O   -0.538490
    64  C   -0.256711
    65  H    0.163879
    66  H    0.137527
    67  C   -0.143434
    68  H    0.141671
    69  H    0.191010
    70  N   -0.596166
    71  H    0.313334
    72  N   -0.736354
    73  H    0.347526
    74  H    0.318730
    75  N   -0.613696
    76  H    0.268282
    77  C    0.550491
    78  O   -0.514831
    79  H    0.467883
    80  H    0.450721
    81  H    0.414761
 Sum of Mulliken charges =   1.00000

 Dipole moment (field-independent basis, Debye):
    X=              1.5651    Y=             -5.8900    Z=             -0.8058  Tot=              6.1475
 Quadrupole moment (field-independent basis, Debye-Ang):
   XX=           -129.3237   YY=           -214.9524   ZZ=           -230.1768
   XY=            -24.4042   XZ=            -31.0945   YZ=             21.2179

 Normal termination of Gaussian 16 at Sun May 15 18:54:29 2022.
