 Gaussian 16, Revision C.01,
 Gaussian 16:  ES64L-G16RevC.01  3-Jul-2019

 ----------------------------------------------------------------------
 # B3LYP/6-31G* empiricaldispersion=gd3 guess=read geom=check nosymm in
 tegral(ultrafinegrid)
 ----------------------------------------------------------------------

 ------------------------------------------------------
 Candidate Structure: Conf:242 Charge calc in gas phase
 ------------------------------------------------------
 Structure from the checkpoint file:  "conf-242.chk"
 Charge =  1 Multiplicity = 1

                          Input orientation:
 ---------------------------------------------------------------------
 Center     Atomic      Atomic             Coordinates (Angstroms)
 Number     Number       Type             X           Y           Z
 ---------------------------------------------------------------------
      1          7           0       -5.245450    0.023495    3.262477
      2          1           0       -6.060636    0.527765    2.920396
      3          1           0       -5.146784   -0.798496    2.667157
      4          6           0       -4.049657    0.838949    3.127993
      5          1           0       -4.244939    1.821913    3.576646
      6          6           0       -3.575304    1.014710    1.680783
      7          6           0       -2.861040    0.178174    3.866046
      8          1           0       -2.713453   -0.818710    3.432151
      9          1           0       -1.943293    0.744439    3.675387
     10          8           0       -3.724947    0.120063    0.844303
     11          6           0       -3.092722    0.059342    5.374297
     12          1           0       -4.038833   -0.441088    5.586614
     13          1           0       -3.147216    1.061130    5.822993
     14          6           0       -1.998878   -0.692015    6.101713
     15          8           0       -2.159354   -1.417746    7.052608
     16          8           0       -0.762821   -0.440642    5.579337
     17          7           0       -2.903451    2.176016    1.397656
     18          1           0       -2.662281    2.774428    2.180357
     19          6           0       -1.958546    2.195220    0.295885
     20          1           0       -2.238644    1.343088   -0.316980
     21          6           0       -0.550134    1.934857    0.834899
     22          6           0       -2.025129    3.455287   -0.597334
     23          1           0       -1.012766    3.729351   -0.920817
     24          1           0       -2.387766    4.300837   -0.000350
     25          8           0       -0.099205    2.433307    1.853323
     26          6           0       -2.861935    3.213639   -1.825706
     27          6           0       -3.991680    2.433075   -1.936124
     28          1           0       -4.516376    1.863775   -1.180676
     29          6           0       -2.585024    3.725295   -3.143878
     30          6           0       -3.585943    3.214498   -4.014515
     31          6           0       -1.566822    4.537176   -3.675386
     32          1           0       -0.791831    4.946167   -3.032243
     33          7           0       -4.423111    2.424014   -3.251859
     34          1           0       -5.268805    1.982748   -3.579150
     35          6           0       -2.572372    4.290944   -5.883082
     36          1           0       -2.552078    4.531111   -6.941636
     37          6           0       -3.593087    3.488040   -5.387355
     38          1           0       -4.368611    3.094853   -6.038599
     39          6           0       -1.569158    4.809122   -5.036464
     40          1           0       -0.794627    5.441783   -5.459661
     41          7           0        0.155124    1.078064    0.028093
     42          1           0       -0.352951    0.596989   -0.701959
     43          6           0        1.452436    0.528473    0.360997
     44          1           0        1.985154    1.285114    0.947516
     45          6           0        2.154749    0.321522   -0.986360
     46          6           0        1.415684   -0.801442    1.183176
     47          1           0        2.440219   -0.991614    1.521120
     48          8           0        2.447505   -0.852967   -1.411717
     49          6           0        0.469158   -0.753796    2.369003
     50          1           0        0.698606    0.087440    3.027934
     51          1           0        0.549299   -1.684311    2.935162
     52          1           0       -0.565219   -0.647649    2.029966
     53          8           0        1.107213   -1.920099    0.316556
     54          1           0        0.141695   -1.888128   -0.003340
     55          7           0        2.342141    1.361531   -1.768486
     56          1           0        2.101528    2.292373   -1.429150
     57          6           0        2.616618    1.293767   -3.211158
     58          1           0        3.548885    0.748998   -3.379522
     59          6           0        2.771924    2.743869   -3.660843
     60          6           0        1.458587    0.612975   -3.987197
     61          1           0        1.357923   -0.394031   -3.581179
     62          1           0        1.788962    0.511035   -5.025911
     63          8           0        2.440335    3.692870   -2.982658
     64          6           0        0.119656    1.382330   -3.931578
     65          1           0        0.024409    1.949649   -2.998212
     66          1           0        0.093639    2.133592   -4.728572
     67          6           0       -1.143675    0.505880   -4.061850
     68          1           0       -1.973313    1.137161   -4.383733
     69          1           0       -1.017483   -0.254744   -4.842140
     70          7           0       -1.568542   -0.105584   -2.798016
     71          1           0       -2.291732    0.405620   -2.308176
     72          7           0       -0.193915   -2.006770   -2.873592
     73          1           0       -0.090719   -2.924086   -2.454471
     74          1           0       -0.337497   -2.060818   -3.874501
     75          7           0       -1.337060   -1.548561   -0.925098
     76          1           0       -2.047441   -0.962829   -0.478150
     77          6           0       -1.097185   -1.225175   -2.164407
     78          8           0        3.256754    2.816610   -4.902999
     79          1           0        1.934515   -1.532283   -0.773270
     80          1           0        3.303166    3.757877   -5.158405
     81          1           0       -0.135608   -0.932888    6.141043
 ---------------------------------------------------------------------

 SCF Done:  E(RB3LYP) =  -2054.03448585     A.U. after    1 cycles

 Alpha  occ. eigenvalues --  -19.34047 -19.33000 -19.28954 -19.27820 -19.26322
 Alpha  occ. eigenvalues --  -19.24240 -19.22515 -19.20180 -14.53906 -14.49387
 Alpha  occ. eigenvalues --  -14.47762 -14.47541 -14.46933 -14.46647 -14.41097
 Alpha  occ. eigenvalues --  -14.39601 -10.47797 -10.45849 -10.41650 -10.41073
 Alpha  occ. eigenvalues --  -10.38789 -10.38693 -10.38545 -10.38493 -10.37703
 Alpha  occ. eigenvalues --  -10.34347 -10.34344 -10.31677 -10.31469 -10.31440
 Alpha  occ. eigenvalues --  -10.31240 -10.30569 -10.30281 -10.28448 -10.28321
 Alpha  occ. eigenvalues --  -10.27969 -10.27795 -10.27720 -10.27577 -10.27428
 Alpha  occ. eigenvalues --  -10.27083 -10.26787  -1.25640  -1.24238  -1.16863
 Alpha  occ. eigenvalues --   -1.16426  -1.15755  -1.15406  -1.13965  -1.11123
 Alpha  occ. eigenvalues --   -1.10412  -1.07846  -1.07370  -1.06261  -1.03295
 Alpha  occ. eigenvalues --   -1.01247  -0.97426  -0.96712  -0.94397  -0.93055
 Alpha  occ. eigenvalues --   -0.91665  -0.90200  -0.87824  -0.87057  -0.86104
 Alpha  occ. eigenvalues --   -0.84229  -0.82685  -0.81246  -0.81046  -0.79510
 Alpha  occ. eigenvalues --   -0.78885  -0.77036  -0.75990  -0.74409  -0.73143
 Alpha  occ. eigenvalues --   -0.72465  -0.71647  -0.71380  -0.70857  -0.69052
 Alpha  occ. eigenvalues --   -0.68507  -0.68338  -0.67954  -0.67412  -0.66937
 Alpha  occ. eigenvalues --   -0.65442  -0.64859  -0.64044  -0.63210  -0.62590
 Alpha  occ. eigenvalues --   -0.62020  -0.61761  -0.61407  -0.60632  -0.59988
 Alpha  occ. eigenvalues --   -0.59725  -0.58980  -0.58847  -0.58495  -0.57398
 Alpha  occ. eigenvalues --   -0.57382  -0.57142  -0.56393  -0.56160  -0.56001
 Alpha  occ. eigenvalues --   -0.55406  -0.55257  -0.54825  -0.54392  -0.54292
 Alpha  occ. eigenvalues --   -0.53637  -0.53249  -0.52966  -0.52619  -0.52502
 Alpha  occ. eigenvalues --   -0.52071  -0.51721  -0.51485  -0.51120  -0.50814
 Alpha  occ. eigenvalues --   -0.50451  -0.50244  -0.49949  -0.49505  -0.48974
 Alpha  occ. eigenvalues --   -0.48728  -0.48278  -0.47906  -0.47566  -0.46762
 Alpha  occ. eigenvalues --   -0.46657  -0.46642  -0.46428  -0.45943  -0.45191
 Alpha  occ. eigenvalues --   -0.44510  -0.44260  -0.43797  -0.43134  -0.42902
 Alpha  occ. eigenvalues --   -0.42678  -0.42529  -0.42457  -0.41509  -0.40027
 Alpha  occ. eigenvalues --   -0.38757  -0.38476  -0.38207  -0.38174  -0.37220
 Alpha  occ. eigenvalues --   -0.36545  -0.35514  -0.34386  -0.33734  -0.31987
 Alpha  occ. eigenvalues --   -0.31611  -0.29732
 Alpha virt. eigenvalues --   -0.17433  -0.12414  -0.11028  -0.10174  -0.08713
 Alpha virt. eigenvalues --   -0.08065  -0.06971  -0.05803  -0.05340  -0.04878
 Alpha virt. eigenvalues --   -0.04140  -0.03685  -0.03457  -0.01963  -0.01656

 Mulliken charges:
               1
     1  N   -0.691131
     2  H    0.312495
     3  H    0.318672
     4  C   -0.081648
     5  H    0.149061
     6  C    0.593656
     7  C   -0.282164
     8  H    0.159567
     9  H    0.167106
    10  O   -0.543710
    11  C   -0.346262
    12  H    0.215845
    13  H    0.178148
    14  C    0.571383
    15  O   -0.442295
    16  O   -0.576269
    17  N   -0.580195
    18  H    0.349762
    19  C   -0.086476
    20  H    0.152473
    21  C    0.624740
    22  C   -0.334514
    23  H    0.159128
    24  H    0.190372
    25  O   -0.506615
    26  C    0.039870
    27  C   -0.033021
    28  H    0.187392
    29  C    0.073543
    30  C    0.301213
    31  C   -0.213534
    32  H    0.140765
    33  N   -0.686706
    34  H    0.343904
    35  C   -0.149912
    36  H    0.147639
    37  C   -0.173531
    38  H    0.145746
    39  C   -0.148330
    40  H    0.136524
    41  N   -0.638032
    42  H    0.366953
    43  C   -0.089077
    44  H    0.227222
    45  C    0.626759
    46  C    0.103297
    47  H    0.182770
    48  O   -0.556536
    49  C   -0.473509
    50  H    0.197874
    51  H    0.190250
    52  H    0.163658
    53  O   -0.695927
    54  H    0.460690
    55  N   -0.565266
    56  H    0.394161
    57  C   -0.055768
    58  H    0.225270
    59  C    0.609921
    60  C   -0.323451
    61  H    0.216265
    62  H    0.189653
    63  O   -0.461122
    64  C   -0.285340
    65  H    0.148269
    66  H    0.180343
    67  C   -0.170053
    68  H    0.204457
    69  H    0.158021
    70  N   -0.624497
    71  H    0.372387
    72  N   -0.750719
    73  H    0.362899
    74  H    0.348619
    75  N   -0.753290
    76  H    0.334542
    77  C    0.600774
    78  O   -0.550542
    79  H    0.492185
    80  H    0.440977
    81  H    0.412227
 Sum of Mulliken charges =   1.00000

 Dipole moment (field-independent basis, Debye):
    X=              0.4696    Y=              5.6450    Z=            -12.6921  Tot=             13.8988
 Quadrupole moment (field-independent basis, Debye-Ang):
   XX=           -192.6603   YY=           -227.8641   ZZ=           -188.8517
   XY=             -7.9298   XZ=              7.9286   YZ=             -7.2865

 Normal termination of Gaussian 16 at Sun May 15 18:55:06 2022.
