 Gaussian 16, Revision C.01,
 Gaussian 16:  ES64L-G16RevC.01  3-Jul-2019

 ----------------------------------------------------------------------
 # B3LYP/6-31G* empiricaldispersion=gd3 guess=read geom=check nosymm in
 tegral(ultrafinegrid)
 ----------------------------------------------------------------------

 ------------------------------------------------------
 Candidate Structure: Conf:883 Charge calc in gas phase
 ------------------------------------------------------
 Structure from the checkpoint file:  "conf-883.chk"
 Charge =  1 Multiplicity = 1

                          Input orientation:
 ---------------------------------------------------------------------
 Center     Atomic      Atomic             Coordinates (Angstroms)
 Number     Number       Type             X           Y           Z
 ---------------------------------------------------------------------
      1          7           0       -3.606745    2.523323    4.276324
      2          1           0       -4.554015    2.300149    4.575260
      3          1           0       -3.058465    1.678846    4.444699
      4          6           0       -3.590542    2.784602    2.840220
      5          1           0       -4.498684    3.336154    2.568772
      6          6           0       -3.478682    1.500013    2.003579
      7          6           0       -2.377272    3.679577    2.463220
      8          1           0       -2.361691    3.836041    1.379940
      9          1           0       -2.500778    4.644699    2.963718
     10          8           0       -2.837257    0.536107    2.423133
     11          6           0       -1.038708    3.043294    2.907236
     12          1           0       -0.931110    2.047862    2.476093
     13          1           0       -1.036214    2.963753    3.998427
     14          6           0        0.130281    3.872818    2.468031
     15          8           0        0.869446    3.617075    1.522669
     16          8           0        0.295035    4.977211    3.208855
     17          7           0       -4.031885    1.505494    0.752189
     18          1           0       -4.349173    2.398669    0.393993
     19          6           0       -3.466087    0.608042   -0.249739
     20          1           0       -3.400075   -0.383530    0.204206
     21          6           0       -2.055775    1.136228   -0.572979
     22          6           0       -4.320600    0.554748   -1.523278
     23          1           0       -3.763740   -0.026275   -2.272923
     24          1           0       -4.390442    1.571764   -1.939649
     25          8           0       -1.820123    2.343846   -0.573519
     26          6           0       -5.686265   -0.037113   -1.333717
     27          6           0       -6.258420   -0.522146   -0.183074
     28          1           0       -5.868107   -0.551297    0.823887
     29          6           0       -6.651571   -0.228081   -2.386590
     30          6           0       -7.793717   -0.839481   -1.803144
     31          6           0       -6.657606    0.055650   -3.762796
     32          1           0       -5.795710    0.521718   -4.234152
     33          7           0       -7.522151   -1.007041   -0.459897
     34          1           0       -8.150547   -1.410811    0.216799
     35          6           0       -8.906263   -0.873511   -3.909929
     36          1           0       -9.771284   -1.115258   -4.520738
     37          6           0       -8.928567   -1.167622   -2.551327
     38          1           0       -9.794108   -1.634870   -2.089605
     39          6           0       -7.782509   -0.268095   -4.510711
     40          1           0       -7.801491   -0.053917   -5.575521
     41          7           0       -1.094196    0.205965   -0.829410
     42          1           0       -1.298617   -0.783719   -0.799113
     43          6           0        0.285890    0.629741   -0.911031
     44          1           0        0.242918    1.707484   -1.071998
     45          6           0        1.037312   -0.042572   -2.053725
     46          6           0        1.040391    0.414848    0.441726
     47          1           0        0.496946    0.997845    1.186975
     48          8           0        0.910901   -1.224749   -2.339584
     49          6           0        1.165007   -1.040006    0.872512
     50          1           0        0.177366   -1.481250    1.040441
     51          1           0        1.722823   -1.097681    1.812438
     52          1           0        1.680432   -1.636952    0.112644
     53          8           0        2.324883    1.048737    0.350124
     54          1           0        2.894399    0.492046   -0.214853
     55          7           0        1.927896    0.792482   -2.682451
     56          1           0        2.041608    1.723462   -2.308403
     57          6           0        2.899448    0.256389   -3.612252
     58          1           0        2.381742   -0.497176   -4.213548
     59          6           0        4.037663   -0.514233   -2.933557
     60          6           0        3.509402    1.299363   -4.574351
     61          1           0        2.692781    1.783591   -5.122226
     62          1           0        4.085015    0.730066   -5.309265
     63          8           0        4.788755   -1.252647   -3.512864
     64          6           0        4.444206    2.357635   -3.943180
     65          1           0        5.016577    1.894423   -3.128810
     66          1           0        5.185609    2.651229   -4.692749
     67          6           0        3.773093    3.656593   -3.411648
     68          1           0        4.042042    4.516192   -4.030205
     69          1           0        2.684991    3.581838   -3.447251
     70          7           0        4.171154    3.963419   -2.018956
     71          1           0        5.172898    3.983579   -1.863662
     72          7           0        2.094230    3.650794   -1.026917
     73          1           0        1.553932    3.485469   -0.170010
     74          1           0        1.697784    4.337840   -1.655145
     75          7           0        4.016502    3.156941    0.175311
     76          1           0        4.964915    2.808875    0.109075
     77          6           0        3.428654    3.582471   -0.953648
     78          8           0        4.179785   -0.235245   -1.593644
     79          1           0        3.411454    2.610144    0.809359
     80          1           0        4.908317   -0.807138   -1.281049
     81          1           0        1.051977    5.475632    2.846866
 ---------------------------------------------------------------------

 SCF Done:  E(RB3LYP) =  -2054.05207925     A.U. after    1 cycles

 Alpha  occ. eigenvalues --  -19.32438 -19.29978 -19.26354 -19.25644 -19.25040
 Alpha  occ. eigenvalues --  -19.22398 -19.20962 -19.19947 -14.52872 -14.51864
 Alpha  occ. eigenvalues --  -14.51504 -14.47265 -14.45871 -14.43997 -14.43259
 Alpha  occ. eigenvalues --  -14.38617 -10.48720 -10.43615 -10.42860 -10.39307
 Alpha  occ. eigenvalues --  -10.37898 -10.37567 -10.36332 -10.35474 -10.34334
 Alpha  occ. eigenvalues --  -10.32817 -10.32504 -10.31784 -10.31711 -10.30435
 Alpha  occ. eigenvalues --  -10.28110 -10.27501 -10.27468 -10.27376 -10.26936
 Alpha  occ. eigenvalues --  -10.26843 -10.24144 -10.23766 -10.23574 -10.23449
 Alpha  occ. eigenvalues --  -10.23228 -10.22882  -1.22388  -1.21160  -1.17332
 Alpha  occ. eigenvalues --   -1.14696  -1.13622  -1.13239  -1.13099  -1.11847
 Alpha  occ. eigenvalues --   -1.11536  -1.06652  -1.05160  -1.04067  -1.03154
 Alpha  occ. eigenvalues --   -1.02137  -1.00589  -0.96310  -0.92886  -0.88936
 Alpha  occ. eigenvalues --   -0.88628  -0.87889  -0.87413  -0.86420  -0.82945
 Alpha  occ. eigenvalues --   -0.82143  -0.80211  -0.79557  -0.78530  -0.78400
 Alpha  occ. eigenvalues --   -0.76834  -0.75811  -0.74244  -0.74018  -0.72907
 Alpha  occ. eigenvalues --   -0.72114  -0.70679  -0.70137  -0.69957  -0.68525
 Alpha  occ. eigenvalues --   -0.67816  -0.67329  -0.65789  -0.65492  -0.65122
 Alpha  occ. eigenvalues --   -0.64367  -0.64095  -0.62702  -0.62054  -0.61908
 Alpha  occ. eigenvalues --   -0.61268  -0.60267  -0.59921  -0.59603  -0.59194
 Alpha  occ. eigenvalues --   -0.59057  -0.58593  -0.58135  -0.57689  -0.56998
 Alpha  occ. eigenvalues --   -0.56472  -0.56095  -0.55867  -0.54828  -0.54644
 Alpha  occ. eigenvalues --   -0.54368  -0.54169  -0.53618  -0.53124  -0.52952
 Alpha  occ. eigenvalues --   -0.52422  -0.52148  -0.51673  -0.51005  -0.50542
 Alpha  occ. eigenvalues --   -0.50436  -0.49866  -0.49743  -0.49524  -0.48815
 Alpha  occ. eigenvalues --   -0.48493  -0.48166  -0.47858  -0.47510  -0.47463
 Alpha  occ. eigenvalues --   -0.47125  -0.46928  -0.46601  -0.46385  -0.45683
 Alpha  occ. eigenvalues --   -0.45444  -0.44939  -0.44661  -0.43943  -0.43610
 Alpha  occ. eigenvalues --   -0.43564  -0.43336  -0.42974  -0.42574  -0.42210
 Alpha  occ. eigenvalues --   -0.41498  -0.40583  -0.40345  -0.39488  -0.38629
 Alpha  occ. eigenvalues --   -0.38237  -0.38204  -0.36689  -0.36066  -0.35341
 Alpha  occ. eigenvalues --   -0.34412  -0.34249  -0.33364  -0.32275  -0.31066
 Alpha  occ. eigenvalues --   -0.27218  -0.25524
 Alpha virt. eigenvalues --   -0.14915  -0.11035  -0.09930  -0.08981  -0.08528
 Alpha virt. eigenvalues --   -0.07430  -0.06205  -0.05839  -0.05640  -0.04965
 Alpha virt. eigenvalues --   -0.03958  -0.02497  -0.02290  -0.02052  -0.01297

 Mulliken charges:
               1
     1  N   -0.707408
     2  H    0.314276
     3  H    0.321181
     4  C   -0.087336
     5  H    0.149386
     6  C    0.598350
     7  C   -0.275570
     8  H    0.173944
     9  H    0.178703
    10  O   -0.537742
    11  C   -0.365118
    12  H    0.204602
    13  H    0.199358
    14  C    0.583323
    15  O   -0.522480
    16  O   -0.525805
    17  N   -0.566602
    18  H    0.339269
    19  C   -0.080323
    20  H    0.180364
    21  C    0.636288
    22  C   -0.362564
    23  H    0.164038
    24  H    0.159020
    25  O   -0.548578
    26  C    0.071664
    27  C    0.005371
    28  H    0.160216
    29  C    0.078194
    30  C    0.318155
    31  C   -0.210712
    32  H    0.116576
    33  N   -0.701457
    34  H    0.333258
    35  C   -0.150299
    36  H    0.135141
    37  C   -0.160239
    38  H    0.132141
    39  C   -0.138411
    40  H    0.128650
    41  N   -0.604177
    42  H    0.355622
    43  C   -0.078759
    44  H    0.177403
    45  C    0.605188
    46  C    0.114238
    47  H    0.184427
    48  O   -0.508864
    49  C   -0.484786
    50  H    0.172702
    51  H    0.170376
    52  H    0.170011
    53  O   -0.704620
    54  H    0.432257
    55  N   -0.638048
    56  H    0.366298
    57  C   -0.045703
    58  H    0.231334
    59  C    0.607073
    60  C   -0.310185
    61  H    0.176786
    62  H    0.205088
    63  O   -0.422507
    64  C   -0.304259
    65  H    0.151730
    66  H    0.190939
    67  C   -0.179647
    68  H    0.208746
    69  H    0.175933
    70  N   -0.578080
    71  H    0.357371
    72  N   -0.770249
    73  H    0.456883
    74  H    0.378583
    75  N   -0.725207
    76  H    0.359288
    77  C    0.719083
    78  O   -0.612565
    79  H    0.415943
    80  H    0.429644
    81  H    0.413885
 Sum of Mulliken charges =   1.00000

 Dipole moment (field-independent basis, Debye):
    X=              9.7646    Y=             14.1909    Z=             -3.9273  Tot=             17.6679
 Quadrupole moment (field-independent basis, Debye-Ang):
   XX=           -124.6512   YY=           -190.3367   ZZ=           -215.8295
   XY=             53.3774   XZ=            -30.2458   YZ=            -26.6671

 Normal termination of Gaussian 16 at Sun May 15 18:54:42 2022.
