 Gaussian 16, Revision C.01,
 Gaussian 16:  ES64L-G16RevC.01  3-Jul-2019

 ----------------------------------------------------------------------
 # B3LYP/6-31G* empiricaldispersion=gd3 guess=read geom=check nosymm in
 tegral(ultrafinegrid)
 ----------------------------------------------------------------------

 ------------------------------------------------------
 Candidate Structure: Conf:747 Charge calc in gas phase
 ------------------------------------------------------
 Structure from the checkpoint file:  "conf-747.chk"
 Charge =  1 Multiplicity = 1

                          Input orientation:
 ---------------------------------------------------------------------
 Center     Atomic      Atomic             Coordinates (Angstroms)
 Number     Number       Type             X           Y           Z
 ---------------------------------------------------------------------
      1          7           0       -4.130571    0.594370    3.837494
      2          1           0       -4.607948    1.006763    4.636178
      3          1           0       -4.272180   -0.411577    3.860727
      4          6           0       -4.667138    1.151150    2.599834
      5          1           0       -5.713458    0.852917    2.387508
      6          6           0       -3.833451    0.571502    1.451323
      7          6           0       -4.634338    2.691949    2.657974
      8          1           0       -5.037157    3.108509    1.727223
      9          1           0       -5.320051    3.018619    3.446519
     10          8           0       -3.186140   -0.478972    1.608559
     11          6           0       -3.240953    3.265696    2.945203
     12          1           0       -3.226712    4.335899    2.699032
     13          1           0       -2.459675    2.796507    2.337291
     14          6           0       -2.875605    3.169970    4.414526
     15          8           0       -3.668404    3.159135    5.331771
     16          8           0       -1.536830    3.163407    4.595530
     17          7           0       -3.850128    1.205696    0.248335
     18          1           0       -4.223493    2.144270    0.189601
     19          6           0       -2.923987    0.781234   -0.800690
     20          1           0       -3.091403   -0.286056   -0.946068
     21          6           0       -1.502258    0.993434   -0.261315
     22          6           0       -3.113620    1.503413   -2.143819
     23          1           0       -3.108622    2.588537   -1.977968
     24          1           0       -4.102624    1.232439   -2.536172
     25          8           0       -1.110221    2.064732    0.174778
     26          6           0       -2.003285    1.137741   -3.092592
     27          6           0       -1.254309    2.024777   -3.836258
     28          1           0       -1.329454    3.101396   -3.903547
     29          6           0       -1.471965   -0.177489   -3.376333
     30          6           0       -0.392327    0.010411   -4.288924
     31          6           0       -1.762512   -1.491603   -2.947902
     32          1           0       -2.624401   -1.700546   -2.318146
     33          7           0       -0.287434    1.360799   -4.550752
     34          1           0        0.247003    1.761736   -5.331938
     35          6           0        0.094587   -2.327215   -4.294771
     36          1           0        0.686491   -3.171027   -4.635715
     37          6           0        0.389483   -1.050640   -4.757375
     38          1           0        1.200130   -0.877523   -5.459421
     39          6           0       -0.974180   -2.545377   -3.401412
     40          1           0       -1.202148   -3.558841   -3.083489
     41          7           0       -0.767670   -0.180518   -0.147577
     42          1           0       -0.832902   -0.807644   -0.954709
     43          6           0        0.490202   -0.167403    0.588421
     44          1           0        0.423736    0.683613    1.274951
     45          6           0        1.721522    0.006429   -0.315675
     46          6           0        0.538728   -1.458751    1.397941
     47          1           0        0.686039   -2.323378    0.750076
     48          8           0        2.463610   -0.926360   -0.593899
     49          6           0        1.481852   -1.472723    2.572930
     50          1           0        2.494686   -1.380372    2.167803
     51          1           0        1.418519   -2.412056    3.128683
     52          1           0        1.303096   -0.627370    3.248538
     53          8           0       -0.899546   -1.662146    1.880143
     54          1           0       -1.091563   -1.214962    2.732948
     55          7           0        1.829504    1.270260   -0.779401
     56          1           0        1.145733    1.957901   -0.480282
     57          6           0        2.824215    1.650490   -1.767991
     58          1           0        2.840559    0.878842   -2.546524
     59          6           0        4.251125    1.700684   -1.216072
     60          6           0        2.447235    3.012941   -2.391643
     61          1           0        2.755891    3.825742   -1.720627
     62          1           0        1.352644    3.053773   -2.467781
     63          8           0        5.219307    1.837036   -1.928296
     64          6           0        3.037852    3.209187   -3.789330
     65          1           0        4.122977    3.068111   -3.761958
     66          1           0        2.628618    2.418437   -4.430770
     67          6           0        2.678901    4.580151   -4.402856
     68          1           0        1.761429    4.968514   -3.952663
     69          1           0        3.463504    5.320034   -4.217450
     70          7           0        2.450004    4.505571   -5.864664
     71          1           0        3.258818    4.106527   -6.335191
     72          7           0        0.119930    4.440626   -5.807337
     73          1           0       -0.709230    4.075856   -6.262044
     74          1           0        0.170189    5.452930   -5.827765
     75          7           0        1.190726    2.665637   -6.822193
     76          1           0        2.111389    2.255372   -6.980505
     77          6           0        1.282396    3.806813   -6.228378
     78          8           0        4.314024    1.618742    0.128812
     79          1           0       -1.555272   -1.197493    1.222870
     80          1           0        5.261934    1.665973    0.361042
     81          1           0       -1.387923    3.166177    5.560889
 ---------------------------------------------------------------------

 SCF Done:  E(RB3LYP) =  -2053.99372293     A.U. after    1 cycles

 Alpha  occ. eigenvalues --  -19.40636 -19.28594 -19.27865 -19.26147 -19.25190
 Alpha  occ. eigenvalues --  -19.23025 -19.22547 -19.21849 -14.49580 -14.48822
 Alpha  occ. eigenvalues --  -14.46894 -14.45387 -14.43551 -14.43120 -14.41183
 Alpha  occ. eigenvalues --  -14.38629 -10.42362 -10.41447 -10.41341 -10.40869
 Alpha  occ. eigenvalues --  -10.40386 -10.40322 -10.37502 -10.36963 -10.35421
 Alpha  occ. eigenvalues --  -10.33744 -10.33373 -10.32175 -10.30627 -10.30616
 Alpha  occ. eigenvalues --  -10.30615 -10.30392 -10.29527 -10.29215 -10.29098
 Alpha  occ. eigenvalues --  -10.27891 -10.27787 -10.27670 -10.27473 -10.27209
 Alpha  occ. eigenvalues --  -10.27193 -10.26876  -1.26997  -1.19412  -1.18632
 Alpha  occ. eigenvalues --   -1.18018  -1.16276  -1.14887  -1.10353  -1.09574
 Alpha  occ. eigenvalues --   -1.06686  -1.06520  -1.05998  -1.05003  -1.03723
 Alpha  occ. eigenvalues --   -0.99012  -0.97417  -0.94651  -0.93727  -0.92642
 Alpha  occ. eigenvalues --   -0.91264  -0.89802  -0.88553  -0.86423  -0.84993
 Alpha  occ. eigenvalues --   -0.82844  -0.82213  -0.81611  -0.80260  -0.78912
 Alpha  occ. eigenvalues --   -0.76709  -0.76039  -0.75449  -0.73820  -0.72138
 Alpha  occ. eigenvalues --   -0.71302  -0.70888  -0.70185  -0.69367  -0.69129
 Alpha  occ. eigenvalues --   -0.68686  -0.67896  -0.67709  -0.67486  -0.65254
 Alpha  occ. eigenvalues --   -0.64687  -0.64012  -0.63697  -0.63076  -0.62052
 Alpha  occ. eigenvalues --   -0.61352  -0.60320  -0.59709  -0.59574  -0.58679
 Alpha  occ. eigenvalues --   -0.58490  -0.57841  -0.57070  -0.56901  -0.56678
 Alpha  occ. eigenvalues --   -0.56163  -0.55989  -0.55796  -0.55599  -0.55484
 Alpha  occ. eigenvalues --   -0.54825  -0.54468  -0.54111  -0.54030  -0.53661
 Alpha  occ. eigenvalues --   -0.53188  -0.52696  -0.52572  -0.52148  -0.51927
 Alpha  occ. eigenvalues --   -0.51616  -0.51592  -0.50799  -0.50360  -0.50177
 Alpha  occ. eigenvalues --   -0.49827  -0.49366  -0.49226  -0.49095  -0.49000
 Alpha  occ. eigenvalues --   -0.48490  -0.48279  -0.48084  -0.47096  -0.46838
 Alpha  occ. eigenvalues --   -0.46619  -0.46109  -0.45705  -0.45034  -0.44313
 Alpha  occ. eigenvalues --   -0.44173  -0.44071  -0.43185  -0.42622  -0.42192
 Alpha  occ. eigenvalues --   -0.41828  -0.40374  -0.40146  -0.39877  -0.38604
 Alpha  occ. eigenvalues --   -0.38375  -0.37941  -0.37293  -0.36478  -0.36068
 Alpha  occ. eigenvalues --   -0.35736  -0.34911  -0.34186  -0.33778  -0.31982
 Alpha  occ. eigenvalues --   -0.31063  -0.29263
 Alpha virt. eigenvalues --   -0.13159  -0.11200  -0.10477  -0.10152  -0.08295
 Alpha virt. eigenvalues --   -0.07736  -0.06971  -0.06572  -0.06004  -0.05372
 Alpha virt. eigenvalues --   -0.03709  -0.03054  -0.02039  -0.01880  -0.01312

 Mulliken charges:
               1
     1  N   -0.741703
     2  H    0.338466
     3  H    0.316609
     4  C   -0.069064
     5  H    0.170155
     6  C    0.665425
     7  C   -0.317647
     8  H    0.140145
     9  H    0.197945
    10  O   -0.599327
    11  C   -0.357822
    12  H    0.193721
    13  H    0.181504
    14  C    0.614485
    15  O   -0.471624
    16  O   -0.570744
    17  N   -0.603471
    18  H    0.354920
    19  C   -0.032023
    20  H    0.179333
    21  C    0.622842
    22  C   -0.362150
    23  H    0.161586
    24  H    0.183799
    25  O   -0.503624
    26  C    0.036867
    27  C   -0.008376
    28  H    0.167464
    29  C    0.079926
    30  C    0.298929
    31  C   -0.306045
    32  H    0.143806
    33  N   -0.707246
    34  H    0.398365
    35  C   -0.148246
    36  H    0.150078
    37  C   -0.155387
    38  H    0.150389
    39  C   -0.132483
    40  H    0.141079
    41  N   -0.699515
    42  H    0.384607
    43  C   -0.104097
    44  H    0.203603
    45  C    0.662306
    46  C    0.090159
    47  H    0.233955
    48  O   -0.516793
    49  C   -0.501187
    50  H    0.236004
    51  H    0.205346
    52  H    0.175332
    53  O   -0.637306
    54  H    0.476253
    55  N   -0.633790
    56  H    0.365474
    57  C   -0.010844
    58  H    0.205101
    59  C    0.605171
    60  C   -0.326823
    61  H    0.165221
    62  H    0.164875
    63  O   -0.449361
    64  C   -0.291750
    65  H    0.191876
    66  H    0.138585
    67  C   -0.167968
    68  H    0.165608
    69  H    0.175358
    70  N   -0.563062
    71  H    0.322290
    72  N   -0.728985
    73  H    0.349443
    74  H    0.348986
    75  N   -0.648221
    76  H    0.290022
    77  C    0.530840
    78  O   -0.564297
    79  H    0.516364
    80  H    0.423668
    81  H    0.416701
 Sum of Mulliken charges =   1.00000

 Dipole moment (field-independent basis, Debye):
    X=             -3.6518    Y=              5.7328    Z=              0.3352  Tot=              6.8054
 Quadrupole moment (field-independent basis, Debye-Ang):
   XX=           -200.9709   YY=           -197.8639   ZZ=           -192.6071
   XY=              0.6135   XZ=             -7.4840   YZ=            -33.1909

 Normal termination of Gaussian 16 at Sun May 15 18:54:48 2022.
