 Gaussian 16, Revision C.01,
 Gaussian 16:  ES64L-G16RevC.01  3-Jul-2019

 ----------------------------------------------------------------------
 # B3LYP/6-31G* empiricaldispersion=gd3 guess=read geom=check nosymm in
 tegral(ultrafinegrid)
 ----------------------------------------------------------------------

 -----------------------------------------------------
 Candidate Structure: Conf:34 Charge calc in gas phase
 -----------------------------------------------------
 Structure from the checkpoint file:  "conf-34.chk"
 Charge =  1 Multiplicity = 1

                          Input orientation:
 ---------------------------------------------------------------------
 Center     Atomic      Atomic             Coordinates (Angstroms)
 Number     Number       Type             X           Y           Z
 ---------------------------------------------------------------------
      1          7           0       -6.243719    0.611617    3.264254
      2          1           0       -6.723993    1.218878    2.602603
      3          1           0       -6.303849   -0.326048    2.866438
      4          6           0       -4.841639    0.984126    3.357122
      5          1           0       -4.788156    2.060300    3.577168
      6          6           0       -4.063322    0.708137    2.056971
      7          6           0       -4.155136    0.219748    4.511152
      8          1           0       -4.208998   -0.855667    4.293819
      9          1           0       -3.092269    0.482465    4.551759
     10          8           0       -4.453701   -0.081824    1.205909
     11          6           0       -4.814253    0.509370    5.868608
     12          1           0       -5.868469    0.233659    5.848293
     13          1           0       -4.745147    1.583668    6.085332
     14          6           0       -4.147646   -0.240948    6.999875
     15          8           0       -4.679751   -1.032503    7.741216
     16          8           0       -2.824532    0.078418    7.099567
     17          7           0       -2.861712    1.364907    1.922493
     18          1           0       -2.596706    2.089341    2.575388
     19          6           0       -2.070625    1.154785    0.732462
     20          1           0       -2.247308    0.121706    0.415624
     21          6           0       -0.605881    1.319296    1.029253
     22          6           0       -2.512906    2.063344   -0.467951
     23          1           0       -2.304198    3.110648   -0.221567
     24          1           0       -3.600040    1.946783   -0.503911
     25          8           0       -0.286710    2.026985    2.075192
     26          6           0       -1.892839    1.676950   -1.772986
     27          6           0       -2.292136    0.633827   -2.581512
     28          1           0       -3.112057   -0.059958   -2.451303
     29          6           0       -0.763581    2.291612   -2.424478
     30          6           0       -0.543886    1.578239   -3.635296
     31          6           0        0.084396    3.367143   -2.103661
     32          1           0       -0.062932    3.931856   -1.185197
     33          7           0       -1.486777    0.574769   -3.694632
     34          1           0       -1.574283   -0.100121   -4.439593
     35          6           0        1.268539    3.012471   -4.204650
     36          1           0        2.042802    3.328454   -4.895942
     37          6           0        0.462667    1.930817   -4.538532
     38          1           0        0.600362    1.389539   -5.470157
     39          6           0        1.092671    3.716922   -2.993421
     40          1           0        1.756098    4.545044   -2.762908
     41          7           0        0.285516    0.805890    0.221231
     42          1           0       -0.029005    0.243819   -0.579827
     43          6           0        1.740620    1.041324    0.178121
     44          1           0        1.945996    2.114102    0.265994
     45          6           0        2.154351    0.521180   -1.222174
     46          6           0        2.441625    0.298320    1.337609
     47          1           0        2.020216   -0.714310    1.385073
     48          8           0        1.448650   -0.321100   -1.777557
     49          6           0        3.958141    0.252114    1.272658
     50          1           0        4.298176   -0.311396    0.400329
     51          1           0        4.338874   -0.250714    2.169061
     52          1           0        4.357354    1.268288    1.242907
     53          8           0        2.032996    1.046971    2.514815
     54          1           0        0.666958    1.833473    2.360165
     55          7           0        3.285233    1.025561   -1.733510
     56          1           0        3.806859    1.738168   -1.215948
     57          6           0        3.791223    0.533016   -3.013387
     58          1           0        3.010365    0.661239   -3.768994
     59          6           0        4.101760   -0.963693   -2.994386
     60          6           0        5.060279    1.302978   -3.434633
     61          1           0        5.529358    0.752089   -4.255415
     62          1           0        5.765155    1.268973   -2.593853
     63          8           0        4.102197   -1.647324   -3.987541
     64          6           0        4.767903    2.755377   -3.860306
     65          1           0        4.540726    2.784665   -4.932468
     66          1           0        3.871399    3.115845   -3.348787
     67          6           0        5.903834    3.748162   -3.563674
     68          1           0        6.822545    3.482322   -4.095338
     69          1           0        5.616488    4.744668   -3.914051
     70          7           0        6.255419    3.817091   -2.127142
     71          1           0        6.946506    3.124512   -1.864571
     72          7           0        4.292352    4.871843   -1.453609
     73          1           0        3.664205    5.035054   -0.676741
     74          1           0        4.667931    5.723637   -1.852397
     75          7           0        5.033908    3.076862   -0.194827
     76          1           0        5.759619    2.357124   -0.185121
     77          6           0        5.218230    3.878374   -1.199111
     78          8           0        4.458225   -1.421345   -1.767671
     79          1           0        2.309384    0.586007    3.323333
     80          1           0        4.665201   -2.369165   -1.878998
     81          1           0       -2.482536   -0.436689    7.854769
 ---------------------------------------------------------------------

 SCF Done:  E(RB3LYP) =  -2054.02164235     A.U. after    1 cycles

 Alpha  occ. eigenvalues --  -19.34593 -19.31428 -19.29523 -19.25574 -19.24312
 Alpha  occ. eigenvalues --  -19.23222 -19.21477 -19.19732 -14.53524 -14.47588
 Alpha  occ. eigenvalues --  -14.47570 -14.46796 -14.45239 -14.45233 -14.40296
 Alpha  occ. eigenvalues --  -14.39018 -10.47269 -10.41515 -10.41498 -10.39478
 Alpha  occ. eigenvalues --  -10.38872 -10.38287 -10.38038 -10.37908 -10.36682
 Alpha  occ. eigenvalues --  -10.34291 -10.32337 -10.31787 -10.31292 -10.31059
 Alpha  occ. eigenvalues --  -10.30794 -10.30051 -10.29099 -10.28516 -10.28304
 Alpha  occ. eigenvalues --  -10.28222 -10.28214 -10.28113 -10.27732 -10.27549
 Alpha  occ. eigenvalues --  -10.27427 -10.26236  -1.25396  -1.20114  -1.17860
 Alpha  occ. eigenvalues --   -1.16464  -1.16198  -1.13536  -1.11126  -1.10370
 Alpha  occ. eigenvalues --   -1.08642  -1.07559  -1.07259  -1.04520  -1.03612
 Alpha  occ. eigenvalues --   -0.99243  -0.96941  -0.95516  -0.93934  -0.93308
 Alpha  occ. eigenvalues --   -0.91131  -0.89857  -0.87930  -0.86325  -0.85039
 Alpha  occ. eigenvalues --   -0.84012  -0.82977  -0.81945  -0.79371  -0.78982
 Alpha  occ. eigenvalues --   -0.77615  -0.76488  -0.75182  -0.73672  -0.72566
 Alpha  occ. eigenvalues --   -0.71764  -0.71641  -0.70733  -0.69808  -0.69158
 Alpha  occ. eigenvalues --   -0.68974  -0.68370  -0.66937  -0.66331  -0.66069
 Alpha  occ. eigenvalues --   -0.65676  -0.65296  -0.63526  -0.62612  -0.62131
 Alpha  occ. eigenvalues --   -0.60474  -0.59915  -0.59350  -0.59113  -0.58858
 Alpha  occ. eigenvalues --   -0.58486  -0.57846  -0.57332  -0.57156  -0.56974
 Alpha  occ. eigenvalues --   -0.56640  -0.56547  -0.56166  -0.55432  -0.54972
 Alpha  occ. eigenvalues --   -0.54951  -0.54310  -0.53741  -0.53530  -0.53243
 Alpha  occ. eigenvalues --   -0.52927  -0.52614  -0.52564  -0.52179  -0.52017
 Alpha  occ. eigenvalues --   -0.51535  -0.51200  -0.50786  -0.50466  -0.50350
 Alpha  occ. eigenvalues --   -0.50009  -0.49928  -0.49726  -0.49027  -0.48785
 Alpha  occ. eigenvalues --   -0.48542  -0.47849  -0.47644  -0.47536  -0.46766
 Alpha  occ. eigenvalues --   -0.45694  -0.45370  -0.45086  -0.44747  -0.44317
 Alpha  occ. eigenvalues --   -0.44061  -0.43765  -0.43097  -0.43003  -0.42630
 Alpha  occ. eigenvalues --   -0.42499  -0.42273  -0.41184  -0.39193  -0.38853
 Alpha  occ. eigenvalues --   -0.38621  -0.37725  -0.37459  -0.36252  -0.36019
 Alpha  occ. eigenvalues --   -0.35790  -0.35405  -0.33561  -0.33146  -0.31661
 Alpha  occ. eigenvalues --   -0.31654  -0.29992
 Alpha virt. eigenvalues --   -0.16461  -0.11126  -0.10199  -0.08515  -0.07769
 Alpha virt. eigenvalues --   -0.07483  -0.06887  -0.06717  -0.05064  -0.04677
 Alpha virt. eigenvalues --   -0.04087  -0.02717  -0.02088  -0.01846  -0.01622

 Mulliken charges:
               1
     1  N   -0.686284
     2  H    0.312034
     3  H    0.319803
     4  C   -0.088794
     5  H    0.144110
     6  C    0.597057
     7  C   -0.272131
     8  H    0.162975
     9  H    0.148470
    10  O   -0.514321
    11  C   -0.324262
    12  H    0.211598
    13  H    0.165571
    14  C    0.558500
    15  O   -0.441434
    16  O   -0.575789
    17  N   -0.618876
    18  H    0.349523
    19  C   -0.046979
    20  H    0.218279
    21  C    0.639036
    22  C   -0.357425
    23  H    0.167330
    24  H    0.205851
    25  O   -0.583972
    26  C    0.012347
    27  C    0.010253
    28  H    0.186615
    29  C    0.079018
    30  C    0.338575
    31  C   -0.237442
    32  H    0.118768
    33  N   -0.679342
    34  H    0.348592
    35  C   -0.162506
    36  H    0.140348
    37  C   -0.161840
    38  H    0.150639
    39  C   -0.139749
    40  H    0.138416
    41  N   -0.575943
    42  H    0.411042
    43  C   -0.105470
    44  H    0.211611
    45  C    0.654326
    46  C    0.150776
    47  H    0.171102
    48  O   -0.537700
    49  C   -0.524853
    50  H    0.203361
    51  H    0.162702
    52  H    0.211866
    53  O   -0.672084
    54  H    0.484315
    55  N   -0.653889
    56  H    0.391674
    57  C   -0.017402
    58  H    0.208239
    59  C    0.597204
    60  C   -0.313030
    61  H    0.193433
    62  H    0.129969
    63  O   -0.445609
    64  C   -0.304801
    65  H    0.164331
    66  H    0.189705
    67  C   -0.160184
    68  H    0.174759
    69  H    0.168702
    70  N   -0.562970
    71  H    0.326832
    72  N   -0.718462
    73  H    0.345973
    74  H    0.351984
    75  N   -0.686633
    76  H    0.284949
    77  C    0.557750
    78  O   -0.574478
    79  H    0.437841
    80  H    0.425008
    81  H    0.411491
 Sum of Mulliken charges =   1.00000

 Dipole moment (field-independent basis, Debye):
    X=             10.9804    Y=              9.5061    Z=             -2.0121  Tot=             14.6624
 Quadrupole moment (field-independent basis, Debye-Ang):
   XX=           -175.7423   YY=           -207.4279   ZZ=           -212.9209
   XY=             14.7435   XZ=             -0.0566   YZ=             -7.0061

 Normal termination of Gaussian 16 at Sun May 15 18:54:46 2022.
