 Gaussian 16, Revision C.01,
 Gaussian 16:  ES64L-G16RevC.01  3-Jul-2019

 ----------------------------------------------------------------------
 # B3LYP/6-31G* empiricaldispersion=gd3 guess=read geom=check nosymm in
 tegral(ultrafinegrid)
 ----------------------------------------------------------------------

 ------------------------------------------------------
 Candidate Structure: Conf:772 Charge calc in gas phase
 ------------------------------------------------------
 Structure from the checkpoint file:  "conf-772.chk"
 Charge =  1 Multiplicity = 1

                          Input orientation:
 ---------------------------------------------------------------------
 Center     Atomic      Atomic             Coordinates (Angstroms)
 Number     Number       Type             X           Y           Z
 ---------------------------------------------------------------------
      1          7           0       -5.996973    2.648836    3.330011
      2          1           0       -6.465640    3.094260    2.542392
      3          1           0       -6.261158    1.663449    3.295207
      4          6           0       -4.550383    2.735788    3.166308
      5          1           0       -4.285152    3.791319    3.016982
      6          6           0       -4.007619    1.883110    2.011705
      7          6           0       -3.872882    2.206256    4.452709
      8          1           0       -4.142123    2.858478    5.286721
      9          1           0       -4.298740    1.218068    4.661371
     10          8           0       -4.316657    0.702647    1.900297
     11          6           0       -2.349906    2.067143    4.325711
     12          1           0       -1.872105    3.038158    4.130827
     13          1           0       -2.089287    1.426927    3.477917
     14          6           0       -1.636842    1.444376    5.505871
     15          8           0       -0.581923    0.841473    5.414090
     16          8           0       -2.273692    1.626867    6.674199
     17          7           0       -3.092735    2.489725    1.185151
     18          1           0       -2.788439    3.435502    1.380954
     19          6           0       -2.208507    1.698628    0.359051
     20          1           0       -2.522654    0.658347    0.485437
     21          6           0       -0.774640    1.920833    0.824823
     22          6           0       -2.283159    2.074698   -1.152523
     23          1           0       -1.385796    1.683581   -1.655537
     24          1           0       -2.240730    3.166302   -1.234751
     25          8           0       -0.329137    3.020618    1.116062
     26          6           0       -3.505290    1.504908   -1.789181
     27          6           0       -4.701047    2.123424   -2.057805
     28          1           0       -4.989663    3.156403   -1.920202
     29          6           0       -3.664201    0.121039   -2.151119
     30          6           0       -4.987278   -0.034458   -2.643481
     31          6           0       -2.816207   -0.997955   -2.106288
     32          1           0       -1.793425   -0.901772   -1.741631
     33          7           0       -5.592361    1.205387   -2.574109
     34          1           0       -6.533729    1.411921   -2.870734
     35          6           0       -4.612798   -2.356313   -3.031533
     36          1           0       -4.961518   -3.328095   -3.367907
     37          6           0       -5.474679   -1.266414   -3.089445
     38          1           0       -6.488559   -1.371112   -3.465028
     39          6           0       -3.294938   -2.225817   -2.545592
     40          1           0       -2.651649   -3.100837   -2.517301
     41          7           0        0.028522    0.792758    0.829892
     42          1           0       -0.369444   -0.069139    0.475127
     43          6           0        1.481965    0.934190    0.803966
     44          1           0        1.720947    1.951582    0.474958
     45          6           0        2.004191   -0.115927   -0.175296
     46          6           0        2.138858    0.753128    2.198792
     47          1           0        3.225981    0.810160    2.093620
     48          8           0        2.075275   -1.326886    0.210896
     49          6           0        1.617357    1.677754    3.270885
     50          1           0        1.743062    2.715518    2.949282
     51          1           0        2.164226    1.519016    4.203448
     52          1           0        0.556121    1.511554    3.467986
     53          8           0        1.921044   -0.663932    2.633230
     54          1           0        1.039591   -0.732263    3.053913
     55          7           0        2.310631    0.229300   -1.407716
     56          1           0        2.292153    1.214942   -1.644432
     57          6           0        2.885358   -0.686857   -2.401859
     58          1           0        2.540236   -1.693177   -2.147427
     59          6           0        4.420789   -0.728564   -2.317011
     60          6           0        2.433697   -0.321699   -3.826004
     61          1           0        1.362614   -0.531819   -3.925033
     62          1           0        2.963658   -1.010135   -4.492147
     63          8           0        5.094171   -1.307807   -3.129574
     64          6           0        2.744937    1.130574   -4.216312
     65          1           0        2.032248    1.824028   -3.744389
     66          1           0        3.751583    1.412284   -3.883129
     67          6           0        2.694344    1.350778   -5.739599
     68          1           0        3.430839    0.692521   -6.213418
     69          1           0        1.716795    1.057033   -6.137789
     70          7           0        2.932659    2.731807   -6.148785
     71          1           0        2.106173    3.316119   -6.126650
     72          7           0        5.226918    2.608703   -5.696178
     73          1           0        6.048964    3.185582   -5.548719
     74          1           0        5.347405    2.008925   -6.507163
     75          7           0        4.183618    4.664253   -5.453983
     76          1           0        3.268344    5.117150   -5.418510
     77          6           0        4.088024    3.423093   -5.757265
     78          8           0        4.907529   -0.068489   -1.243704
     79          1           0        1.959141   -1.248503    1.577064
     80          1           0        5.880199   -0.161262   -1.271564
     81          1           0       -1.737190    1.200352    7.369919
 ---------------------------------------------------------------------

 SCF Done:  E(RB3LYP) =  -2053.96989823     A.U. after    2 cycles

 Alpha  occ. eigenvalues --  -19.38901 -19.32118 -19.31864 -19.28754 -19.25674
 Alpha  occ. eigenvalues --  -19.25337 -19.23173 -19.20251 -14.53984 -14.51062
 Alpha  occ. eigenvalues --  -14.45647 -14.45539 -14.42628 -14.40926 -14.39018
 Alpha  occ. eigenvalues --  -14.35321 -10.47189 -10.44129 -10.41908 -10.41673
 Alpha  occ. eigenvalues --  -10.41491 -10.40336 -10.37656 -10.36954 -10.34882
 Alpha  occ. eigenvalues --  -10.33963 -10.31358 -10.30974 -10.30679 -10.30669
 Alpha  occ. eigenvalues --  -10.29987 -10.29783 -10.29394 -10.29280 -10.29222
 Alpha  occ. eigenvalues --  -10.27199 -10.26692 -10.26286 -10.26225 -10.26048
 Alpha  occ. eigenvalues --  -10.25736 -10.25674  -1.25269  -1.22661  -1.21684
 Alpha  occ. eigenvalues --   -1.19699  -1.17443  -1.13708  -1.12314  -1.10548
 Alpha  occ. eigenvalues --   -1.10478  -1.07240  -1.05548  -1.04612  -1.02165
 Alpha  occ. eigenvalues --   -0.96656  -0.96100  -0.94838  -0.92670  -0.91499
 Alpha  occ. eigenvalues --   -0.91088  -0.89711  -0.88101  -0.87332  -0.85346
 Alpha  occ. eigenvalues --   -0.84146  -0.81141  -0.80144  -0.79388  -0.78908
 Alpha  occ. eigenvalues --   -0.78004  -0.77301  -0.75825  -0.74133  -0.73702
 Alpha  occ. eigenvalues --   -0.72120  -0.70948  -0.70054  -0.69869  -0.69771
 Alpha  occ. eigenvalues --   -0.68112  -0.67455  -0.67050  -0.66759  -0.66517
 Alpha  occ. eigenvalues --   -0.65610  -0.64530  -0.64148  -0.62696  -0.61731
 Alpha  occ. eigenvalues --   -0.61502  -0.60870  -0.60500  -0.59590  -0.59466
 Alpha  occ. eigenvalues --   -0.58629  -0.58066  -0.57737  -0.57587  -0.57462
 Alpha  occ. eigenvalues --   -0.56662  -0.56356  -0.56070  -0.55965  -0.55573
 Alpha  occ. eigenvalues --   -0.54749  -0.54468  -0.54051  -0.53957  -0.53470
 Alpha  occ. eigenvalues --   -0.53223  -0.52813  -0.52312  -0.51919  -0.51687
 Alpha  occ. eigenvalues --   -0.51556  -0.51336  -0.50871  -0.50809  -0.50502
 Alpha  occ. eigenvalues --   -0.49990  -0.49672  -0.49391  -0.49183  -0.48733
 Alpha  occ. eigenvalues --   -0.48017  -0.47735  -0.47628  -0.47331  -0.46503
 Alpha  occ. eigenvalues --   -0.46251  -0.45892  -0.45625  -0.45055  -0.44904
 Alpha  occ. eigenvalues --   -0.44259  -0.43695  -0.43646  -0.43479  -0.43077
 Alpha  occ. eigenvalues --   -0.42956  -0.41247  -0.40802  -0.40658  -0.40296
 Alpha  occ. eigenvalues --   -0.39156  -0.38711  -0.36727  -0.35703  -0.34855
 Alpha  occ. eigenvalues --   -0.34336  -0.33597  -0.32703  -0.31028  -0.29754
 Alpha  occ. eigenvalues --   -0.29623  -0.28052
 Alpha virt. eigenvalues --   -0.16562  -0.11411  -0.10913  -0.09877  -0.08741
 Alpha virt. eigenvalues --   -0.08215  -0.07087  -0.06499  -0.06216  -0.04896
 Alpha virt. eigenvalues --   -0.03446  -0.03093  -0.02242  -0.01830  -0.01632

 Mulliken charges:
               1
     1  N   -0.694184
     2  H    0.306195
     3  H    0.318890
     4  C   -0.070656
     5  H    0.133997
     6  C    0.583209
     7  C   -0.248274
     8  H    0.188335
     9  H    0.169455
    10  O   -0.516952
    11  C   -0.385547
    12  H    0.185030
    13  H    0.166288
    14  C    0.592649
    15  O   -0.494677
    16  O   -0.537594
    17  N   -0.591005
    18  H    0.341794
    19  C   -0.076583
    20  H    0.202442
    21  C    0.623994
    22  C   -0.359707
    23  H    0.130115
    24  H    0.169210
    25  O   -0.511236
    26  C    0.068637
    27  C    0.013141
    28  H    0.160148
    29  C    0.102528
    30  C    0.318914
    31  C   -0.211343
    32  H    0.072005
    33  N   -0.690382
    34  H    0.340490
    35  C   -0.150478
    36  H    0.142883
    37  C   -0.153892
    38  H    0.142672
    39  C   -0.135156
    40  H    0.125793
    41  N   -0.636500
    42  H    0.360373
    43  C   -0.087777
    44  H    0.216367
    45  C    0.663671
    46  C    0.081650
    47  H    0.213201
    48  O   -0.590201
    49  C   -0.487341
    50  H    0.204161
    51  H    0.203620
    52  H    0.204387
    53  O   -0.635710
    54  H    0.473049
    55  N   -0.573002
    56  H    0.377734
    57  C   -0.089689
    58  H    0.232615
    59  C    0.618501
    60  C   -0.290450
    61  H    0.167889
    62  H    0.202872
    63  O   -0.422310
    64  C   -0.305989
    65  H    0.122755
    66  H    0.188824
    67  C   -0.141759
    68  H    0.167628
    69  H    0.161138
    70  N   -0.579518
    71  H    0.316392
    72  N   -0.743221
    73  H    0.344923
    74  H    0.331121
    75  N   -0.621181
    76  H    0.266352
    77  C    0.540580
    78  O   -0.579874
    79  H    0.493568
    80  H    0.436541
    81  H    0.423461
 Sum of Mulliken charges =   1.00000

 Dipole moment (field-independent basis, Debye):
    X=              1.6606    Y=              3.6998    Z=             -0.0600  Tot=              4.0558
 Quadrupole moment (field-independent basis, Debye-Ang):
   XX=           -182.5114   YY=           -238.8839   ZZ=           -184.7986
   XY=            -19.8670   XZ=             15.2977   YZ=              4.5598

 Normal termination of Gaussian 16 at Sun May 15 18:55:00 2022.
