 Gaussian 16, Revision C.01,
 Gaussian 16:  ES64L-G16RevC.01  3-Jul-2019

 ----------------------------------------------------------------------
 # B3LYP/6-31G* empiricaldispersion=gd3 guess=read geom=check nosymm in
 tegral(ultrafinegrid)
 ----------------------------------------------------------------------

 -----------------------------------------------------
 Candidate Structure: Conf:81 Charge calc in gas phase
 -----------------------------------------------------
 Structure from the checkpoint file:  "conf-81.chk"
 Charge =  1 Multiplicity = 1

                          Input orientation:
 ---------------------------------------------------------------------
 Center     Atomic      Atomic             Coordinates (Angstroms)
 Number     Number       Type             X           Y           Z
 ---------------------------------------------------------------------
      1          7           0       -3.299706    0.794734    5.211073
      2          1           0       -3.672758   -0.143494    5.086187
      3          1           0       -2.317527    0.701390    5.461951
      4          6           0       -3.454979    1.592637    4.012390
      5          1           0       -4.510037    1.573565    3.724776
      6          6           0       -2.632362    1.107457    2.815518
      7          6           0       -3.049323    3.057442    4.322326
      8          1           0       -3.667515    3.370055    5.169199
      9          1           0       -2.008083    3.064073    4.666843
     10          8           0       -1.488881    0.583567    3.129659
     11          6           0       -3.169404    4.069168    3.157709
     12          1           0       -2.484612    3.800550    2.344317
     13          1           0       -2.889971    5.060379    3.521407
     14          6           0       -4.567771    4.124106    2.585018
     15          8           0       -5.082047    3.233083    1.915205
     16          8           0       -5.224039    5.242301    2.897677
     17          7           0       -3.131171    1.262952    1.613823
     18          1           0       -3.999648    1.822254    1.593598
     19          6           0       -2.500112    0.991383    0.318116
     20          1           0       -2.459529   -0.093645    0.189740
     21          6           0       -1.068375    1.550218    0.335345
     22          6           0       -3.351971    1.608522   -0.821413
     23          1           0       -3.556142    2.656702   -0.572935
     24          1           0       -4.316561    1.083089   -0.836648
     25          8           0       -0.794279    2.609460    0.908372
     26          6           0       -2.623807    1.522316   -2.128045
     27          6           0       -2.164129    2.580786   -2.880339
     28          1           0       -2.324753    3.640276   -2.734378
     29          6           0       -2.109951    0.328690   -2.749771
     30          6           0       -1.324627    0.753848   -3.860747
     31          6           0       -2.182480   -1.047687   -2.456009
     32          1           0       -2.809557   -1.414515   -1.645885
     33          7           0       -1.398590    2.129307   -3.924713
     34          1           0       -0.960612    2.719148   -4.649206
     35          6           0       -0.681237   -1.499514   -4.320527
     36          1           0       -0.130551   -2.225711   -4.911607
     37          6           0       -0.608628   -0.151685   -4.654133
     38          1           0       -0.012816    0.191320   -5.494715
     39          6           0       -1.463653   -1.945414   -3.236088
     40          1           0       -1.507738   -3.007044   -3.012241
     41          7           0       -0.175794    0.734812   -0.247779
     42          1           0       -0.482693   -0.092367   -0.758399
     43          6           0        1.260132    0.891442   -0.145477
     44          1           0        1.523829    1.950108   -0.260401
     45          6           0        1.869596    0.029889   -1.265079
     46          6           0        1.741884    0.383138    1.239440
     47          1           0        1.555294   -0.693625    1.287466
     48          8           0        1.342642   -1.037255   -1.553454
     49          6           0        3.208945    0.690581    1.506345
     50          1           0        3.854150    0.200941    0.768664
     51          1           0        3.486099    0.338264    2.502809
     52          1           0        3.391161    1.773746    1.467451
     53          8           0        0.908256    0.938259    2.284757
     54          1           0        0.877632    1.903689    2.159445
     55          7           0        2.963026    0.538157   -1.887725
     56          1           0        3.456997    1.299113   -1.439259
     57          6           0        3.689093   -0.247297   -2.868741
     58          1           0        2.979430   -0.995730   -3.234017
     59          6           0        4.834953   -0.996811   -2.186903
     60          6           0        4.172222    0.607395   -4.059812
     61          1           0        4.550148   -0.080090   -4.823915
     62          1           0        5.024545    1.231755   -3.755360
     63          8           0        5.105523   -0.927057   -1.007850
     64          6           0        3.054288    1.497317   -4.612586
     65          1           0        2.134937    0.913680   -4.742820
     66          1           0        2.816907    2.276871   -3.878092
     67          6           0        3.413763    2.173169   -5.944398
     68          1           0        4.420260    2.604257   -5.903038
     69          1           0        3.424757    1.438470   -6.755947
     70          7           0        2.503553    3.281575   -6.288513
     71          1           0        2.711613    4.113743   -5.746939
     72          7           0        0.773737    1.936679   -7.088207
     73          1           0       -0.216423    1.917004   -7.305368
     74          1           0        1.349764    1.770413   -7.905662
     75          7           0        0.208379    3.754099   -5.767602
     76          1           0        0.616535    4.463053   -5.157556
     77          6           0        1.127709    3.051287   -6.341889
     78          8           0        5.513757   -1.748373   -3.071937
     79          1           0       -0.664465    0.611125    2.528927
     80          1           0        6.225073   -2.208323   -2.585339
     81          1           0       -6.118797    5.190332    2.505900
 ---------------------------------------------------------------------

 SCF Done:  E(RB3LYP) =  -2054.04584668     A.U. after    1 cycles

 Alpha  occ. eigenvalues --  -19.32700 -19.31113 -19.29027 -19.28472 -19.26149
 Alpha  occ. eigenvalues --  -19.23658 -19.23620 -19.22459 -14.51617 -14.47325
 Alpha  occ. eigenvalues --  -14.47018 -14.43814 -14.43752 -14.43298 -14.42586
 Alpha  occ. eigenvalues --  -14.38225 -10.45193 -10.44054 -10.41521 -10.40704
 Alpha  occ. eigenvalues --  -10.39783 -10.37453 -10.35940 -10.35769 -10.35041
 Alpha  occ. eigenvalues --  -10.34751 -10.33602 -10.31251 -10.31010 -10.30784
 Alpha  occ. eigenvalues --  -10.30193 -10.29402 -10.29014 -10.28785 -10.27693
 Alpha  occ. eigenvalues --  -10.27514 -10.26074 -10.26033 -10.25836 -10.25618
 Alpha  occ. eigenvalues --  -10.25335 -10.25226  -1.22834  -1.22337  -1.20019
 Alpha  occ. eigenvalues --   -1.16242  -1.14581  -1.14528  -1.13191  -1.11133
 Alpha  occ. eigenvalues --   -1.08936  -1.06695  -1.04596  -1.04227  -1.03625
 Alpha  occ. eigenvalues --   -1.00709  -0.97577  -0.93597  -0.92580  -0.90752
 Alpha  occ. eigenvalues --   -0.90506  -0.90018  -0.88279  -0.85932  -0.83926
 Alpha  occ. eigenvalues --   -0.82946  -0.81710  -0.80414  -0.79706  -0.78453
 Alpha  occ. eigenvalues --   -0.76409  -0.76059  -0.73949  -0.73430  -0.72439
 Alpha  occ. eigenvalues --   -0.71297  -0.70493  -0.70077  -0.69864  -0.69344
 Alpha  occ. eigenvalues --   -0.69126  -0.68337  -0.66257  -0.65657  -0.63857
 Alpha  occ. eigenvalues --   -0.63440  -0.62978  -0.62717  -0.61934  -0.61290
 Alpha  occ. eigenvalues --   -0.60951  -0.60499  -0.59894  -0.59715  -0.59414
 Alpha  occ. eigenvalues --   -0.58744  -0.57807  -0.57197  -0.57032  -0.56561
 Alpha  occ. eigenvalues --   -0.55947  -0.55795  -0.55588  -0.55417  -0.54845
 Alpha  occ. eigenvalues --   -0.54385  -0.54287  -0.53843  -0.53759  -0.53112
 Alpha  occ. eigenvalues --   -0.53011  -0.52793  -0.52382  -0.51482  -0.51275
 Alpha  occ. eigenvalues --   -0.50534  -0.50364  -0.50292  -0.49979  -0.49610
 Alpha  occ. eigenvalues --   -0.49439  -0.48904  -0.48660  -0.48461  -0.47841
 Alpha  occ. eigenvalues --   -0.47775  -0.47636  -0.47284  -0.47232  -0.46633
 Alpha  occ. eigenvalues --   -0.46179  -0.45974  -0.45673  -0.45540  -0.44964
 Alpha  occ. eigenvalues --   -0.44630  -0.43338  -0.42993  -0.42883  -0.42484
 Alpha  occ. eigenvalues --   -0.41278  -0.41207  -0.40727  -0.40210  -0.39444
 Alpha  occ. eigenvalues --   -0.38018  -0.37487  -0.37269  -0.36658  -0.36128
 Alpha  occ. eigenvalues --   -0.35832  -0.35254  -0.34568  -0.34426  -0.31819
 Alpha  occ. eigenvalues --   -0.29256  -0.27648
 Alpha virt. eigenvalues --   -0.14817  -0.11136  -0.10403  -0.08830  -0.08572
 Alpha virt. eigenvalues --   -0.08439  -0.05016  -0.04635  -0.03657  -0.03095
 Alpha virt. eigenvalues --   -0.02361  -0.02147  -0.01816  -0.00973  -0.00790

 Mulliken charges:
               1
     1  N   -0.687028
     2  H    0.323843
     3  H    0.326875
     4  C   -0.088664
     5  H    0.189955
     6  C    0.623053
     7  C   -0.280429
     8  H    0.204249
     9  H    0.173580
    10  O   -0.601919
    11  C   -0.396859
    12  H    0.213280
    13  H    0.202005
    14  C    0.610233
    15  O   -0.499764
    16  O   -0.527720
    17  N   -0.597391
    18  H    0.435144
    19  C   -0.040287
    20  H    0.188493
    21  C    0.589213
    22  C   -0.387804
    23  H    0.173172
    24  H    0.180494
    25  O   -0.558074
    26  C    0.041082
    27  C    0.009160
    28  H    0.156203
    29  C    0.071885
    30  C    0.288976
    31  C   -0.262002
    32  H    0.120420
    33  N   -0.710944
    34  H    0.390431
    35  C   -0.152121
    36  H    0.132990
    37  C   -0.179042
    38  H    0.168005
    39  C   -0.110962
    40  H    0.135653
    41  N   -0.599947
    42  H    0.392500
    43  C   -0.079214
    44  H    0.169851
    45  C    0.626835
    46  C    0.138973
    47  H    0.180191
    48  O   -0.507892
    49  C   -0.500543
    50  H    0.208621
    51  H    0.189099
    52  H    0.142716
    53  O   -0.653147
    54  H    0.426210
    55  N   -0.590552
    56  H    0.339982
    57  C   -0.071127
    58  H    0.228161
    59  C    0.595474
    60  C   -0.295947
    61  H    0.184464
    62  H    0.147860
    63  O   -0.455216
    64  C   -0.268097
    65  H    0.178547
    66  H    0.130828
    67  C   -0.157584
    68  H    0.164122
    69  H    0.165771
    70  N   -0.570671
    71  H    0.319000
    72  N   -0.734226
    73  H    0.354276
    74  H    0.346400
    75  N   -0.674438
    76  H    0.281097
    77  C    0.582449
    78  O   -0.554284
    79  H    0.491245
    80  H    0.429327
    81  H    0.431503
 Sum of Mulliken charges =   1.00000

 Dipole moment (field-independent basis, Debye):
    X=              0.3552    Y=              8.8959    Z=             -1.9791  Tot=              9.1203
 Quadrupole moment (field-independent basis, Debye-Ang):
   XX=           -165.6851   YY=           -203.0471   ZZ=           -167.6171
   XY=            -15.4058   XZ=            -56.6515   YZ=              1.9637

 Normal termination of Gaussian 16 at Sun May 15 18:54:42 2022.
