 Gaussian 16, Revision C.01,
 Gaussian 16:  ES64L-G16RevC.01  3-Jul-2019

 ----------------------------------------------------------------------
 # B3LYP/6-31G* empiricaldispersion=gd3 guess=read geom=check nosymm in
 tegral(ultrafinegrid)
 ----------------------------------------------------------------------

 ------------------------------------------------------
 Candidate Structure: Conf:102 Charge calc in gas phase
 ------------------------------------------------------
 Structure from the checkpoint file:  "conf-102.chk"
 Charge =  1 Multiplicity = 1

                          Input orientation:
 ---------------------------------------------------------------------
 Center     Atomic      Atomic             Coordinates (Angstroms)
 Number     Number       Type             X           Y           Z
 ---------------------------------------------------------------------
      1          7           0       -1.784616    0.545934    5.154465
      2          1           0       -1.653401   -0.464565    5.164698
      3          1           0       -0.864154    0.930678    4.940900
      4          6           0       -2.698270    0.907643    4.079786
      5          1           0       -3.593690    0.287018    4.185948
      6          6           0       -2.135426    0.625944    2.671465
      7          6           0       -3.111865    2.405147    4.214357
      8          1           0       -2.387702    2.881783    4.882246
      9          1           0       -3.045530    2.925342    3.251828
     10          8           0       -0.956538    0.300204    2.484077
     11          6           0       -4.521175    2.618738    4.813182
     12          1           0       -4.633789    3.647133    5.162935
     13          1           0       -4.657239    1.945442    5.667548
     14          6           0       -5.625534    2.385573    3.805099
     15          8           0       -6.387030    3.227267    3.380337
     16          8           0       -5.659740    1.095612    3.364047
     17          7           0       -3.022809    0.788145    1.662291
     18          1           0       -3.995723    0.960784    1.896563
     19          6           0       -2.724513    0.584844    0.255663
     20          1           0       -2.819088   -0.482010    0.006359
     21          6           0       -1.300995    1.071021   -0.033057
     22          6           0       -3.711481    1.410879   -0.617889
     23          1           0       -3.560262    1.110765   -1.662700
     24          1           0       -3.418883    2.462090   -0.531962
     25          8           0       -0.952976    2.231145    0.131100
     26          6           0       -5.141354    1.241915   -0.207078
     27          6           0       -5.903424    2.184274    0.437812
     28          1           0       -5.659215    3.195499    0.729837
     29          6           0       -5.948914    0.047782   -0.304011
     30          6           0       -7.200044    0.338329    0.303634
     31          6           0       -5.734529   -1.232961   -0.840882
     32          1           0       -4.790105   -1.480403   -1.319266
     33          7           0       -7.130189    1.641583    0.781322
     34          1           0       -7.899925    2.183409    1.148370
     35          6           0       -7.991225   -1.858140   -0.164092
     36          1           0       -8.771674   -2.612150   -0.125578
     37          6           0       -8.232045   -0.601187    0.379907
     38          1           0       -9.184864   -0.358968    0.841995
     39          6           0       -6.755553   -2.172012   -0.767057
     40          1           0       -6.606014   -3.163931   -1.183259
     41          7           0       -0.442478    0.135630   -0.572610
     42          1           0       -0.655623   -0.852805   -0.510177
     43          6           0        0.950193    0.484124   -0.665330
     44          1           0        1.002201    1.521012   -1.016790
     45          6           0        1.707989   -0.471274   -1.578895
     46          6           0        1.584876    0.428674    0.754828
     47          1           0        1.129099    1.191670    1.385397
     48          8           0        1.520470   -1.677783   -1.543892
     49          6           0        1.662084   -0.905086    1.451315
     50          1           0        0.637377   -1.201793    1.684442
     51          1           0        2.189323   -0.794611    2.402526
     52          1           0        2.134555   -1.674267    0.836890
     53          8           0        3.069861    0.910231    0.635030
     54          1           0        3.640115    0.262728    0.086772
     55          7           0        2.756380    0.104327   -2.251221
     56          1           0        2.688952    1.072628   -2.540549
     57          6           0        3.743377   -0.741214   -2.908736
     58          1           0        3.243405   -1.536926   -3.470601
     59          6           0        4.615233   -1.457071   -1.882433
     60          6           0        4.640071    0.084774   -3.852271
     61          1           0        5.447479   -0.567566   -4.200097
     62          1           0        5.112258    0.891270   -3.271826
     63          8           0        5.312733   -2.401639   -2.106221
     64          6           0        3.868837    0.666173   -5.044952
     65          1           0        3.555694   -0.138601   -5.720483
     66          1           0        2.958979    1.168232   -4.701031
     67          6           0        4.713965    1.691745   -5.810944
     68          1           0        5.041962    2.478361   -5.115574
     69          1           0        5.617671    1.198595   -6.185912
     70          7           0        4.023292    2.274178   -6.968904
     71          1           0        4.615388    2.319926   -7.788926
     72          7           0        2.372176    3.389361   -5.733101
     73          1           0        1.846986    4.259728   -5.703448
     74          1           0        1.731624    2.606151   -5.839702
     75          7           0        3.334661    4.516871   -7.522174
     76          1           0        4.118860    4.499218   -8.177276
     77          6           0        3.278972    3.455113   -6.813171
     78          8           0        4.597034   -0.869286   -0.610939
     79          1           0        3.138567    1.805257    0.247600
     80          1           0        5.210141   -1.392493   -0.056625
     81          1           0       -6.365749    1.044512    2.684167
 ---------------------------------------------------------------------

 SCF Done:  E(RB3LYP) =  -2053.96798739     A.U. after    1 cycles

 Alpha  occ. eigenvalues --  -19.42809 -19.35995 -19.28523 -19.27260 -19.26667
 Alpha  occ. eigenvalues --  -19.22810 -19.21616 -19.21256 -14.51184 -14.48291
 Alpha  occ. eigenvalues --  -14.46056 -14.44905 -14.42809 -14.41725 -14.39042
 Alpha  occ. eigenvalues --  -14.36261 -10.46504 -10.43544 -10.42206 -10.40132
 Alpha  occ. eigenvalues --  -10.39692 -10.38401 -10.37837 -10.37390 -10.35288
 Alpha  occ. eigenvalues --  -10.33653 -10.32098 -10.31603 -10.31109 -10.30145
 Alpha  occ. eigenvalues --  -10.29928 -10.29784 -10.29455 -10.28710 -10.27400
 Alpha  occ. eigenvalues --  -10.27380 -10.26689 -10.26327 -10.26295 -10.26186
 Alpha  occ. eigenvalues --  -10.25691 -10.25405  -1.28751  -1.25052  -1.18783
 Alpha  occ. eigenvalues --   -1.17964  -1.16627  -1.15344  -1.12460  -1.08981
 Alpha  occ. eigenvalues --   -1.07665  -1.05879  -1.05272  -1.04912  -1.01916
 Alpha  occ. eigenvalues --   -0.96562  -0.96505  -0.94448  -0.92798  -0.91627
 Alpha  occ. eigenvalues --   -0.91425  -0.89377  -0.87232  -0.86863  -0.85642
 Alpha  occ. eigenvalues --   -0.83899  -0.81058  -0.80290  -0.79923  -0.78868
 Alpha  occ. eigenvalues --   -0.78275  -0.77421  -0.75812  -0.74168  -0.73504
 Alpha  occ. eigenvalues --   -0.72128  -0.71308  -0.70695  -0.69728  -0.68387
 Alpha  occ. eigenvalues --   -0.68121  -0.67241  -0.66931  -0.66569  -0.65971
 Alpha  occ. eigenvalues --   -0.64781  -0.64008  -0.63408  -0.62323  -0.61798
 Alpha  occ. eigenvalues --   -0.61669  -0.60893  -0.60406  -0.59654  -0.59535
 Alpha  occ. eigenvalues --   -0.59059  -0.57959  -0.57487  -0.57150  -0.56781
 Alpha  occ. eigenvalues --   -0.56707  -0.56051  -0.55589  -0.55524  -0.55391
 Alpha  occ. eigenvalues --   -0.54813  -0.54492  -0.54386  -0.53926  -0.53052
 Alpha  occ. eigenvalues --   -0.52886  -0.52563  -0.52163  -0.51824  -0.51792
 Alpha  occ. eigenvalues --   -0.51275  -0.51051  -0.50932  -0.50693  -0.50434
 Alpha  occ. eigenvalues --   -0.50035  -0.49752  -0.49615  -0.48882  -0.48545
 Alpha  occ. eigenvalues --   -0.48203  -0.48115  -0.47138  -0.46894  -0.46548
 Alpha  occ. eigenvalues --   -0.46410  -0.45800  -0.45196  -0.44568  -0.44103
 Alpha  occ. eigenvalues --   -0.43704  -0.43594  -0.42851  -0.42698  -0.41660
 Alpha  occ. eigenvalues --   -0.41016  -0.40780  -0.40601  -0.40049  -0.39651
 Alpha  occ. eigenvalues --   -0.37843  -0.36978  -0.35455  -0.35150  -0.34851
 Alpha  occ. eigenvalues --   -0.34828  -0.34553  -0.33330  -0.31718  -0.30577
 Alpha  occ. eigenvalues --   -0.30000  -0.28466
 Alpha virt. eigenvalues --   -0.14603  -0.13427  -0.12640  -0.09774  -0.08823
 Alpha virt. eigenvalues --   -0.07671  -0.07118  -0.07014  -0.06528  -0.05186
 Alpha virt. eigenvalues --   -0.04323  -0.03393  -0.02903  -0.01528  -0.00853

 Mulliken charges:
               1
     1  N   -0.690426
     2  H    0.306286
     3  H    0.300522
     4  C   -0.090810
     5  H    0.189902
     6  C    0.584840
     7  C   -0.286439
     8  H    0.176450
     9  H    0.162920
    10  O   -0.571655
    11  C   -0.342067
    12  H    0.186432
    13  H    0.194227
    14  C    0.568270
    15  O   -0.463000
    16  O   -0.593295
    17  N   -0.618490
    18  H    0.376431
    19  C   -0.014673
    20  H    0.154301
    21  C    0.652305
    22  C   -0.374037
    23  H    0.164371
    24  H    0.186233
    25  O   -0.528408
    26  C    0.032029
    27  C   -0.025127
    28  H    0.181883
    29  C    0.108337
    30  C    0.272084
    31  C   -0.207860
    32  H    0.119116
    33  N   -0.697951
    34  H    0.354978
    35  C   -0.148036
    36  H    0.146927
    37  C   -0.164050
    38  H    0.145897
    39  C   -0.135594
    40  H    0.138670
    41  N   -0.607221
    42  H    0.358039
    43  C   -0.062497
    44  H    0.182900
    45  C    0.602530
    46  C    0.052865
    47  H    0.259032
    48  O   -0.485528
    49  C   -0.489550
    50  H    0.237742
    51  H    0.192894
    52  H    0.188421
    53  O   -0.654915
    54  H    0.514417
    55  N   -0.659189
    56  H    0.354369
    57  C   -0.019844
    58  H    0.228512
    59  C    0.633490
    60  C   -0.322198
    61  H    0.200531
    62  H    0.146923
    63  O   -0.399536
    64  C   -0.264569
    65  H    0.170777
    66  H    0.137070
    67  C   -0.130643
    68  H    0.152437
    69  H    0.158776
    70  N   -0.585748
    71  H    0.325185
    72  N   -0.744363
    73  H    0.341896
    74  H    0.321324
    75  N   -0.599120
    76  H    0.277551
    77  C    0.518779
    78  O   -0.651959
    79  H    0.474661
    80  H    0.449540
    81  H    0.444724
 Sum of Mulliken charges =   1.00000

 Dipole moment (field-independent basis, Debye):
    X=              6.7849    Y=              1.7814    Z=             -2.5363  Tot=              7.4593
 Quadrupole moment (field-independent basis, Debye-Ang):
   XX=           -126.0686   YY=           -252.9376   ZZ=           -210.1328
   XY=             11.1540   XZ=            -35.0918   YZ=              3.7136

 Normal termination of Gaussian 16 at Sun May 15 18:54:30 2022.
