 Gaussian 16, Revision C.01,
 Gaussian 16:  ES64L-G16RevC.01  3-Jul-2019

 ----------------------------------------------------------------------
 # B3LYP/6-31G* empiricaldispersion=gd3 guess=read geom=check nosymm in
 tegral(ultrafinegrid)
 ----------------------------------------------------------------------

 ------------------------------------------------------
 Candidate Structure: Conf:293 Charge calc in gas phase
 ------------------------------------------------------
 Structure from the checkpoint file:  "conf-293.chk"
 Charge =  1 Multiplicity = 1

                          Input orientation:
 ---------------------------------------------------------------------
 Center     Atomic      Atomic             Coordinates (Angstroms)
 Number     Number       Type             X           Y           Z
 ---------------------------------------------------------------------
      1          7           0       -3.087778   -2.317970    3.019283
      2          1           0       -3.658463   -2.592776    3.815229
      3          1           0       -3.425914   -2.830293    2.208013
      4          6           0       -3.183189   -0.879295    2.815522
      5          1           0       -4.218656   -0.495347    2.733663
      6          6           0       -2.457891   -0.531408    1.510926
      7          6           0       -2.491103   -0.180020    4.010312
      8          1           0       -2.882891   -0.637596    4.926807
      9          1           0       -1.424709   -0.418658    3.987505
     10          8           0       -1.538199   -1.243350    1.064839
     11          6           0       -2.698277    1.335669    4.087664
     12          1           0       -3.739740    1.594136    4.303692
     13          1           0       -2.445692    1.819424    3.134641
     14          6           0       -1.793029    1.969202    5.126693
     15          8           0       -0.678195    1.581694    5.406416
     16          8           0       -2.361644    3.055355    5.688341
     17          7           0       -2.842610    0.610592    0.902302
     18          1           0       -3.714618    1.040901    1.200226
     19          6           0       -2.372742    1.060747   -0.416841
     20          1           0       -2.430037    0.206062   -1.101136
     21          6           0       -0.899067    1.529343   -0.316893
     22          6           0       -3.274308    2.210482   -0.915884
     23          1           0       -3.026256    2.383240   -1.970074
     24          1           0       -2.992693    3.121657   -0.378711
     25          8           0       -0.565004    2.691566   -0.169884
     26          6           0       -4.733135    1.919790   -0.737417
     27          6           0       -5.604178    2.603846    0.081383
     28          1           0       -5.430552    3.486849    0.682174
     29          6           0       -5.488925    0.845952   -1.335959
     30          6           0       -6.816525    0.943284   -0.838541
     31          6           0       -5.175340   -0.183060   -2.241508
     32          1           0       -4.174030   -0.271587   -2.655548
     33          7           0       -6.852950    2.021578    0.025573
     34          1           0       -7.681010    2.377012    0.478670
     35          6           0       -7.482292   -0.958351   -2.109030
     36          1           0       -8.240717   -1.668076   -2.425761
     37          6           0       -7.824110    0.049398   -1.215236
     38          1           0       -8.834866    0.140998   -0.827863
     39          6           0       -6.171592   -1.073789   -2.618599
     40          1           0       -5.944595   -1.869545   -3.321986
     41          7           0       -0.002975    0.482081   -0.399711
     42          1           0       -0.434047   -0.424169   -0.206393
     43          6           0        1.354662    0.646834    0.096604
     44          1           0        1.623547    1.701741   -0.010457
     45          6           0        2.242614   -0.220352   -0.777078
     46          6           0        1.509722    0.206250    1.583220
     47          1           0        2.574850    0.246724    1.839376
     48          8           0        2.353951   -1.484955   -0.518313
     49          6           0        0.717515    1.069982    2.546615
     50          1           0        1.063654    2.106863    2.503536
     51          1           0        0.829552    0.705988    3.569413
     52          1           0       -0.344857    1.065380    2.295692
     53          8           0        1.166239   -1.196938    1.681944
     54          1           0        0.184273   -1.313649    1.705159
     55          7           0        2.879256    0.261485   -1.812737
     56          1           0        2.818600    1.260212   -1.984702
     57          6           0        3.770124   -0.530718   -2.681846
     58          1           0        3.257857   -1.461388   -2.939407
     59          6           0        5.059901   -0.926736   -1.955901
     60          6           0        4.065637    0.298584   -3.947851
     61          1           0        4.604093    1.206415   -3.654899
     62          1           0        3.097439    0.619881   -4.354242
     63          8           0        5.766921   -1.827159   -2.331756
     64          6           0        4.843574   -0.456168   -5.033574
     65          1           0        5.773224   -0.858884   -4.617804
     66          1           0        4.256803   -1.320679   -5.372316
     67          6           0        5.182532    0.424461   -6.253426
     68          1           0        5.628892   -0.209786   -7.026787
     69          1           0        4.272698    0.845785   -6.695207
     70          7           0        6.107303    1.511951   -5.980911
     71          1           0        7.035022    1.218154   -5.700165
     72          7           0        6.807965    3.510145   -5.046035
     73          1           0        6.515293    4.458728   -4.837593
     74          1           0        7.595350    3.505425   -5.687109
     75          7           0        4.526870    3.222316   -5.335467
     76          1           0        3.815494    2.548730   -5.615533
     77          6           0        5.715521    2.747799   -5.472005
     78          8           0        5.326717   -0.126581   -0.901797
     79          1           0        1.858508   -1.670122    0.370280
     80          1           0        6.181188   -0.419224   -0.528786
     81          1           0       -1.713087    3.426106    6.317677
 ---------------------------------------------------------------------

 SCF Done:  E(RB3LYP) =  -2054.01086296     A.U. after    1 cycles

 Alpha  occ. eigenvalues --  -19.34667 -19.31507 -19.29105 -19.27969 -19.25515
 Alpha  occ. eigenvalues --  -19.24560 -19.23851 -19.22377 -14.54517 -14.48353
 Alpha  occ. eigenvalues --  -14.47776 -14.46299 -14.42703 -14.40797 -14.40664
 Alpha  occ. eigenvalues --  -14.35370 -10.47639 -10.43971 -10.40905 -10.40724
 Alpha  occ. eigenvalues --  -10.40592 -10.38029 -10.37668 -10.37600 -10.35211
 Alpha  occ. eigenvalues --  -10.34859 -10.33009 -10.31030 -10.30901 -10.30759
 Alpha  occ. eigenvalues --  -10.29907 -10.29367 -10.29162 -10.28716 -10.28509
 Alpha  occ. eigenvalues --  -10.28447 -10.27194 -10.26541 -10.26509 -10.26489
 Alpha  occ. eigenvalues --  -10.25965 -10.25675  -1.25734  -1.22276  -1.18873
 Alpha  occ. eigenvalues --   -1.16606  -1.15464  -1.15317  -1.13472  -1.11458
 Alpha  occ. eigenvalues --   -1.09888  -1.06237  -1.05195  -1.04723  -1.04517
 Alpha  occ. eigenvalues --   -0.98587  -0.96167  -0.93719  -0.91771  -0.91004
 Alpha  occ. eigenvalues --   -0.90941  -0.89763  -0.88615  -0.86146  -0.85620
 Alpha  occ. eigenvalues --   -0.83492  -0.81366  -0.80926  -0.80383  -0.79915
 Alpha  occ. eigenvalues --   -0.77973  -0.76453  -0.75085  -0.74384  -0.72627
 Alpha  occ. eigenvalues --   -0.70843  -0.70334  -0.70083  -0.69854  -0.68770
 Alpha  occ. eigenvalues --   -0.67917  -0.67306  -0.67103  -0.65376  -0.65093
 Alpha  occ. eigenvalues --   -0.64620  -0.64143  -0.62307  -0.62122  -0.62008
 Alpha  occ. eigenvalues --   -0.61883  -0.61256  -0.59876  -0.59505  -0.58973
 Alpha  occ. eigenvalues --   -0.58578  -0.58370  -0.57904  -0.57737  -0.57165
 Alpha  occ. eigenvalues --   -0.56706  -0.56594  -0.56342  -0.56087  -0.55733
 Alpha  occ. eigenvalues --   -0.54835  -0.54390  -0.54246  -0.53711  -0.53295
 Alpha  occ. eigenvalues --   -0.52974  -0.52255  -0.52029  -0.51560  -0.51146
 Alpha  occ. eigenvalues --   -0.51012  -0.50753  -0.50506  -0.50351  -0.50228
 Alpha  occ. eigenvalues --   -0.49959  -0.49278  -0.48905  -0.48855  -0.48709
 Alpha  occ. eigenvalues --   -0.48116  -0.47895  -0.47630  -0.47261  -0.46030
 Alpha  occ. eigenvalues --   -0.45897  -0.45759  -0.45659  -0.45558  -0.44622
 Alpha  occ. eigenvalues --   -0.44561  -0.44263  -0.43855  -0.43047  -0.42918
 Alpha  occ. eigenvalues --   -0.42588  -0.41266  -0.41128  -0.40119  -0.39751
 Alpha  occ. eigenvalues --   -0.39149  -0.38627  -0.37075  -0.36055  -0.35880
 Alpha  occ. eigenvalues --   -0.35448  -0.33330  -0.33083  -0.32841  -0.30224
 Alpha  occ. eigenvalues --   -0.29585  -0.28709
 Alpha virt. eigenvalues --   -0.16769  -0.10924  -0.10901  -0.10231  -0.09044
 Alpha virt. eigenvalues --   -0.07494  -0.06117  -0.05348  -0.03353  -0.02777
 Alpha virt. eigenvalues --   -0.02212  -0.01717  -0.01200  -0.00537  -0.00464

 Mulliken charges:
               1
     1  N   -0.713717
     2  H    0.316488
     3  H    0.317175
     4  C   -0.050244
     5  H    0.134800
     6  C    0.622539
     7  C   -0.270568
     8  H    0.169994
     9  H    0.188026
    10  O   -0.576849
    11  C   -0.382786
    12  H    0.181289
    13  H    0.181237
    14  C    0.593380
    15  O   -0.460457
    16  O   -0.556830
    17  N   -0.594537
    18  H    0.351407
    19  C   -0.056969
    20  H    0.184490
    21  C    0.625744
    22  C   -0.384629
    23  H    0.180504
    24  H    0.188610
    25  O   -0.493513
    26  C    0.015184
    27  C   -0.010164
    28  H    0.168343
    29  C    0.097444
    30  C    0.308741
    31  C   -0.212333
    32  H    0.119735
    33  N   -0.682816
    34  H    0.342236
    35  C   -0.149316
    36  H    0.145853
    37  C   -0.158627
    38  H    0.142457
    39  C   -0.138254
    40  H    0.137772
    41  N   -0.620163
    42  H    0.369100
    43  C   -0.109883
    44  H    0.214911
    45  C    0.690846
    46  C    0.101321
    47  H    0.181701
    48  O   -0.565899
    49  C   -0.492727
    50  H    0.182241
    51  H    0.224179
    52  H    0.158538
    53  O   -0.683046
    54  H    0.465797
    55  N   -0.581528
    56  H    0.391036
    57  C   -0.037358
    58  H    0.221580
    59  C    0.607671
    60  C   -0.334065
    61  H    0.196763
    62  H    0.165148
    63  O   -0.425791
    64  C   -0.271283
    65  H    0.176573
    66  H    0.154321
    67  C   -0.163989
    68  H    0.175263
    69  H    0.163857
    70  N   -0.585129
    71  H    0.325913
    72  N   -0.751516
    73  H    0.343402
    74  H    0.327641
    75  N   -0.652561
    76  H    0.266778
    77  C    0.576383
    78  O   -0.571500
    79  H    0.486792
    80  H    0.436377
    81  H    0.421465
 Sum of Mulliken charges =   1.00000

 Dipole moment (field-independent basis, Debye):
    X=             -0.3367    Y=              2.4455    Z=             -1.5661  Tot=              2.9235
 Quadrupole moment (field-independent basis, Debye-Ang):
   XX=           -102.3981   YY=           -240.2134   ZZ=           -189.0963
   XY=              1.5127   XZ=            -58.1089   YZ=             15.4823

 Normal termination of Gaussian 16 at Sun May 15 18:54:44 2022.
