 Gaussian 16, Revision C.01,
 Gaussian 16:  ES64L-G16RevC.01  3-Jul-2019

 ----------------------------------------------------------------------
 # B3LYP/6-31G* empiricaldispersion=gd3 guess=read geom=check nosymm in
 tegral(ultrafinegrid)
 ----------------------------------------------------------------------

 ------------------------------------------------------
 Candidate Structure: Conf:197 Charge calc in gas phase
 ------------------------------------------------------
 Structure from the checkpoint file:  "conf-197.chk"
 Charge =  1 Multiplicity = 1

                          Input orientation:
 ---------------------------------------------------------------------
 Center     Atomic      Atomic             Coordinates (Angstroms)
 Number     Number       Type             X           Y           Z
 ---------------------------------------------------------------------
      1          7           0       -3.570731   -0.324863    1.921820
      2          1           0       -4.227861   -0.385930    2.695896
      3          1           0       -3.877962   -0.982982    1.209246
      4          6           0       -3.536675    1.036429    1.405823
      5          1           0       -4.516017    1.435550    1.080116
      6          6           0       -2.608471    1.059982    0.185408
      7          6           0       -2.983938    1.954860    2.526049
      8          1           0       -3.593675    1.771187    3.418846
      9          1           0       -1.976959    1.619913    2.783709
     10          8           0       -1.721348    0.190372    0.005269
     11          6           0       -2.996218    3.457081    2.225716
     12          1           0       -4.012587    3.859594    2.183901
     13          1           0       -2.545446    3.690442    1.252662
     14          6           0       -2.180945    4.241515    3.229643
     15          8           0       -1.287116    3.795292    3.915620
     16          8           0       -2.528133    5.553522    3.246467
     17          7           0       -2.787876    2.079132   -0.659872
     18          1           0       -3.544923    2.724146   -0.446743
     19          6           0       -1.954741    2.470952   -1.812442
     20          1           0       -1.969759    1.655335   -2.545251
     21          6           0       -0.485948    2.699471   -1.362612
     22          6           0       -2.556551    3.760538   -2.439362
     23          1           0       -3.372928    3.459929   -3.105085
     24          1           0       -1.784993    4.215237   -3.066017
     25          8           0       -0.026053    3.797618   -1.087450
     26          6           0       -3.076712    4.734565   -1.417491
     27          6           0       -2.368590    5.672638   -0.701598
     28          1           0       -1.325081    5.937419   -0.775636
     29          6           0       -4.421181    4.744899   -0.885408
     30          6           0       -4.451407    5.714150    0.155756
     31          6           0       -5.583100    3.989921   -1.145399
     32          1           0       -5.599630    3.255967   -1.947964
     33          7           0       -3.194501    6.276474    0.221230
     34          1           0       -2.885605    6.900748    0.951149
     35          6           0       -6.713469    5.165091    0.668981
     36          1           0       -7.612868    5.310858    1.259543
     37          6           0       -5.587585    5.935584    0.939843
     38          1           0       -5.585601    6.673861    1.736296
     39          6           0       -6.712843    4.203791   -0.364209
     40          1           0       -7.615279    3.631451   -0.557298
     41          7           0        0.253769    1.546178   -1.302335
     42          1           0       -0.275231    0.681545   -1.352502
     43          6           0        1.498587    1.480401   -0.556921
     44          1           0        2.015304    2.436802   -0.669985
     45          6           0        2.312744    0.296370   -1.077486
     46          6           0        1.289183    1.225519    0.965875
     47          1           0        2.258255    0.997961    1.418683
     48          8           0        1.894346   -0.857519   -0.841526
     49          6           0        0.567292    2.314181    1.724238
     50          1           0        1.162376    3.230635    1.687496
     51          1           0        0.425318    2.036038    2.770272
     52          1           0       -0.402794    2.540044    1.282202
     53          8           0        0.537623   -0.066846    1.118851
     54          1           0       -0.463031    0.019891    0.850344
     55          7           0        3.459773    0.525575   -1.725800
     56          1           0        3.788793    1.481812   -1.779763
     57          6           0        4.468934   -0.526470   -1.831410
     58          1           0        3.979445   -1.430807   -2.205235
     59          6           0        4.975378   -0.834835   -0.410651
     60          6           0        5.602024   -0.117094   -2.784273
     61          1           0        6.370533   -0.894403   -2.734627
     62          1           0        6.070595    0.806048   -2.412391
     63          8           0        4.615087   -0.254815    0.590124
     64          6           0        5.131746    0.064325   -4.231945
     65          1           0        4.692310   -0.870831   -4.600402
     66          1           0        4.337468    0.823227   -4.276672
     67          6           0        6.281801    0.473685   -5.154839
     68          1           0        6.738400    1.410830   -4.788021
     69          1           0        7.064529   -0.293853   -5.119951
     70          7           0        5.821657    0.581312   -6.527517
     71          1           0        4.968925    1.121070   -6.636980
     72          7           0        6.108144    1.073028   -8.769826
     73          1           0        6.787611    1.171657   -9.516415
     74          1           0        5.402978    0.379005   -8.996574
     75          7           0        8.025849    0.918712   -7.466092
     76          1           0        8.357087    0.891495   -6.502318
     77          6           0        6.749622    0.852420   -7.547452
     78          8           0        5.866437   -1.835623   -0.431676
     79          1           0        0.980556   -0.683327    0.408552
     80          1           0        6.156879   -2.001553    0.486008
     81          1           0       -1.950473    5.982589    3.907199
 ---------------------------------------------------------------------

 SCF Done:  E(RB3LYP) =  -2054.01391347     A.U. after    1 cycles

 Alpha  occ. eigenvalues --  -19.36280 -19.30879 -19.29341 -19.27562 -19.26200
 Alpha  occ. eigenvalues --  -19.25529 -19.24353 -19.23634 -14.50755 -14.49620
 Alpha  occ. eigenvalues --  -14.48613 -14.46849 -14.41823 -14.41271 -14.38950
 Alpha  occ. eigenvalues --  -14.33905 -10.43954 -10.43550 -10.42400 -10.41877
 Alpha  occ. eigenvalues --  -10.41373 -10.39972 -10.37993 -10.36144 -10.36121
 Alpha  occ. eigenvalues --  -10.34011 -10.33248 -10.30835 -10.30726 -10.30532
 Alpha  occ. eigenvalues --  -10.30282 -10.30225 -10.30110 -10.29857 -10.29657
 Alpha  occ. eigenvalues --  -10.28770 -10.27685 -10.27637 -10.27589 -10.27564
 Alpha  occ. eigenvalues --  -10.27029 -10.26850  -1.23570  -1.21984  -1.20049
 Alpha  occ. eigenvalues --   -1.18638  -1.17406  -1.16141  -1.13133  -1.11101
 Alpha  occ. eigenvalues --   -1.07305  -1.06996  -1.06115  -1.05577  -1.03137
 Alpha  occ. eigenvalues --   -0.99599  -0.94907  -0.93418  -0.92748  -0.91333
 Alpha  occ. eigenvalues --   -0.90860  -0.89416  -0.89302  -0.87180  -0.85656
 Alpha  occ. eigenvalues --   -0.83842  -0.82304  -0.81957  -0.80544  -0.77959
 Alpha  occ. eigenvalues --   -0.77125  -0.76865  -0.75340  -0.73620  -0.72769
 Alpha  occ. eigenvalues --   -0.71551  -0.71222  -0.70931  -0.70337  -0.69905
 Alpha  occ. eigenvalues --   -0.68794  -0.67787  -0.67547  -0.65526  -0.65032
 Alpha  occ. eigenvalues --   -0.64048  -0.63390  -0.62788  -0.62620  -0.62327
 Alpha  occ. eigenvalues --   -0.61379  -0.61149  -0.60304  -0.59770  -0.59144
 Alpha  occ. eigenvalues --   -0.59048  -0.58641  -0.57951  -0.57864  -0.57787
 Alpha  occ. eigenvalues --   -0.57436  -0.57028  -0.56394  -0.55915  -0.55660
 Alpha  occ. eigenvalues --   -0.55630  -0.55173  -0.55156  -0.53625  -0.53456
 Alpha  occ. eigenvalues --   -0.52579  -0.52443  -0.52257  -0.52086  -0.51898
 Alpha  occ. eigenvalues --   -0.51752  -0.51410  -0.51203  -0.50924  -0.50710
 Alpha  occ. eigenvalues --   -0.50391  -0.50281  -0.50052  -0.49406  -0.49021
 Alpha  occ. eigenvalues --   -0.48760  -0.48531  -0.48122  -0.47621  -0.46822
 Alpha  occ. eigenvalues --   -0.46453  -0.45943  -0.45688  -0.45414  -0.44998
 Alpha  occ. eigenvalues --   -0.44265  -0.44007  -0.43030  -0.42459  -0.42101
 Alpha  occ. eigenvalues --   -0.42046  -0.41907  -0.41458  -0.41194  -0.40860
 Alpha  occ. eigenvalues --   -0.40144  -0.38817  -0.38053  -0.37273  -0.36756
 Alpha  occ. eigenvalues --   -0.36307  -0.34191  -0.31782  -0.31188  -0.31012
 Alpha  occ. eigenvalues --   -0.29324  -0.28665
 Alpha virt. eigenvalues --   -0.13363  -0.12477  -0.10963  -0.10384  -0.10095
 Alpha virt. eigenvalues --   -0.08544  -0.06616  -0.06048  -0.04212  -0.03240
 Alpha virt. eigenvalues --   -0.02730  -0.02499  -0.02156  -0.01164  -0.00504

 Mulliken charges:
               1
     1  N   -0.718171
     2  H    0.320350
     3  H    0.318652
     4  C   -0.070157
     5  H    0.153179
     6  C    0.630233
     7  C   -0.271620
     8  H    0.173653
     9  H    0.181514
    10  O   -0.615749
    11  C   -0.405476
    12  H    0.204044
    13  H    0.192357
    14  C    0.595808
    15  O   -0.458965
    16  O   -0.576455
    17  N   -0.603817
    18  H    0.387236
    19  C   -0.038684
    20  H    0.184864
    21  C    0.616158
    22  C   -0.386412
    23  H    0.177221
    24  H    0.191097
    25  O   -0.507501
    26  C    0.019985
    27  C    0.019897
    28  H    0.186446
    29  C    0.040374
    30  C    0.315545
    31  C   -0.229093
    32  H    0.134516
    33  N   -0.666079
    34  H    0.344159
    35  C   -0.154722
    36  H    0.149866
    37  C   -0.165272
    38  H    0.149475
    39  C   -0.136708
    40  H    0.144841
    41  N   -0.597750
    42  H    0.361657
    43  C   -0.110162
    44  H    0.205973
    45  C    0.691955
    46  C    0.063277
    47  H    0.229709
    48  O   -0.581401
    49  C   -0.481997
    50  H    0.197435
    51  H    0.220868
    52  H    0.169042
    53  O   -0.654180
    54  H    0.497213
    55  N   -0.581707
    56  H    0.357092
    57  C   -0.059709
    58  H    0.222662
    59  C    0.609172
    60  C   -0.311376
    61  H    0.199245
    62  H    0.153297
    63  O   -0.470172
    64  C   -0.285157
    65  H    0.169565
    66  H    0.135227
    67  C   -0.120072
    68  H    0.139895
    69  H    0.168034
    70  N   -0.607459
    71  H    0.318412
    72  N   -0.752453
    73  H    0.342824
    74  H    0.321546
    75  N   -0.633584
    76  H    0.277928
    77  C    0.578010
    78  O   -0.550178
    79  H    0.484875
    80  H    0.435115
    81  H    0.420741
 Sum of Mulliken charges =   1.00000

 Dipole moment (field-independent basis, Debye):
    X=             -1.9183    Y=              8.6426    Z=             -0.0818  Tot=              8.8533
 Quadrupole moment (field-independent basis, Debye-Ang):
   XX=           -178.1795   YY=           -193.0502   ZZ=           -226.2698
   XY=            -31.1258   XZ=             -2.3225   YZ=             20.6824

 Normal termination of Gaussian 16 at Sun May 15 18:54:52 2022.
