 Gaussian 16, Revision C.01,
 Gaussian 16:  ES64L-G16RevC.01  3-Jul-2019

 ----------------------------------------------------------------------
 # B3LYP/6-31G* empiricaldispersion=gd3 guess=read geom=check nosymm in
 tegral(ultrafinegrid)
 ----------------------------------------------------------------------

 ------------------------------------------------------
 Candidate Structure: Conf:123 Charge calc in gas phase
 ------------------------------------------------------
 Structure from the checkpoint file:  "conf-123.chk"
 Charge =  1 Multiplicity = 1

                          Input orientation:
 ---------------------------------------------------------------------
 Center     Atomic      Atomic             Coordinates (Angstroms)
 Number     Number       Type             X           Y           Z
 ---------------------------------------------------------------------
      1          7           0       -2.560593   -0.339721    4.246289
      2          1           0       -1.950941   -1.150257    4.151449
      3          1           0       -2.388589    0.087655    5.152431
      4          6           0       -2.290868    0.588980    3.159315
      5          1           0       -3.090875    1.343091    3.140544
      6          6           0       -2.295062   -0.203270    1.850426
      7          6           0       -0.920121    1.320578    3.183629
      8          1           0       -0.129067    0.565462    3.241225
      9          1           0       -0.772353    1.856276    2.236747
     10          8           0       -1.758299   -1.311101    1.771534
     11          6           0       -0.756322    2.312581    4.327760
     12          1           0       -0.864855    1.830353    5.307856
     13          1           0       -1.518355    3.102149    4.296437
     14          6           0        0.606796    2.969978    4.291818
     15          8           0        1.485040    2.753058    3.475109
     16          8           0        0.750812    3.853822    5.299187
     17          7           0       -2.820686    0.431550    0.772953
     18          1           0       -3.157995    1.379686    0.877584
     19          6           0       -2.543109   -0.024391   -0.592290
     20          1           0       -2.633674   -1.113763   -0.588065
     21          6           0       -1.094403    0.401802   -0.899992
     22          6           0       -3.519319    0.581386   -1.599897
     23          1           0       -3.184166    0.286335   -2.602620
     24          1           0       -3.405064    1.675555   -1.576447
     25          8           0       -0.808003    1.519395   -1.317076
     26          6           0       -4.952066    0.180006   -1.395170
     27          6           0       -5.484591   -0.649467   -0.436987
     28          1           0       -5.001652   -1.166132    0.380012
     29          6           0       -6.050193    0.604095   -2.227250
     30          6           0       -7.226127   -0.009732   -1.716834
     31          6           0       -6.151107    1.439858   -3.352808
     32          1           0       -5.267127    1.921226   -3.763425
     33          7           0       -6.847906   -0.767788   -0.627795
     34          1           0       -7.468870   -1.313937   -0.051593
     35          6           0       -8.552429    1.022528   -3.406082
     36          1           0       -9.513806    1.199249   -3.879898
     37          6           0       -8.483836    0.190205   -2.294966
     38          1           0       -9.373022   -0.286937   -1.891894
     39          6           0       -7.398012    1.641500   -3.930535
     40          1           0       -7.490579    2.285423   -4.800569
     41          7           0       -0.155017   -0.542589   -0.590316
     42          1           0       -0.452614   -1.409956   -0.154770
     43          6           0        1.259979   -0.257888   -0.619310
     44          1           0        1.360289    0.670567   -1.192391
     45          6           0        2.010478   -1.397757   -1.313761
     46          6           0        1.861599   -0.003301    0.805739
     47          1           0        1.394118    0.897953    1.207426
     48          8           0        1.737954   -2.575748   -1.127450
     49          6           0        1.689142   -1.154902    1.782842
     50          1           0        0.627658   -1.338262    1.971838
     51          1           0        2.176698   -0.890563    2.726206
     52          1           0        2.136619   -2.075907    1.399193
     53          8           0        3.260989    0.346750    0.629154
     54          1           0        3.758696   -0.465944    0.408122
     55          7           0        3.075775   -1.022996   -2.102136
     56          1           0        3.356178   -0.054320   -2.106986
     57          6           0        4.041491   -2.034798   -2.485689
     58          1           0        3.504914   -2.843492   -2.985729
     59          6           0        4.672641   -2.626550   -1.215877
     60          6           0        5.126473   -1.498266   -3.464529
     61          1           0        4.623760   -0.720021   -4.053352
     62          1           0        5.339849   -2.295668   -4.180167
     63          8           0        4.744525   -2.042800   -0.145382
     64          6           0        6.456091   -0.952458   -2.887893
     65          1           0        6.463611   -1.052755   -1.798761
     66          1           0        7.293055   -1.561748   -3.242593
     67          6           0        6.766177    0.511069   -3.250709
     68          1           0        7.733188    0.816345   -2.833065
     69          1           0        6.837115    0.649942   -4.331917
     70          7           0        5.714596    1.446002   -2.796917
     71          1           0        5.094479    1.805807   -3.509815
     72          7           0        5.970683    1.003992   -0.523720
     73          1           0        5.611704    1.076562    0.419930
     74          1           0        6.929677    0.718108   -0.642271
     75          7           0        4.030824    1.986599   -1.249154
     76          1           0        3.424835    2.356431   -1.969840
     77          6           0        5.249193    1.493411   -1.537193
     78          8           0        5.218379   -3.822383   -1.434284
     79          1           0        3.500899    1.667033   -0.428180
     80          1           0        5.603915   -4.141183   -0.594550
     81          1           0        1.640027    4.247053    5.217893
 ---------------------------------------------------------------------

 SCF Done:  E(RB3LYP) =  -2054.04230351     A.U. after    1 cycles

 Alpha  occ. eigenvalues --  -19.32152 -19.27047 -19.27042 -19.26706 -19.22618
 Alpha  occ. eigenvalues --  -19.21720 -19.19743 -19.19725 -14.54038 -14.53416
 Alpha  occ. eigenvalues --  -14.51407 -14.47708 -14.44402 -14.44385 -14.42536
 Alpha  occ. eigenvalues --  -14.38132 -10.49826 -10.44796 -10.39879 -10.39517
 Alpha  occ. eigenvalues --  -10.38402 -10.36806 -10.36476 -10.36251 -10.34353
 Alpha  occ. eigenvalues --  -10.33155 -10.33129 -10.33018 -10.31019 -10.29953
 Alpha  occ. eigenvalues --  -10.28032 -10.26746 -10.26729 -10.26245 -10.25925
 Alpha  occ. eigenvalues --  -10.25675 -10.23372 -10.23123 -10.22866 -10.22726
 Alpha  occ. eigenvalues --  -10.22600 -10.22221  -1.23382  -1.18299  -1.18009
 Alpha  occ. eigenvalues --   -1.15195  -1.13994  -1.13322  -1.12075  -1.11144
 Alpha  occ. eigenvalues --   -1.08870  -1.07824  -1.05710  -1.04320  -1.02446
 Alpha  occ. eigenvalues --   -1.01125  -1.00601  -0.95850  -0.93746  -0.89129
 Alpha  occ. eigenvalues --   -0.88141  -0.87388  -0.86808  -0.86101  -0.83083
 Alpha  occ. eigenvalues --   -0.82400  -0.80611  -0.79864  -0.78819  -0.77743
 Alpha  occ. eigenvalues --   -0.76894  -0.76176  -0.75540  -0.73495  -0.72873
 Alpha  occ. eigenvalues --   -0.72036  -0.71195  -0.70311  -0.69590  -0.67021
 Alpha  occ. eigenvalues --   -0.66633  -0.66517  -0.66240  -0.65511  -0.65287
 Alpha  occ. eigenvalues --   -0.64440  -0.63511  -0.63190  -0.62491  -0.61999
 Alpha  occ. eigenvalues --   -0.61776  -0.61111  -0.60509  -0.59743  -0.58761
 Alpha  occ. eigenvalues --   -0.58597  -0.58548  -0.57098  -0.56917  -0.56628
 Alpha  occ. eigenvalues --   -0.56420  -0.56237  -0.55774  -0.55576  -0.55142
 Alpha  occ. eigenvalues --   -0.54023  -0.53634  -0.52967  -0.52439  -0.52403
 Alpha  occ. eigenvalues --   -0.51863  -0.51510  -0.51328  -0.50645  -0.50463
 Alpha  occ. eigenvalues --   -0.49353  -0.49148  -0.48902  -0.48625  -0.48359
 Alpha  occ. eigenvalues --   -0.48202  -0.47684  -0.47568  -0.47321  -0.46945
 Alpha  occ. eigenvalues --   -0.46522  -0.46379  -0.45826  -0.45757  -0.45338
 Alpha  occ. eigenvalues --   -0.44713  -0.44511  -0.44141  -0.44033  -0.43825
 Alpha  occ. eigenvalues --   -0.43289  -0.43128  -0.42573  -0.42270  -0.42192
 Alpha  occ. eigenvalues --   -0.40695  -0.39854  -0.39658  -0.39309  -0.37862
 Alpha  occ. eigenvalues --   -0.37566  -0.37434  -0.36378  -0.35662  -0.35395
 Alpha  occ. eigenvalues --   -0.33945  -0.33255  -0.32142  -0.31441  -0.30185
 Alpha  occ. eigenvalues --   -0.26532  -0.24794
 Alpha virt. eigenvalues --   -0.14597  -0.11961  -0.10014  -0.09104  -0.07293
 Alpha virt. eigenvalues --   -0.06927  -0.06670  -0.05430  -0.05221  -0.04773
 Alpha virt. eigenvalues --   -0.03522  -0.02913  -0.02528  -0.01616  -0.00401

 Mulliken charges:
               1
     1  N   -0.712058
     2  H    0.319363
     3  H    0.304950
     4  C   -0.068460
     5  H    0.142414
     6  C    0.636387
     7  C   -0.280105
     8  H    0.166206
     9  H    0.152920
    10  O   -0.548057
    11  C   -0.362800
    12  H    0.179758
    13  H    0.189362
    14  C    0.586659
    15  O   -0.478258
    16  O   -0.555894
    17  N   -0.584940
    18  H    0.344825
    19  C   -0.072955
    20  H    0.182347
    21  C    0.629301
    22  C   -0.361745
    23  H    0.167620
    24  H    0.168171
    25  O   -0.540426
    26  C    0.060100
    27  C    0.001069
    28  H    0.162808
    29  C    0.078044
    30  C    0.317853
    31  C   -0.211507
    32  H    0.120500
    33  N   -0.702363
    34  H    0.332939
    35  C   -0.150580
    36  H    0.132721
    37  C   -0.160959
    38  H    0.130119
    39  C   -0.139070
    40  H    0.126928
    41  N   -0.605058
    42  H    0.374144
    43  C   -0.069865
    44  H    0.148844
    45  C    0.616279
    46  C    0.111260
    47  H    0.192716
    48  O   -0.504164
    49  C   -0.512652
    50  H    0.205152
    51  H    0.169878
    52  H    0.173574
    53  O   -0.727811
    54  H    0.450467
    55  N   -0.622862
    56  H    0.323133
    57  C   -0.022788
    58  H    0.224395
    59  C    0.619005
    60  C   -0.319715
    61  H    0.154922
    62  H    0.203603
    63  O   -0.499057
    64  C   -0.305537
    65  H    0.165647
    66  H    0.195325
    67  C   -0.189311
    68  H    0.193753
    69  H    0.206321
    70  N   -0.582921
    71  H    0.366175
    72  N   -0.732224
    73  H    0.405116
    74  H    0.385950
    75  N   -0.775108
    76  H    0.368403
    77  C    0.761995
    78  O   -0.538906
    79  H    0.438257
    80  H    0.434836
    81  H    0.415644
 Sum of Mulliken charges =   1.00000

 Dipole moment (field-independent basis, Debye):
    X=             21.7044    Y=              3.2850    Z=             -4.8584  Tot=             22.4828
 Quadrupole moment (field-independent basis, Debye-Ang):
   XX=            -64.2694   YY=           -225.9304   ZZ=           -192.6504
   XY=              7.0589   XZ=            -55.0561   YZ=              4.0633

 Normal termination of Gaussian 16 at Sun May 15 18:54:58 2022.
