 Gaussian 16, Revision C.01,
 Gaussian 16:  ES64L-G16RevC.01  3-Jul-2019

 ----------------------------------------------------------------------
 # B3LYP/6-31G* empiricaldispersion=gd3 guess=read geom=check nosymm in
 tegral(ultrafinegrid)
 ----------------------------------------------------------------------

 ------------------------------------------------------
 Candidate Structure: Conf:966 Charge calc in gas phase
 ------------------------------------------------------
 Structure from the checkpoint file:  "conf-966.chk"
 Charge =  1 Multiplicity = 1

                          Input orientation:
 ---------------------------------------------------------------------
 Center     Atomic      Atomic             Coordinates (Angstroms)
 Number     Number       Type             X           Y           Z
 ---------------------------------------------------------------------
      1          7           0       -3.385972   -1.601887    2.880253
      2          1           0       -3.729384   -2.106641    2.065383
      3          1           0       -2.517235   -2.061072    3.149450
      4          6           0       -3.130706   -0.215464    2.538030
      5          1           0       -4.032043    0.159643    2.036299
      6          6           0       -2.012333   -0.015652    1.498917
      7          6           0       -2.887541    0.615646    3.826728
      8          1           0       -2.428568   -0.042986    4.571538
      9          1           0       -2.188902    1.438238    3.646087
     10          8           0       -1.306239   -0.968594    1.105969
     11          6           0       -4.197875    1.176372    4.389483
     12          1           0       -4.012482    1.708556    5.331634
     13          1           0       -4.906156    0.372452    4.608129
     14          6           0       -4.896377    2.146671    3.455234
     15          8           0       -6.082382    2.368993    3.427816
     16          8           0       -4.020713    2.779129    2.614711
     17          7           0       -1.879896    1.237976    0.999888
     18          1           0       -2.541117    1.930337    1.352101
     19          6           0       -1.287473    1.515088   -0.320517
     20          1           0       -1.452962    0.616572   -0.926986
     21          6           0        0.246270    1.670797   -0.171499
     22          6           0       -1.933029    2.735247   -1.018564
     23          1           0       -1.776957    2.597591   -2.096413
     24          1           0       -1.374752    3.634670   -0.740841
     25          8           0        0.859087    2.725628   -0.328161
     26          6           0       -3.387459    2.920305   -0.692613
     27          6           0       -3.955597    4.090698   -0.262781
     28          1           0       -3.510895    5.070662   -0.153599
     29          6           0       -4.424008    1.909251   -0.639833
     30          6           0       -5.593175    2.535332   -0.139103
     31          6           0       -4.459464    0.528559   -0.908728
     32          1           0       -3.587249    0.014965   -1.303584
     33          7           0       -5.274092    3.867254    0.120082
     34          1           0       -5.964564    4.597060    0.236350
     35          6           0       -6.782276    0.474680   -0.166272
     36          1           0       -7.683678   -0.101784    0.016988
     37          6           0       -6.776431    1.836631    0.110969
     38          1           0       -7.645830    2.332667    0.529916
     39          6           0       -5.635890   -0.172812   -0.673030
     40          1           0       -5.678664   -1.237050   -0.886660
     41          7           0        0.817957    0.488667    0.173282
     42          1           0        0.148400   -0.270833    0.344856
     43          6           0        2.138072    0.336405    0.747913
     44          1           0        2.555273    1.317801    0.979677
     45          6           0        3.013426   -0.342425   -0.294190
     46          6           0        2.060701   -0.542871    2.024609
     47          1           0        3.079785   -0.794621    2.336484
     48          8           0        2.861716   -1.619970   -0.507519
     49          6           0        1.315098    0.129018    3.166064
     50          1           0        1.863858    1.011941    3.507899
     51          1           0        1.227578   -0.567773    4.004256
     52          1           0        0.313780    0.444572    2.858727
     53          8           0        1.462451   -1.808641    1.650782
     54          1           0        0.484506   -1.734219    1.668822
     55          7           0        3.829137    0.354944   -1.026349
     56          1           0        3.954423    1.349146   -0.742527
     57          6           0        4.712224   -0.230400   -2.042750
     58          1           0        4.217363   -1.127762   -2.428282
     59          6           0        5.986424   -0.695742   -1.316630
     60          6           0        4.976607    0.742358   -3.205594
     61          1           0        5.673996    0.229746   -3.872168
     62          1           0        5.507898    1.617994   -2.818309
     63          8           0        6.116781   -0.696627   -0.115730
     64          6           0        3.697842    1.160798   -3.982695
     65          1           0        3.799975    0.881716   -5.038211
     66          1           0        2.829338    0.601234   -3.607318
     67          6           0        3.371488    2.665078   -3.914513
     68          1           0        4.187155    3.248328   -4.353238
     69          1           0        2.485512    2.875920   -4.522774
     70          7           0        3.126077    3.146150   -2.562535
     71          1           0        2.262948    2.839583   -2.129194
     72          7           0        3.831996    3.195931   -0.346951
     73          1           0        4.475285    3.685466    0.270633
     74          1           0        2.860235    3.392431   -0.104254
     75          7           0        5.304680    3.987675   -1.948448
     76          1           0        5.451890    4.151544   -2.943892
     77          6           0        4.141828    3.516554   -1.698237
     78          8           0        6.905624   -1.123096   -2.194784
     79          1           0        2.241071   -1.988829    0.197803
     80          1           0        7.686757   -1.421436   -1.689221
     81          1           0       -4.560442    3.342775    2.017703
 ---------------------------------------------------------------------

 SCF Done:  E(RB3LYP) =  -2054.04531534     A.U. after    1 cycles

 Alpha  occ. eigenvalues --  -19.34351 -19.30809 -19.29998 -19.27912 -19.25629
 Alpha  occ. eigenvalues --  -19.25276 -19.25236 -19.21925 -14.52545 -14.48847
 Alpha  occ. eigenvalues --  -14.47853 -14.47718 -14.44727 -14.44490 -14.40820
 Alpha  occ. eigenvalues --  -14.37797 -10.46743 -10.43577 -10.42181 -10.40732
 Alpha  occ. eigenvalues --  -10.40169 -10.38602 -10.38418 -10.37735 -10.36933
 Alpha  occ. eigenvalues --  -10.35747 -10.32387 -10.32189 -10.31725 -10.31084
 Alpha  occ. eigenvalues --  -10.30365 -10.30198 -10.30194 -10.29414 -10.28780
 Alpha  occ. eigenvalues --  -10.28464 -10.28367 -10.27897 -10.27718 -10.27493
 Alpha  occ. eigenvalues --  -10.27020 -10.26961  -1.25150  -1.21831  -1.18412
 Alpha  occ. eigenvalues --   -1.17425  -1.16540  -1.15894  -1.13225  -1.10341
 Alpha  occ. eigenvalues --   -1.09557  -1.07301  -1.07287  -1.06414  -1.04385
 Alpha  occ. eigenvalues --   -0.98581  -0.98555  -0.93804  -0.93679  -0.92917
 Alpha  occ. eigenvalues --   -0.91477  -0.90567  -0.88321  -0.86956  -0.86185
 Alpha  occ. eigenvalues --   -0.84390  -0.82515  -0.81550  -0.79845  -0.79141
 Alpha  occ. eigenvalues --   -0.78472  -0.77368  -0.75396  -0.74493  -0.72841
 Alpha  occ. eigenvalues --   -0.71536  -0.71179  -0.71123  -0.69616  -0.68449
 Alpha  occ. eigenvalues --   -0.68316  -0.68239  -0.67724  -0.67420  -0.66124
 Alpha  occ. eigenvalues --   -0.65927  -0.64471  -0.63439  -0.63130  -0.62679
 Alpha  occ. eigenvalues --   -0.61768  -0.61319  -0.60747  -0.60278  -0.59574
 Alpha  occ. eigenvalues --   -0.59009  -0.58754  -0.58515  -0.57646  -0.57382
 Alpha  occ. eigenvalues --   -0.56759  -0.56594  -0.56427  -0.56188  -0.56093
 Alpha  occ. eigenvalues --   -0.55845  -0.55542  -0.55321  -0.54346  -0.54112
 Alpha  occ. eigenvalues --   -0.53403  -0.52942  -0.52821  -0.52752  -0.52144
 Alpha  occ. eigenvalues --   -0.51990  -0.51718  -0.51136  -0.50952  -0.50889
 Alpha  occ. eigenvalues --   -0.50436  -0.50316  -0.50095  -0.49683  -0.49459
 Alpha  occ. eigenvalues --   -0.48885  -0.48234  -0.47573  -0.47329  -0.46700
 Alpha  occ. eigenvalues --   -0.46620  -0.46490  -0.46047  -0.45564  -0.45129
 Alpha  occ. eigenvalues --   -0.44746  -0.44193  -0.43979  -0.43685  -0.43192
 Alpha  occ. eigenvalues --   -0.42782  -0.42426  -0.42290  -0.40843  -0.40043
 Alpha  occ. eigenvalues --   -0.39731  -0.38778  -0.38240  -0.37224  -0.37168
 Alpha  occ. eigenvalues --   -0.36489  -0.35289  -0.35257  -0.33474  -0.31831
 Alpha  occ. eigenvalues --   -0.31657  -0.30009
 Alpha virt. eigenvalues --   -0.15951  -0.11723  -0.11110  -0.10334  -0.09975
 Alpha virt. eigenvalues --   -0.07248  -0.06831  -0.04959  -0.04597  -0.03742
 Alpha virt. eigenvalues --   -0.02535  -0.02054  -0.01886  -0.01049  -0.00819

 Mulliken charges:
               1
     1  N   -0.685630
     2  H    0.316401
     3  H    0.303282
     4  C   -0.089424
     5  H    0.195832
     6  C    0.588875
     7  C   -0.276058
     8  H    0.163073
     9  H    0.158763
    10  O   -0.589228
    11  C   -0.358875
    12  H    0.193644
    13  H    0.211188
    14  C    0.584582
    15  O   -0.447221
    16  O   -0.617830
    17  N   -0.608186
    18  H    0.402690
    19  C   -0.084281
    20  H    0.189365
    21  C    0.633052
    22  C   -0.376964
    23  H    0.176127
    24  H    0.189160
    25  O   -0.529671
    26  C    0.045123
    27  C   -0.032397
    28  H    0.173680
    29  C    0.105777
    30  C    0.263460
    31  C   -0.228228
    32  H    0.126508
    33  N   -0.698097
    34  H    0.355188
    35  C   -0.150708
    36  H    0.154476
    37  C   -0.143500
    38  H    0.160063
    39  C   -0.144101
    40  H    0.141980
    41  N   -0.617816
    42  H    0.378507
    43  C   -0.105244
    44  H    0.209529
    45  C    0.679562
    46  C    0.093911
    47  H    0.199349
    48  O   -0.572609
    49  C   -0.493381
    50  H    0.181203
    51  H    0.196647
    52  H    0.172323
    53  O   -0.674461
    54  H    0.452427
    55  N   -0.576172
    56  H    0.444999
    57  C   -0.105449
    58  H    0.223168
    59  C    0.616244
    60  C   -0.310884
    61  H    0.199853
    62  H    0.190741
    63  O   -0.449715
    64  C   -0.271479
    65  H    0.170397
    66  H    0.135873
    67  C   -0.161776
    68  H    0.170380
    69  H    0.170780
    70  N   -0.590020
    71  H    0.338802
    72  N   -0.818532
    73  H    0.355566
    74  H    0.369745
    75  N   -0.617577
    76  H    0.292389
    77  C    0.540043
    78  O   -0.551438
    79  H    0.480064
    80  H    0.437428
    81  H    0.444732
 Sum of Mulliken charges =   1.00000

 Dipole moment (field-independent basis, Debye):
    X=              3.1405    Y=              4.1452    Z=             -1.5055  Tot=              5.4141
 Quadrupole moment (field-independent basis, Debye-Ang):
   XX=           -173.0916   YY=           -217.4066   ZZ=           -209.4669
   XY=            -28.7863   XZ=            -18.1460   YZ=              0.1489

 Normal termination of Gaussian 16 at Sun May 15 18:54:47 2022.
