 Gaussian 16, Revision C.01,
 Gaussian 16:  ES64L-G16RevC.01  3-Jul-2019

 ----------------------------------------------------------------------
 # B3LYP/6-31G* empiricaldispersion=gd3 guess=read geom=check nosymm in
 tegral(ultrafinegrid)
 ----------------------------------------------------------------------

 ------------------------------------------------------
 Candidate Structure: Conf:602 Charge calc in gas phase
 ------------------------------------------------------
 Structure from the checkpoint file:  "conf-602.chk"
 Charge =  1 Multiplicity = 1

                          Input orientation:
 ---------------------------------------------------------------------
 Center     Atomic      Atomic             Coordinates (Angstroms)
 Number     Number       Type             X           Y           Z
 ---------------------------------------------------------------------
      1          7           0       -3.548343    0.646499    3.932714
      2          1           0       -3.735637   -0.349928    3.841412
      3          1           0       -3.658064    0.907519    4.908769
      4          6           0       -2.225159    0.980255    3.431417
      5          1           0       -2.054492    2.048401    3.611515
      6          6           0       -2.189737    0.691051    1.927042
      7          6           0       -1.027801    0.154944    3.957618
      8          1           0       -1.307721   -0.892635    3.817782
      9          1           0       -0.166535    0.368846    3.310756
     10          8           0       -2.104316   -0.505653    1.533285
     11          6           0       -0.571880    0.311665    5.400249
     12          1           0       -1.366237    0.055283    6.111640
     13          1           0       -0.261019    1.335566    5.638245
     14          6           0        0.613776   -0.583010    5.729294
     15          8           0        1.160708   -0.660061    6.792552
     16          8           0        1.049940   -1.351071    4.646045
     17          7           0       -2.155484    1.708241    1.067234
     18          1           0       -2.225459    2.652816    1.428404
     19          6           0       -1.722695    1.551449   -0.337612
     20          1           0       -2.320757    0.755566   -0.790556
     21          6           0       -0.242834    1.135375   -0.230760
     22          6           0       -1.906483    2.845943   -1.120698
     23          1           0       -1.292256    3.641528   -0.674001
     24          1           0       -2.957618    3.144247   -1.024439
     25          8           0        0.662086    1.945451   -0.029723
     26          6           0       -1.555043    2.695736   -2.575950
     27          6           0       -0.650073    1.847276   -3.176769
     28          1           0       -0.041790    1.052433   -2.768840
     29          6           0       -2.046674    3.569810   -3.614676
     30          6           0       -1.389383    3.206827   -4.819019
     31          6           0       -2.949886    4.648468   -3.625319
     32          1           0       -3.459788    4.954579   -2.715709
     33          7           0       -0.554910    2.147850   -4.520299
     34          1           0        0.039979    1.670164   -5.179676
     35          6           0       -2.503622    4.944374   -6.003965
     36          1           0       -2.695165    5.496430   -6.918951
     37          6           0       -1.605384    3.886203   -6.022859
     38          1           0       -1.092268    3.596618   -6.935483
     39          6           0       -3.171595    5.320436   -4.818483
     40          1           0       -3.866128    6.154702   -4.844286
     41          7           0       -0.035416   -0.202588   -0.266123
     42          1           0       -0.819410   -0.800362   -0.485625
     43          6           0        1.218192   -0.821228    0.140094
     44          1           0        1.698872   -0.143261    0.855793
     45          6           0        2.152766   -0.962699   -1.094081
     46          6           0        0.949160   -2.165743    0.816323
     47          1           0        0.442232   -2.850652    0.134042
     48          8           0        2.529321   -2.041593   -1.526491
     49          6           0        2.166463   -2.810529    1.443594
     50          1           0        2.872033   -3.049217    0.645118
     51          1           0        1.888934   -3.735027    1.957863
     52          1           0        2.657228   -2.126164    2.145605
     53          8           0       -0.064286   -1.974301    1.930878
     54          1           0        0.348128   -1.800537    2.817648
     55          7           0        2.436468    0.252275   -1.621194
     56          1           0        2.146392    1.060648   -1.078159
     57          6           0        3.486868    0.455862   -2.601979
     58          1           0        3.296452   -0.175601   -3.474721
     59          6           0        4.836295    0.046055   -2.001447
     60          6           0        3.495495    1.948033   -2.999702
     61          1           0        2.477926    2.214699   -3.308135
     62          1           0        4.144834    2.085799   -3.868935
     63          8           0        5.037504   -0.170614   -0.828600
     64          6           0        3.950739    2.864718   -1.845048
     65          1           0        3.587644    2.480477   -0.880725
     66          1           0        5.043836    2.845824   -1.769085
     67          6           0        3.483879    4.316645   -1.964783
     68          1           0        3.927639    4.893617   -1.136430
     69          1           0        3.854729    4.756728   -2.899226
     70          7           0        2.029466    4.408444   -1.972097
     71          1           0        1.548578    3.771239   -1.341804
     72          7           0        0.041726    5.607232   -1.934320
     73          1           0       -0.356035    6.532118   -2.067272
     74          1           0       -0.347476    4.961159   -2.612574
     75          7           0        2.018807    6.821967   -2.094021
     76          1           0        3.032224    6.752300   -2.006133
     77          6           0        1.440655    5.682736   -2.005792
     78          8           0        5.782715    0.005048   -2.957859
     79          1           0       -0.913622   -1.356566    1.780375
     80          1           0        6.626456   -0.231682   -2.527351
     81          1           0        1.794383   -1.882263    4.991469
 ---------------------------------------------------------------------

 SCF Done:  E(RB3LYP) =  -2053.98898849     A.U. after    1 cycles

 Alpha  occ. eigenvalues --  -19.40042 -19.33650 -19.28728 -19.28450 -19.26790
 Alpha  occ. eigenvalues --  -19.26293 -19.23579 -19.23140 -14.52383 -14.51103
 Alpha  occ. eigenvalues --  -14.46579 -14.46503 -14.44373 -14.40894 -14.38990
 Alpha  occ. eigenvalues --  -14.34015 -10.45221 -10.44765 -10.43110 -10.42434
 Alpha  occ. eigenvalues --  -10.41092 -10.40856 -10.38192 -10.37228 -10.36750
 Alpha  occ. eigenvalues --  -10.33769 -10.33492 -10.33204 -10.33163 -10.32231
 Alpha  occ. eigenvalues --  -10.30990 -10.30425 -10.29941 -10.29367 -10.28605
 Alpha  occ. eigenvalues --  -10.27798 -10.27750 -10.26541 -10.26437 -10.26310
 Alpha  occ. eigenvalues --  -10.25826 -10.25487  -1.26172  -1.23126  -1.19730
 Alpha  occ. eigenvalues --   -1.19668  -1.18188  -1.15400  -1.14631  -1.10820
 Alpha  occ. eigenvalues --   -1.08264  -1.07772  -1.06390  -1.03954  -1.02928
 Alpha  occ. eigenvalues --   -1.02201  -0.95326  -0.94650  -0.93182  -0.92388
 Alpha  occ. eigenvalues --   -0.91413  -0.89800  -0.89213  -0.87312  -0.85885
 Alpha  occ. eigenvalues --   -0.84465  -0.82880  -0.81346  -0.80237  -0.79686
 Alpha  occ. eigenvalues --   -0.78074  -0.77695  -0.75770  -0.75535  -0.73623
 Alpha  occ. eigenvalues --   -0.73012  -0.72934  -0.72233  -0.70323  -0.69707
 Alpha  occ. eigenvalues --   -0.68995  -0.67995  -0.67556  -0.66607  -0.66119
 Alpha  occ. eigenvalues --   -0.64363  -0.64155  -0.63944  -0.63733  -0.62810
 Alpha  occ. eigenvalues --   -0.62277  -0.61719  -0.61286  -0.60580  -0.60242
 Alpha  occ. eigenvalues --   -0.59773  -0.59576  -0.59136  -0.58482  -0.58109
 Alpha  occ. eigenvalues --   -0.56923  -0.56450  -0.56097  -0.55896  -0.55735
 Alpha  occ. eigenvalues --   -0.55399  -0.55209  -0.55135  -0.54661  -0.54091
 Alpha  occ. eigenvalues --   -0.53403  -0.53351  -0.53306  -0.52971  -0.52788
 Alpha  occ. eigenvalues --   -0.52369  -0.52128  -0.51941  -0.51308  -0.50864
 Alpha  occ. eigenvalues --   -0.50764  -0.50605  -0.50229  -0.49912  -0.49887
 Alpha  occ. eigenvalues --   -0.49283  -0.48961  -0.48752  -0.48701  -0.48421
 Alpha  occ. eigenvalues --   -0.47711  -0.47073  -0.46317  -0.44793  -0.44612
 Alpha  occ. eigenvalues --   -0.43934  -0.43451  -0.43078  -0.43054  -0.42883
 Alpha  occ. eigenvalues --   -0.41526  -0.41429  -0.41051  -0.40929  -0.40642
 Alpha  occ. eigenvalues --   -0.40375  -0.39400  -0.37793  -0.36703  -0.36160
 Alpha  occ. eigenvalues --   -0.35785  -0.35474  -0.31789  -0.31293  -0.30171
 Alpha  occ. eigenvalues --   -0.28827  -0.28568
 Alpha virt. eigenvalues --   -0.15066  -0.12669  -0.11938  -0.10726  -0.09197
 Alpha virt. eigenvalues --   -0.08584  -0.07963  -0.07268  -0.05384  -0.05113
 Alpha virt. eigenvalues --   -0.04730  -0.03732  -0.03566  -0.02438  -0.01658

 Mulliken charges:
               1
     1  N   -0.702484
     2  H    0.324057
     3  H    0.331057
     4  C   -0.065754
     5  H    0.165797
     6  C    0.680748
     7  C   -0.313391
     8  H    0.151899
     9  H    0.145353
    10  O   -0.619499
    11  C   -0.377188
    12  H    0.206296
    13  H    0.213988
    14  C    0.612656
    15  O   -0.405723
    16  O   -0.630031
    17  N   -0.582062
    18  H    0.373301
    19  C   -0.037533
    20  H    0.193167
    21  C    0.607903
    22  C   -0.384701
    23  H    0.206458
    24  H    0.173839
    25  O   -0.528790
    26  C    0.050199
    27  C   -0.001889
    28  H    0.153347
    29  C    0.028420
    30  C    0.329906
    31  C   -0.207413
    32  H    0.130934
    33  N   -0.701427
    34  H    0.337888
    35  C   -0.146073
    36  H    0.148857
    37  C   -0.156395
    38  H    0.142248
    39  C   -0.136033
    40  H    0.144137
    41  N   -0.596259
    42  H    0.358182
    43  C   -0.103457
    44  H    0.203258
    45  C    0.669470
    46  C    0.086211
    47  H    0.221918
    48  O   -0.513055
    49  C   -0.510970
    50  H    0.255080
    51  H    0.193680
    52  H    0.170326
    53  O   -0.715361
    54  H    0.494209
    55  N   -0.636244
    56  H    0.389744
    57  C   -0.047813
    58  H    0.196370
    59  C    0.617452
    60  C   -0.301569
    61  H    0.177136
    62  H    0.182442
    63  O   -0.473276
    64  C   -0.328022
    65  H    0.147836
    66  H    0.167839
    67  C   -0.126965
    68  H    0.147883
    69  H    0.165799
    70  N   -0.621313
    71  H    0.337770
    72  N   -0.781411
    73  H    0.335375
    74  H    0.350746
    75  N   -0.636378
    76  H    0.283045
    77  C    0.561768
    78  O   -0.561871
    79  H    0.523826
    80  H    0.426075
    81  H    0.434460
 Sum of Mulliken charges =   1.00000

 Dipole moment (field-independent basis, Debye):
    X=             -0.3926    Y=             -2.1543    Z=              4.8136  Tot=              5.2883
 Quadrupole moment (field-independent basis, Debye-Ang):
   XX=           -206.7674   YY=           -247.3806   ZZ=           -179.3658
   XY=            -14.8779   XZ=            -19.9126   YZ=            -14.5897

 Normal termination of Gaussian 16 at Sun May 15 18:54:46 2022.
