 Gaussian 16, Revision C.01,
 Gaussian 16:  ES64L-G16RevC.01  3-Jul-2019

 ----------------------------------------------------------------------
 # B3LYP/6-31G** empiricaldispersion=gd3bj guess=read geom=check nosymm
  integral(ultrafinegrid)
 ----------------------------------------------------------------------

 ------------------------------------------------------
 Candidate Structure: Conf:578 Charge calc in gas phase
 ------------------------------------------------------
 Structure from the checkpoint file:  "conf-578.chk"
 Charge =  1 Multiplicity = 1

                          Input orientation:
 ---------------------------------------------------------------------
 Center     Atomic      Atomic             Coordinates (Angstroms)
 Number     Number       Type             X           Y           Z
 ---------------------------------------------------------------------
      1          7           0       -5.556496   -4.290948   -1.893028
      2          1           0       -5.722898   -5.138355   -2.437993
      3          1           0       -6.316040   -4.168790   -1.221296
      4          1           0       -4.609039   -4.361013   -1.403201
      5          6           0       -5.331632   -3.063954   -2.750732
      6          1           0       -5.677135   -3.283917   -3.761545
      7          6           0       -3.796828   -2.913945   -2.686272
      8          6           0       -6.100586   -1.856074   -2.155940
      9          1           0       -7.155657   -2.170786   -2.145961
     10          8           0       -3.202037   -3.530119   -1.790050
     11          6           0       -6.004223   -0.602344   -3.047626
     12          1           0       -4.990120   -0.194948   -2.974697
     13          1           0       -6.653228    0.149489   -2.587060
     14          6           0       -5.646456   -1.526780   -0.725828
     15          1           0       -4.625336   -1.137115   -0.724874
     16          1           0       -6.300508   -0.756830   -0.310146
     17          1           0       -5.692562   -2.382338   -0.041679
     18          6           0       -6.437138   -0.796696   -4.504113
     19          1           0       -6.463303    0.163287   -5.025129
     20          1           0       -5.763621   -1.446062   -5.079039
     21          1           0       -7.439180   -1.233992   -4.571218
     22          7           0       -3.206452   -2.130576   -3.588746
     23          1           0       -3.798008   -1.576172   -4.192537
     24          6           0       -1.844823   -1.637589   -3.375969
     25          1           0       -1.184364   -2.497935   -3.243641
     26          6           0       -1.831190   -0.752562   -2.114855
     27          6           0       -1.412834   -0.812754   -4.609669
     28          1           0       -2.172199   -0.040176   -4.780012
     29          1           0       -1.409311   -1.476543   -5.480838
     30          8           0       -2.812910   -0.062051   -1.824201
     31          6           0       -0.062977   -0.161454   -4.420552
     32          6           0        0.024999    1.174709   -4.014381
     33          1           0       -0.884541    1.754781   -3.883326
     34          6           0        1.113294   -0.903091   -4.576506
     35          1           0        1.058445   -1.940507   -4.897135
     36          6           0        1.266769    1.760139   -3.769620
     37          1           0        1.321717    2.798182   -3.458102
     38          6           0        2.355133   -0.321807   -4.324788
     39          1           0        3.260101   -0.908339   -4.441533
     40          6           0        2.433610    1.011461   -3.922465
     41          1           0        3.401694    1.463921   -3.733385
     42          7           0       -0.676742   -0.761899   -1.439267
     43          1           0        0.129587   -1.277474   -1.783948
     44          6           0       -0.325480    0.255427   -0.461002
     45          1           0       -0.839043    1.183636   -0.733102
     46          6           0        1.191252    0.417911   -0.596061
     47          6           0       -0.758531   -0.146379    0.976346
     48          1           0       -1.835208   -0.337122    0.888055
     49          8           0        1.885224   -0.507510   -1.011825
     50          6           0       -0.061310   -1.425196    1.451120
     51          1           0        1.011970   -1.260030    1.582069
     52          1           0       -0.475352   -1.743052    2.412944
     53          1           0       -0.198706   -2.242876    0.738329
     54          6           0       -0.551145    0.999559    1.974224
     55          1           0        0.513949    1.163892    2.164561
     56          1           0       -1.003746    1.933958    1.620039
     57          1           0       -1.023881    0.753692    2.929738
     58          7           0        1.710113    1.616266   -0.237261
     59          1           0        1.121073    2.266489    0.261829
     60          6           0        3.148613    1.751728   -0.087520
     61          1           0        3.613742    1.497348   -1.044250
     62          6           0        3.676507    0.808517    0.995452
     63          6           0        3.481674    3.207534    0.296125
     64          1           0        3.030063    3.854207   -0.462951
     65          1           0        3.010100    3.434581    1.258630
     66          8           0        2.998306    0.641991    2.040914
     67          6           0        4.978436    3.522436    0.403481
     68          1           0        5.125237    4.597192    0.245074
     69          1           0        5.558278    3.015812   -0.374726
     70          6           0        5.601431    3.211900    1.763753
     71          7           0        6.936882    3.066454    1.753376
     72          1           0        7.365725    2.672910    0.913288
     73          1           0        7.375472    2.761266    2.612894
     74          8           0        4.913608    3.174158    2.800780
     75          7           0        4.884665    0.320096    0.773945
     76          1           0        5.431081    0.598603   -0.058969
     77          6           0        5.856094   -0.092585    1.780269
     78          1           0        5.754723    0.589121    2.627305
     79          6           0        7.269009    0.289102    1.200280
     80          6           0        5.755069   -1.530758    2.290466
     81          1           0        6.775225   -1.855842    2.516021
     82          1           0        5.363797   -2.175959    1.497850
     83          8           0        8.206305    0.117382    1.990686
     84          6           0        4.895738   -1.654073    3.559239
     85          1           0        3.869609   -1.349133    3.325502
     86          1           0        4.840505   -2.704333    3.862483
     87          6           0        5.465577   -0.810714    4.731254
     88          1           0        6.366394   -0.273283    4.411468
     89          1           0        5.794695   -1.467312    5.543022
     90          6           0        4.477310    0.167490    5.361921
     91          1           0        3.581668   -0.358866    5.703736
     92          1           0        4.919570    0.681054    6.219460
     93          7           0        4.002253    1.225022    4.406620
     94          1           0        3.272741    1.800363    4.829330
     95          1           0        3.599597    0.835723    3.495556
     96          1           0        4.722710    1.897692    4.070333
     97          8           0        7.245968    0.831855    0.049882
 ---------------------------------------------------------------------

 SCF Done:  E(RB3LYP) =  -2122.65330614     A.U. after    1 cycles

 Alpha  occ. eigenvalues --  -19.27737 -19.21390 -19.19963 -19.19755 -19.19235
 Alpha  occ. eigenvalues --  -19.11634 -19.10531 -14.60002 -14.50410 -14.49870
 Alpha  occ. eigenvalues --  -14.44793 -14.44166 -14.41430 -14.40617 -10.44097
 Alpha  occ. eigenvalues --  -10.40632 -10.38325 -10.36719 -10.35985 -10.35823
 Alpha  occ. eigenvalues --  -10.34857 -10.34141 -10.32332 -10.31360 -10.30862
 Alpha  occ. eigenvalues --  -10.30153 -10.30043 -10.29587 -10.29473 -10.29272
 Alpha  occ. eigenvalues --  -10.28032 -10.27249 -10.27070 -10.26768 -10.26734
 Alpha  occ. eigenvalues --  -10.26592 -10.26465 -10.26406 -10.26293 -10.26081
 Alpha  occ. eigenvalues --  -10.26030 -10.25015 -10.24260 -10.24031 -10.22769
 Alpha  occ. eigenvalues --   -1.20254  -1.14172  -1.13232  -1.12171  -1.10681
 Alpha  occ. eigenvalues --   -1.10043  -1.07088  -1.05272  -1.04671  -1.01812
 Alpha  occ. eigenvalues --   -1.00781  -0.98681  -0.96522  -0.95654  -0.95588
 Alpha  occ. eigenvalues --   -0.93865  -0.90134  -0.88497  -0.87191  -0.86946
 Alpha  occ. eigenvalues --   -0.86704  -0.84757  -0.82525  -0.82220  -0.82100
 Alpha  occ. eigenvalues --   -0.80627  -0.78545  -0.76532  -0.75794  -0.75556
 Alpha  occ. eigenvalues --   -0.75013  -0.74308  -0.74039  -0.72894  -0.71800
 Alpha  occ. eigenvalues --   -0.69773  -0.68980  -0.68331  -0.68231  -0.67752
 Alpha  occ. eigenvalues --   -0.66554  -0.65989  -0.65814  -0.64233  -0.63969
 Alpha  occ. eigenvalues --   -0.63189  -0.62889  -0.62577  -0.62495  -0.62153
 Alpha  occ. eigenvalues --   -0.60824  -0.60464  -0.59564  -0.58468  -0.58307
 Alpha  occ. eigenvalues --   -0.58022  -0.56926  -0.56648  -0.56069  -0.55244
 Alpha  occ. eigenvalues --   -0.55015  -0.54917  -0.54701  -0.54394  -0.53768
 Alpha  occ. eigenvalues --   -0.53753  -0.53211  -0.52930  -0.52732  -0.52406
 Alpha  occ. eigenvalues --   -0.52026  -0.51818  -0.50986  -0.50859  -0.50168
 Alpha  occ. eigenvalues --   -0.49988  -0.49720  -0.49530  -0.49413  -0.48808
 Alpha  occ. eigenvalues --   -0.48717  -0.48151  -0.47931  -0.47246  -0.47140
 Alpha  occ. eigenvalues --   -0.46749  -0.46654  -0.46447  -0.46317  -0.46101
 Alpha  occ. eigenvalues --   -0.45545  -0.45345  -0.45099  -0.44941  -0.44773
 Alpha  occ. eigenvalues --   -0.43840  -0.43708  -0.43126  -0.42900  -0.42813
 Alpha  occ. eigenvalues --   -0.42392  -0.41963  -0.41683  -0.41366  -0.41303
 Alpha  occ. eigenvalues --   -0.41208  -0.40979  -0.40814  -0.40442  -0.40336
 Alpha  occ. eigenvalues --   -0.39106  -0.38818  -0.37864  -0.35510  -0.35305
 Alpha  occ. eigenvalues --   -0.34703  -0.33842  -0.33674  -0.33288  -0.32814
 Alpha  occ. eigenvalues --   -0.32439  -0.32265  -0.31859  -0.26860  -0.26437
 Alpha  occ. eigenvalues --   -0.24681
 Alpha virt. eigenvalues --   -0.13210  -0.11153  -0.08523  -0.08320  -0.07636
 Alpha virt. eigenvalues --   -0.06766  -0.06240  -0.05928  -0.05258  -0.05044
 Alpha virt. eigenvalues --   -0.02721  -0.02225  -0.01061  -0.00468  -0.00274

 Mulliken charges:
               1
     1  N   -0.554915
     2  H    0.351556
     3  H    0.345851
     4  H    0.373365
     5  C   -0.095559
     6  H    0.168832
     7  C    0.666374
     8  C   -0.076235
     9  H    0.112854
    10  O   -0.542750
    11  C   -0.213787
    12  H    0.148415
    13  H    0.134765
    14  C   -0.356771
    15  H    0.182930
    16  H    0.144842
    17  H    0.081368
    18  C   -0.348955
    19  H    0.147100
    20  H    0.086931
    21  H    0.124448
    22  N   -0.513250
    23  H    0.290594
    24  C   -0.014414
    25  H    0.150115
    26  C    0.621648
    27  C   -0.274913
    28  H    0.117924
    29  H    0.134613
    30  O   -0.556769
    31  C    0.099433
    32  C   -0.120635
    33  H    0.091576
    34  C   -0.131522
    35  H    0.086981
    36  C   -0.088408
    37  H    0.095349
    38  C   -0.060551
    39  H    0.111896
    40  C   -0.076678
    41  H    0.102958
    42  N   -0.504033
    43  H    0.297713
    44  C   -0.015354
    45  H    0.124444
    46  C    0.647502
    47  C   -0.040638
    48  H    0.106860
    49  O   -0.546475
    50  C   -0.332380
    51  H    0.140943
    52  H    0.100007
    53  H    0.106819
    54  C   -0.353366
    55  H    0.132214
    56  H    0.094589
    57  H    0.110750
    58  N   -0.538316
    59  H    0.267893
    60  C    0.014831
    61  H    0.136263
    62  C    0.625943
    63  C   -0.218083
    64  H    0.114440
    65  H    0.130021
    66  O   -0.622319
    67  C   -0.277059
    68  H    0.152618
    69  H    0.143077
    70  C    0.587743
    71  N   -0.573337
    72  H    0.314597
    73  H    0.283955
    74  O   -0.591351
    75  N   -0.489511
    76  H    0.294027
    77  C   -0.013338
    78  H    0.064426
    79  C    0.577309
    80  C   -0.176818
    81  H    0.144328
    82  H    0.106941
    83  O   -0.565005
    84  C   -0.213286
    85  H    0.105895
    86  H    0.105882
    87  C   -0.205597
    88  H    0.149342
    89  H    0.128740
    90  C   -0.106295
    91  H    0.142189
    92  H    0.145316
    93  N   -0.586989
    94  H    0.315910
    95  H    0.397778
    96  H    0.347427
    97  O   -0.635787
 Sum of Mulliken charges =   1.00000

 Dipole moment (field-independent basis, Debye):
    X=            -24.4858    Y=             -8.8830    Z=             -4.2976  Tot=             26.3994
 Quadrupole moment (field-independent basis, Debye-Ang):
   XX=           -205.7637   YY=           -194.5815   ZZ=           -176.9683
   XY=             91.4645   XZ=             75.7889   YZ=             36.8623

 Normal termination of Gaussian 16 at Thu Sep  8 14:45:42 2022.
