 Gaussian 16, Revision C.01,
 Gaussian 16:  ES64L-G16RevC.01  3-Jul-2019

 ----------------------------------------------------------------------
 # B3LYP/6-31G** empiricaldispersion=gd3bj guess=read geom=check nosymm
  integral(ultrafinegrid)
 ----------------------------------------------------------------------

 ------------------------------------------------------
 Candidate Structure: Conf:472 Charge calc in gas phase
 ------------------------------------------------------
 Structure from the checkpoint file:  "conf-472.chk"
 Charge =  1 Multiplicity = 1

                          Input orientation:
 ---------------------------------------------------------------------
 Center     Atomic      Atomic             Coordinates (Angstroms)
 Number     Number       Type             X           Y           Z
 ---------------------------------------------------------------------
      1          7           0       -6.065954   -2.074049   -3.000481
      2          1           0       -6.313635   -3.003689   -3.344240
      3          1           0       -6.922419   -1.531029   -2.877055
      4          1           0       -5.516410   -2.169570   -2.093883
      5          6           0       -5.052213   -1.360891   -3.872110
      6          1           0       -5.049733   -1.827815   -4.860412
      7          6           0       -3.741122   -1.637195   -3.099459
      8          6           0       -5.418514    0.141071   -3.983299
      9          1           0       -5.503688    0.522341   -2.955162
     10          8           0       -3.843204   -1.968252   -1.908891
     11          6           0       -6.774413    0.310151   -4.704144
     12          1           0       -7.535929   -0.363893   -4.281849
     13          1           0       -6.655836   -0.000826   -5.750162
     14          6           0       -4.302787    0.926491   -4.686156
     15          1           0       -4.097382    0.510524   -5.681183
     16          1           0       -4.619521    1.959474   -4.834438
     17          1           0       -3.389427    0.952188   -4.089111
     18          6           0       -7.335031    1.733384   -4.638016
     19          1           0       -8.326325    1.771726   -5.095859
     20          1           0       -7.429995    2.073673   -3.601824
     21          1           0       -6.701836    2.446288   -5.170269
     22          7           0       -2.585284   -1.524231   -3.752914
     23          1           0       -2.599898   -1.130727   -4.684231
     24          6           0       -1.314656   -1.457764   -3.026164
     25          1           0       -1.183254   -2.398443   -2.484976
     26          6           0       -1.375353   -0.279569   -2.036012
     27          6           0       -0.176486   -1.254367   -4.045722
     28          1           0       -0.405085   -0.354390   -4.627878
     29          1           0       -0.186402   -2.107027   -4.735806
     30          8           0       -1.976355    0.753439   -2.325778
     31          6           0        1.187198   -1.100671   -3.410320
     32          6           0        1.740691   -2.133817   -2.641886
     33          1           0        1.195341   -3.065669   -2.508054
     34          6           0        1.921353    0.075356   -3.593575
     35          1           0        1.501160    0.881501   -4.188695
     36          6           0        3.002642   -1.987956   -2.068345
     37          1           0        3.422564   -2.794307   -1.475817
     38          6           0        3.199187    0.216309   -3.047640
     39          1           0        3.773494    1.122761   -3.223871
     40          6           0        3.735903   -0.818275   -2.280062
     41          1           0        4.732734   -0.721253   -1.861648
     42          7           0       -0.713673   -0.474663   -0.879630
     43          1           0       -0.160505   -1.312337   -0.748580
     44          6           0       -0.455431    0.610294    0.062587
     45          1           0       -0.649246    1.544991   -0.471365
     46          6           0        1.019314    0.471454    0.442650
     47          6           0       -1.352551    0.550445    1.315380
     48          1           0       -1.111743   -0.394367    1.823177
     49          8           0        1.413550   -0.581273    0.980645
     50          6           0       -1.020753    1.724480    2.247213
     51          1           0       -1.306747    2.673781    1.779913
     52          1           0       -1.583693    1.644886    3.182146
     53          1           0        0.046549    1.789732    2.483449
     54          6           0       -2.836026    0.529946    0.936731
     55          1           0       -3.107300    1.437808    0.388366
     56          1           0       -3.077424   -0.329601    0.306026
     57          1           0       -3.455039    0.479607    1.837671
     58          7           0        1.811809    1.489878    0.110907
     59          1           0        1.387976    2.312044   -0.293393
     60          6           0        3.243875    1.532454    0.369527
     61          1           0        3.641824    0.554124    0.082345
     62          6           0        3.508326    1.705021    1.885463
     63          6           0        3.865001    2.616882   -0.525013
     64          1           0        3.384359    2.560489   -1.505612
     65          1           0        3.643786    3.607385   -0.109234
     66          8           0        2.533988    1.779918    2.676942
     67          6           0        5.370184    2.462563   -0.741897
     68          1           0        5.627375    1.396471   -0.811604
     69          1           0        5.957926    2.855386    0.090819
     70          6           0        5.815048    3.080213   -2.060963
     71          7           0        7.058048    3.615270   -2.029323
     72          1           0        7.611683    3.607236   -1.185128
     73          1           0        7.453893    3.984166   -2.880624
     74          8           0        5.113626    3.058177   -3.072252
     75          7           0        4.790253    1.680484    2.216604
     76          1           0        5.578402    1.730709    1.528471
     77          6           0        5.471907    1.931068    3.494171
     78          1           0        4.960946    2.738566    4.027502
     79          6           0        6.927716    2.389172    3.075713
     80          6           0        5.532611    0.677037    4.405294
     81          1           0        5.879657    0.995658    5.390479
     82          1           0        6.265585   -0.036611    4.011526
     83          8           0        7.667559    2.715562    4.004062
     84          6           0        4.131604    0.085805    4.387081
     85          1           0        3.451888    0.895516    4.664847
     86          1           0        3.968581   -0.100855    3.323079
     87          6           0        3.648398   -1.189298    5.075884
     88          1           0        3.334822   -1.014991    6.110469
     89          1           0        4.410724   -1.975445    5.098569
     90          6           0        2.484405   -1.719855    4.216602
     91          1           0        2.882466   -2.167571    3.303822
     92          1           0        1.858699   -2.458164    4.722306
     93          7           0        1.561128   -0.613969    3.722558
     94          1           0        1.131399   -0.870489    2.816439
     95          1           0        2.066901    0.280314    3.465040
     96          1           0        0.840891   -0.376476    4.404691
     97          8           0        7.141972    2.312240    1.819227
 ---------------------------------------------------------------------

 SCF Done:  E(RB3LYP) =  -2122.60024276     A.U. after    3 cycles

 Alpha  occ. eigenvalues --  -19.28928 -19.22722 -19.22093 -19.18389 -19.16154
 Alpha  occ. eigenvalues --  -19.09410 -19.07804 -14.61016 -14.52676 -14.51674
 Alpha  occ. eigenvalues --  -14.46908 -14.46081 -14.40267 -14.40015 -10.45324
 Alpha  occ. eigenvalues --  -10.41871 -10.39854 -10.38860 -10.36201 -10.35133
 Alpha  occ. eigenvalues --  -10.35119 -10.34087 -10.33711 -10.32967 -10.32626
 Alpha  occ. eigenvalues --  -10.30986 -10.30793 -10.30074 -10.29283 -10.28978
 Alpha  occ. eigenvalues --  -10.28840 -10.27627 -10.27522 -10.27307 -10.27110
 Alpha  occ. eigenvalues --  -10.26958 -10.26739 -10.26286 -10.26186 -10.26143
 Alpha  occ. eigenvalues --  -10.25809 -10.24590 -10.24312 -10.24085 -10.22694
 Alpha  occ. eigenvalues --   -1.21395  -1.15361  -1.14659  -1.13572  -1.09328
 Alpha  occ. eigenvalues --   -1.08275  -1.07708  -1.07520  -1.03502  -1.02425
 Alpha  occ. eigenvalues --   -1.02248  -0.97027  -0.96643  -0.95033  -0.94562
 Alpha  occ. eigenvalues --   -0.93418  -0.91412  -0.89972  -0.88309  -0.88231
 Alpha  occ. eigenvalues --   -0.86778  -0.84443  -0.83449  -0.82557  -0.82289
 Alpha  occ. eigenvalues --   -0.81539  -0.78695  -0.78639  -0.77333  -0.76160
 Alpha  occ. eigenvalues --   -0.75623  -0.75420  -0.74332  -0.73004  -0.71537
 Alpha  occ. eigenvalues --   -0.70421  -0.70041  -0.69616  -0.69146  -0.68812
 Alpha  occ. eigenvalues --   -0.67763  -0.67570  -0.67005  -0.66064  -0.65781
 Alpha  occ. eigenvalues --   -0.64624  -0.63470  -0.62719  -0.62545  -0.61926
 Alpha  occ. eigenvalues --   -0.61197  -0.60294  -0.59917  -0.59218  -0.58613
 Alpha  occ. eigenvalues --   -0.58422  -0.58320  -0.57851  -0.57541  -0.56835
 Alpha  occ. eigenvalues --   -0.56417  -0.55751  -0.55261  -0.54378  -0.54199
 Alpha  occ. eigenvalues --   -0.54137  -0.53880  -0.53537  -0.52997  -0.52730
 Alpha  occ. eigenvalues --   -0.51988  -0.51575  -0.51319  -0.50787  -0.50297
 Alpha  occ. eigenvalues --   -0.50086  -0.49883  -0.49857  -0.49505  -0.49443
 Alpha  occ. eigenvalues --   -0.49267  -0.48977  -0.48497  -0.48314  -0.47662
 Alpha  occ. eigenvalues --   -0.47589  -0.47484  -0.47279  -0.47231  -0.46841
 Alpha  occ. eigenvalues --   -0.46314  -0.46113  -0.45983  -0.45080  -0.44422
 Alpha  occ. eigenvalues --   -0.44086  -0.44053  -0.43603  -0.43219  -0.42801
 Alpha  occ. eigenvalues --   -0.42613  -0.42446  -0.42375  -0.42021  -0.41790
 Alpha  occ. eigenvalues --   -0.41691  -0.41220  -0.40118  -0.39677  -0.38781
 Alpha  occ. eigenvalues --   -0.38578  -0.37865  -0.37433  -0.36527  -0.36165
 Alpha  occ. eigenvalues --   -0.35941  -0.35101  -0.33180  -0.32864  -0.32126
 Alpha  occ. eigenvalues --   -0.31473  -0.31305  -0.30082  -0.24602  -0.24258
 Alpha  occ. eigenvalues --   -0.21962
 Alpha virt. eigenvalues --   -0.14561  -0.12054  -0.09801  -0.09242  -0.08538
 Alpha virt. eigenvalues --   -0.07707  -0.07437  -0.06295  -0.05416  -0.04591
 Alpha virt. eigenvalues --   -0.03040  -0.02565  -0.02285  -0.01789  -0.01206

 Mulliken charges:
               1
     1  N   -0.550912
     2  H    0.352696
     3  H    0.344251
     4  H    0.370804
     5  C   -0.094089
     6  H    0.164895
     7  C    0.660357
     8  C   -0.064005
     9  H    0.127422
    10  O   -0.542467
    11  C   -0.193298
    12  H    0.070388
    13  H    0.126054
    14  C   -0.371326
    15  H    0.104431
    16  H    0.146952
    17  H    0.174317
    18  C   -0.327331
    19  H    0.137114
    20  H    0.122197
    21  H    0.136967
    22  N   -0.512423
    23  H    0.288935
    24  C   -0.010660
    25  H    0.140830
    26  C    0.639538
    27  C   -0.276814
    28  H    0.122707
    29  H    0.139759
    30  O   -0.540946
    31  C    0.113436
    32  C   -0.149098
    33  H    0.078390
    34  C   -0.137570
    35  H    0.096571
    36  C   -0.070752
    37  H    0.101851
    38  C   -0.095798
    39  H    0.155734
    40  C   -0.105702
    41  H    0.109935
    42  N   -0.518777
    43  H    0.282714
    44  C    0.011821
    45  H    0.128875
    46  C    0.630369
    47  C   -0.049700
    48  H    0.073963
    49  O   -0.612958
    50  C   -0.357786
    51  H    0.118033
    52  H    0.108342
    53  H    0.139451
    54  C   -0.324461
    55  H    0.117027
    56  H    0.112533
    57  H    0.106200
    58  N   -0.501062
    59  H    0.281301
    60  C   -0.012677
    61  H    0.141971
    62  C    0.600137
    63  C   -0.212749
    64  H    0.131004
    65  H    0.122602
    66  O   -0.602251
    67  C   -0.301881
    68  H    0.130657
    69  H    0.178213
    70  C    0.568597
    71  N   -0.600727
    72  H    0.304691
    73  H    0.282131
    74  O   -0.526535
    75  N   -0.513235
    76  H    0.315538
    77  C   -0.050292
    78  H    0.121682
    79  C    0.588366
    80  C   -0.174228
    81  H    0.134167
    82  H    0.106071
    83  O   -0.555025
    84  C   -0.215916
    85  H    0.117423
    86  H    0.098835
    87  C   -0.187358
    88  H    0.120780
    89  H    0.135327
    90  C   -0.116954
    91  H    0.170040
    92  H    0.139381
    93  N   -0.588577
    94  H    0.353616
    95  H    0.380820
    96  H    0.321209
    97  O   -0.634076
 Sum of Mulliken charges =   1.00000

 Dipole moment (field-independent basis, Debye):
    X=            -30.4885    Y=            -12.9541    Z=            -13.6453  Tot=             35.8267
 Quadrupole moment (field-independent basis, Debye-Ang):
   XX=           -209.6639   YY=           -249.6006   ZZ=           -188.8814
   XY=             -2.8280   XZ=             42.9036   YZ=             -7.2384

 Normal termination of Gaussian 16 at Thu Sep  8 14:41:30 2022.
