 Gaussian 16, Revision C.01,
 Gaussian 16:  ES64L-G16RevC.01  3-Jul-2019

 ----------------------------------------------------------------------
 # B3LYP/6-31G** empiricaldispersion=gd3bj guess=read geom=check nosymm
  integral(ultrafinegrid)
 ----------------------------------------------------------------------

 ------------------------------------------------------
 Candidate Structure: Conf:950 Charge calc in gas phase
 ------------------------------------------------------
 Structure from the checkpoint file:  "conf-950.chk"
 Charge =  1 Multiplicity = 1

                          Input orientation:
 ---------------------------------------------------------------------
 Center     Atomic      Atomic             Coordinates (Angstroms)
 Number     Number       Type             X           Y           Z
 ---------------------------------------------------------------------
      1          7           0       -4.365302   -4.050965   -2.900637
      2          1           0       -4.443271   -4.548633   -3.788191
      3          1           0       -5.124656   -4.345690   -2.284515
      4          1           0       -3.405565   -4.237879   -2.450239
      5          6           0       -4.293510   -2.547500   -3.060980
      6          1           0       -4.447780   -2.314264   -4.115636
      7          6           0       -2.829637   -2.257550   -2.650776
      8          6           0       -5.364853   -1.854930   -2.186351
      9          1           0       -6.316426   -2.332875   -2.463823
     10          8           0       -2.177439   -3.209546   -2.173213
     11          6           0       -5.517950   -0.355059   -2.508269
     12          1           0       -4.641592    0.190050   -2.139721
     13          1           0       -6.355650    0.003196   -1.901281
     14          6           0       -5.104522   -2.070361   -0.689795
     15          1           0       -4.180072   -1.577876   -0.376592
     16          1           0       -5.924532   -1.646624   -0.105920
     17          1           0       -5.024331   -3.126010   -0.406121
     18          6           0       -5.787391   -0.024085   -3.979255
     19          1           0       -6.042053    1.033087   -4.086817
     20          1           0       -4.923658   -0.201528   -4.629787
     21          1           0       -6.630016   -0.604922   -4.369803
     22          7           0       -2.377905   -1.028229   -2.822676
     23          1           0       -2.946840   -0.375369   -3.349579
     24          6           0       -0.975127   -0.626250   -2.597784
     25          1           0       -0.327681   -1.437250   -2.940041
     26          6           0       -0.725841   -0.378962   -1.093358
     27          6           0       -0.676039    0.638695   -3.416362
     28          1           0        0.409038    0.755148   -3.412303
     29          1           0       -1.102374    1.500919   -2.897423
     30          8           0       -0.636719    0.756309   -0.634444
     31          6           0       -1.205632    0.524596   -4.825013
     32          6           0       -0.584984   -0.322085   -5.755142
     33          1           0        0.329576   -0.834421   -5.470044
     34          6           0       -2.378863    1.195581   -5.195349
     35          1           0       -2.845868    1.883207   -4.493021
     36          6           0       -1.134967   -0.492017   -7.024406
     37          1           0       -0.641993   -1.141676   -7.741382
     38          6           0       -2.931285    1.021760   -6.468214
     39          1           0       -3.831775    1.561251   -6.745657
     40          6           0       -2.311428    0.172569   -7.383463
     41          1           0       -2.731243    0.040863   -8.375693
     42          7           0       -0.611967   -1.503435   -0.346693
     43          1           0       -0.627211   -2.399311   -0.817543
     44          6           0       -0.204611   -1.462933    1.063431
     45          1           0       -0.615485   -0.538061    1.479047
     46          6           0        1.338742   -1.397634    1.044928
     47          6           0       -0.721439   -2.675703    1.843840
     48          1           0       -0.188914   -3.553549    1.457629
     49          8           0        2.033508   -2.405326    1.155143
     50          6           0       -0.363898   -2.525326    3.327230
     51          1           0       -0.845872   -1.640277    3.758819
     52          1           0       -0.702357   -3.398249    3.892502
     53          1           0        0.715777   -2.436405    3.463164
     54          6           0       -2.229292   -2.872050    1.653465
     55          1           0       -2.785133   -1.983031    1.975117
     56          1           0       -2.483167   -3.070999    0.608574
     57          1           0       -2.579870   -3.717186    2.253477
     58          7           0        1.826283   -0.166213    0.768494
     59          1           0        1.197352    0.623612    0.658782
     60          6           0        3.200063    0.062094    0.376651
     61          1           0        3.825038   -0.688446    0.868499
     62          6           0        3.589529    1.479260    0.811974
     63          6           0        3.361065   -0.029605   -1.161081
     64          1           0        2.638340    0.666019   -1.603107
     65          1           0        4.358853    0.323749   -1.445662
     66          8           0        2.741429    2.353639    0.971301
     67          6           0        3.125371   -1.447497   -1.713768
     68          1           0        2.222007   -1.877563   -1.285666
     69          1           0        3.959781   -2.100874   -1.438601
     70          6           0        2.922333   -1.414691   -3.217089
     71          7           0        4.046592   -1.406901   -3.972167
     72          1           0        4.967097   -1.444623   -3.564809
     73          1           0        3.961224   -1.331397   -4.974660
     74          8           0        1.796882   -1.357546   -3.720987
     75          7           0        4.921057    1.686296    0.937695
     76          1           0        5.571253    1.000198    0.568711
     77          6           0        5.466732    3.034990    0.979678
     78          1           0        4.932586    3.640040    0.231471
     79          6           0        6.920723    2.914953    0.477145
     80          6           0        5.286609    3.724544    2.342384
     81          1           0        6.141399    3.499185    2.987658
     82          1           0        4.409078    3.289750    2.824473
     83          8           0        7.783015    3.871343    0.776790
     84          6           0        5.074137    5.243526    2.190206
     85          1           0        5.604842    5.608206    1.301267
     86          1           0        4.011259    5.412112    1.990529
     87          6           0        5.534246    6.070248    3.401431
     88          1           0        5.421184    5.484183    4.323322
     89          1           0        4.901557    6.955303    3.527157
     90          6           0        6.978244    6.554736    3.260363
     91          1           0        7.038975    7.250770    2.416601
     92          1           0        7.283399    7.107568    4.159360
     93          7           0        7.897570    5.436544    2.957393
     94          1           0        8.834468    5.794805    2.781320
     95          1           0        7.592202    4.463737    1.575567
     96          1           0        7.980640    4.827604    3.770195
     97          8           0        7.234542    1.972196   -0.228858
 ---------------------------------------------------------------------

 SCF Done:  E(RB3LYP) =  -2122.65983150     A.U. after    1 cycles

 Alpha  occ. eigenvalues --  -19.27922 -19.21783 -19.20441 -19.19449 -19.17738
 Alpha  occ. eigenvalues --  -19.17729 -19.17721 -14.59611 -14.50298 -14.44632
 Alpha  occ. eigenvalues --  -14.43627 -14.41750 -14.41439 -14.40930 -10.44020
 Alpha  occ. eigenvalues --  -10.40589 -10.37519 -10.36817 -10.36396 -10.34906
 Alpha  occ. eigenvalues --  -10.34580 -10.34521 -10.33116 -10.30953 -10.30563
 Alpha  occ. eigenvalues --  -10.30226 -10.29774 -10.29099 -10.29054 -10.27962
 Alpha  occ. eigenvalues --  -10.27949 -10.27385 -10.27328 -10.27268 -10.27018
 Alpha  occ. eigenvalues --  -10.26964 -10.26846 -10.26367 -10.26346 -10.26310
 Alpha  occ. eigenvalues --  -10.25188 -10.24496 -10.24238 -10.24057 -10.23549
 Alpha  occ. eigenvalues --   -1.20135  -1.13746  -1.13450  -1.12425  -1.10910
 Alpha  occ. eigenvalues --   -1.10031  -1.09285  -1.07013  -1.05328  -1.01035
 Alpha  occ. eigenvalues --   -0.98713  -0.98320  -0.98244  -0.96710  -0.95846
 Alpha  occ. eigenvalues --   -0.93852  -0.89474  -0.87795  -0.86865  -0.86761
 Alpha  occ. eigenvalues --   -0.85747  -0.85002  -0.82649  -0.82363  -0.81810
 Alpha  occ. eigenvalues --   -0.79939  -0.77616  -0.76745  -0.75481  -0.74851
 Alpha  occ. eigenvalues --   -0.74488  -0.74143  -0.73811  -0.72672  -0.70515
 Alpha  occ. eigenvalues --   -0.68713  -0.68571  -0.68230  -0.67408  -0.67082
 Alpha  occ. eigenvalues --   -0.66251  -0.66027  -0.65407  -0.64686  -0.64305
 Alpha  occ. eigenvalues --   -0.63866  -0.63230  -0.62456  -0.62134  -0.61357
 Alpha  occ. eigenvalues --   -0.61066  -0.60301  -0.59197  -0.58605  -0.57622
 Alpha  occ. eigenvalues --   -0.56963  -0.56445  -0.56116  -0.55964  -0.55533
 Alpha  occ. eigenvalues --   -0.54827  -0.54645  -0.53559  -0.53384  -0.53319
 Alpha  occ. eigenvalues --   -0.53049  -0.52745  -0.52652  -0.52282  -0.52066
 Alpha  occ. eigenvalues --   -0.51686  -0.51095  -0.50504  -0.50017  -0.49811
 Alpha  occ. eigenvalues --   -0.49645  -0.49361  -0.49324  -0.48936  -0.48693
 Alpha  occ. eigenvalues --   -0.48548  -0.48054  -0.47968  -0.47782  -0.47556
 Alpha  occ. eigenvalues --   -0.47153  -0.46753  -0.46431  -0.45956  -0.45827
 Alpha  occ. eigenvalues --   -0.45579  -0.45530  -0.45207  -0.44927  -0.44671
 Alpha  occ. eigenvalues --   -0.44122  -0.43863  -0.43703  -0.43066  -0.42493
 Alpha  occ. eigenvalues --   -0.42265  -0.42011  -0.41890  -0.41530  -0.41469
 Alpha  occ. eigenvalues --   -0.41088  -0.40642  -0.40482  -0.40359  -0.39696
 Alpha  occ. eigenvalues --   -0.39411  -0.39219  -0.38795  -0.35333  -0.34995
 Alpha  occ. eigenvalues --   -0.34777  -0.34091  -0.33558  -0.33375  -0.33219
 Alpha  occ. eigenvalues --   -0.32631  -0.32482  -0.31644  -0.31133  -0.30768
 Alpha  occ. eigenvalues --   -0.30644
 Alpha virt. eigenvalues --   -0.12959  -0.11070  -0.09070  -0.08660  -0.07869
 Alpha virt. eigenvalues --   -0.06762  -0.05868  -0.05016  -0.03705  -0.03475
 Alpha virt. eigenvalues --   -0.02896  -0.01728  -0.00916  -0.00408  -0.00127

 Mulliken charges:
               1
     1  N   -0.561273
     2  H    0.351733
     3  H    0.343537
     4  H    0.377660
     5  C   -0.087859
     6  H    0.179303
     7  C    0.658394
     8  C   -0.082621
     9  H    0.117319
    10  O   -0.567041
    11  C   -0.199946
    12  H    0.121736
    13  H    0.137911
    14  C   -0.345496
    15  H    0.154786
    16  H    0.150895
    17  H    0.097106
    18  C   -0.353620
    19  H    0.143938
    20  H    0.110727
    21  H    0.119598
    22  N   -0.506449
    23  H    0.292012
    24  C   -0.035155
    25  H    0.181190
    26  C    0.619948
    27  C   -0.268239
    28  H    0.157344
    29  H    0.139830
    30  O   -0.521877
    31  C    0.069166
    32  C   -0.119943
    33  H    0.127408
    34  C   -0.167341
    35  H    0.093884
    36  C   -0.092483
    37  H    0.102136
    38  C   -0.088088
    39  H    0.100209
    40  C   -0.091373
    41  H    0.102317
    42  N   -0.541002
    43  H    0.290474
    44  C    0.003518
    45  H    0.131472
    46  C    0.612014
    47  C   -0.073755
    48  H    0.115475
    49  O   -0.544033
    50  C   -0.324636
    51  H    0.103579
    52  H    0.110251
    53  H    0.136424
    54  C   -0.322621
    55  H    0.104509
    56  H    0.080175
    57  H    0.110819
    58  N   -0.517763
    59  H    0.299891
    60  C   -0.030946
    61  H    0.143342
    62  C    0.597766
    63  C   -0.183832
    64  H    0.127513
    65  H    0.118039
    66  O   -0.533081
    67  C   -0.252019
    68  H    0.137429
    69  H    0.122005
    70  C    0.551712
    71  N   -0.583726
    72  H    0.288384
    73  H    0.286341
    74  O   -0.519211
    75  N   -0.535518
    76  H    0.281152
    77  C   -0.007418
    78  H    0.147830
    79  C    0.579009
    80  C   -0.184826
    81  H    0.089847
    82  H    0.136143
    83  O   -0.525649
    84  C   -0.195830
    85  H    0.098930
    86  H    0.124113
    87  C   -0.192576
    88  H    0.102779
    89  H    0.112930
    90  C   -0.063955
    91  H    0.124192
    92  H    0.105751
    93  N   -0.651355
    94  H    0.278227
    95  H    0.389801
    96  H    0.267510
    97  O   -0.486878
 Sum of Mulliken charges =   1.00000

 Dipole moment (field-independent basis, Debye):
    X=            -11.7183    Y=             -6.9665    Z=            -10.7018  Tot=             17.3314
 Quadrupole moment (field-independent basis, Debye-Ang):
   XX=           -119.2278   YY=           -183.0543   ZZ=           -183.7900
   XY=             97.0416   XZ=             80.0297   YZ=             65.9100

 Normal termination of Gaussian 16 at Thu Sep  8 14:45:37 2022.
