 Gaussian 16, Revision C.01,
 Gaussian 16:  ES64L-G16RevC.01  3-Jul-2019

 ----------------------------------------------------------------------
 # B3LYP/6-31G** empiricaldispersion=gd3bj guess=read geom=check nosymm
  integral(ultrafinegrid)
 ----------------------------------------------------------------------

 ------------------------------------------------------
 Candidate Structure: Conf:121 Charge calc in gas phase
 ------------------------------------------------------
 Structure from the checkpoint file:  "conf-121.chk"
 Charge =  1 Multiplicity = 1

                          Input orientation:
 ---------------------------------------------------------------------
 Center     Atomic      Atomic             Coordinates (Angstroms)
 Number     Number       Type             X           Y           Z
 ---------------------------------------------------------------------
      1          7           0       -4.084068   -3.081140   -5.214835
      2          1           0       -3.888818   -3.095059   -6.216502
      3          1           0       -4.991946   -3.514054   -5.040309
      4          1           0       -3.296442   -3.585141   -4.683168
      5          6           0       -3.963205   -1.704721   -4.599599
      6          1           0       -3.971587   -0.964237   -5.400505
      7          6           0       -2.585871   -1.795970   -3.909780
      8          6           0       -5.131231   -1.462560   -3.609488
      9          1           0       -6.043093   -1.532270   -4.222699
     10          8           0       -2.112772   -2.933083   -3.743820
     11          6           0       -5.093707   -0.049149   -2.995507
     12          1           0       -4.262984    0.001396   -2.284049
     13          1           0       -6.002848    0.045317   -2.392900
     14          6           0       -5.173793   -2.520147   -2.495603
     15          1           0       -4.301987   -2.429566   -1.843021
     16          1           0       -6.068729   -2.365618   -1.888372
     17          1           0       -5.222479   -3.550318   -2.868103
     18          6           0       -5.051935    1.107016   -3.999988
     19          1           0       -5.167993    2.063011   -3.483473
     20          1           0       -4.111188    1.170230   -4.562730
     21          1           0       -5.860896    1.030809   -4.734795
     22          7           0       -2.010162   -0.666281   -3.521732
     23          1           0       -2.486184    0.208467   -3.691688
     24          6           0       -0.904233   -0.653232   -2.566276
     25          1           0       -0.055808   -1.192249   -2.989870
     26          6           0       -1.371233   -1.334088   -1.266783
     27          6           0       -0.513728    0.805179   -2.280809
     28          1           0        0.330073    0.791564   -1.586581
     29          1           0       -1.345024    1.294160   -1.760956
     30          8           0       -2.542684   -1.239797   -0.892730
     31          6           0       -0.170377    1.560599   -3.544090
     32          6           0        0.833052    1.092239   -4.406904
     33          1           0        1.371529    0.181574   -4.158255
     34          6           0       -0.868933    2.721597   -3.892379
     35          1           0       -1.642601    3.098247   -3.228105
     36          6           0        1.138382    1.781832   -5.579315
     37          1           0        1.921571    1.411048   -6.233231
     38          6           0       -0.567062    3.410567   -5.069139
     39          1           0       -1.114033    4.313866   -5.320638
     40          6           0        0.438244    2.943023   -5.914450
     41          1           0        0.676382    3.478899   -6.827557
     42          7           0       -0.389734   -1.961110   -0.601068
     43          1           0        0.557397   -1.908890   -0.979514
     44          6           0       -0.575064   -2.535451    0.732247
     45          1           0       -1.434974   -2.017090    1.173657
     46          6           0        0.698406   -2.190520    1.533661
     47          6           0       -0.865993   -4.052209    0.722870
     48          1           0        0.078970   -4.563427    0.503341
     49          8           0        1.320715   -3.011905    2.198815
     50          6           0       -1.347962   -4.500972    2.109017
     51          1           0       -2.290233   -4.002447    2.368095
     52          1           0       -1.533194   -5.579329    2.114562
     53          1           0       -0.607023   -4.277232    2.876633
     54          6           0       -1.896465   -4.425316   -0.349098
     55          1           0       -2.848758   -3.917396   -0.164400
     56          1           0       -1.562147   -4.158595   -1.354671
     57          1           0       -2.077542   -5.504445   -0.326077
     58          7           0        1.106536   -0.903978    1.394919
     59          1           0        0.609748   -0.249122    0.805802
     60          6           0        2.413718   -0.467291    1.833117
     61          1           0        2.523585   -0.705376    2.896882
     62          6           0        2.443168    1.052290    1.635514
     63          6           0        3.562522   -1.183077    1.063635
     64          1           0        4.429167   -1.261640    1.729273
     65          1           0        3.230302   -2.205636    0.882609
     66          8           0        1.627723    1.624592    0.911742
     67          6           0        4.048211   -0.517507   -0.231261
     68          1           0        4.767102   -1.195814   -0.707144
     69          1           0        4.585485    0.403716    0.001692
     70          6           0        2.996613   -0.215766   -1.292205
     71          7           0        3.140508    0.990728   -1.876501
     72          1           0        3.709967    1.703429   -1.431695
     73          1           0        2.471757    1.277029   -2.576937
     74          8           0        2.130522   -1.031471   -1.648265
     75          7           0        3.427210    1.716376    2.284614
     76          1           0        4.108191    1.196895    2.818271
     77          6           0        3.593953    3.149803    2.134428
     78          1           0        2.617362    3.624813    2.265001
     79          6           0        4.113379    3.531476    0.753412
     80          6           0        4.575118    3.702224    3.193579
     81          1           0        4.295104    3.249905    4.151377
     82          1           0        4.389283    4.774255    3.291483
     83          8           0        4.111828    4.836682    0.579419
     84          6           0        6.082059    3.467207    2.925508
     85          1           0        6.566544    3.372211    3.901438
     86          1           0        6.233390    2.500496    2.427882
     87          6           0        6.827446    4.585181    2.136898
     88          1           0        7.748679    4.815027    2.679377
     89          1           0        6.229222    5.502423    2.166383
     90          6           0        7.210361    4.285234    0.665156
     91          1           0        8.296782    4.366017    0.541782
     92          1           0        6.925840    3.267501    0.393583
     93          7           0        6.513231    5.185673   -0.293801
     94          1           0        6.729307    4.904506   -1.247895
     95          1           0        6.853567    6.139821   -0.186012
     96          1           0        4.960221    5.064200    0.016943
     97          8           0        4.601204    2.729536   -0.036748
 ---------------------------------------------------------------------

 SCF Done:  E(RB3LYP) =  -2122.68073391     A.U. after    1 cycles

 Alpha  occ. eigenvalues --  -19.26048 -19.23255 -19.20806 -19.19733 -19.19559
 Alpha  occ. eigenvalues --  -19.18826 -19.17446 -14.58317 -14.48670 -14.44115
 Alpha  occ. eigenvalues --  -14.43081 -14.42762 -14.41575 -14.41506 -10.42323
 Alpha  occ. eigenvalues --  -10.39086 -10.38493 -10.36531 -10.36502 -10.36020
 Alpha  occ. eigenvalues --  -10.34590 -10.32704 -10.32678 -10.30911 -10.30381
 Alpha  occ. eigenvalues --  -10.29239 -10.29127 -10.28839 -10.28341 -10.28311
 Alpha  occ. eigenvalues --  -10.28122 -10.28001 -10.27263 -10.27227 -10.27188
 Alpha  occ. eigenvalues --  -10.27016 -10.26957 -10.26938 -10.26447 -10.26171
 Alpha  occ. eigenvalues --  -10.25966 -10.25620 -10.24355 -10.22359 -10.21562
 Alpha  occ. eigenvalues --   -1.18577  -1.16045  -1.12472  -1.11761  -1.11304
 Alpha  occ. eigenvalues --   -1.09887  -1.09414  -1.07171  -1.05492  -1.00688
 Alpha  occ. eigenvalues --   -1.00404  -0.98238  -0.98153  -0.96822  -0.94341
 Alpha  occ. eigenvalues --   -0.93744  -0.88943  -0.88141  -0.86281  -0.85760
 Alpha  occ. eigenvalues --   -0.85468  -0.83500  -0.82954  -0.82643  -0.81807
 Alpha  occ. eigenvalues --   -0.79861  -0.77302  -0.76220  -0.75118  -0.74021
 Alpha  occ. eigenvalues --   -0.73085  -0.72876  -0.72485  -0.71683  -0.71226
 Alpha  occ. eigenvalues --   -0.70677  -0.68791  -0.68080  -0.66957  -0.66746
 Alpha  occ. eigenvalues --   -0.66621  -0.66152  -0.65013  -0.64895  -0.64316
 Alpha  occ. eigenvalues --   -0.62794  -0.62601  -0.61532  -0.61138  -0.60173
 Alpha  occ. eigenvalues --   -0.59643  -0.59210  -0.58798  -0.58298  -0.57989
 Alpha  occ. eigenvalues --   -0.57237  -0.56136  -0.55674  -0.55224  -0.54613
 Alpha  occ. eigenvalues --   -0.54411  -0.54205  -0.54006  -0.53796  -0.53648
 Alpha  occ. eigenvalues --   -0.53355  -0.52995  -0.52459  -0.52277  -0.52205
 Alpha  occ. eigenvalues --   -0.51658  -0.50831  -0.50560  -0.50315  -0.49895
 Alpha  occ. eigenvalues --   -0.49831  -0.49567  -0.49455  -0.48890  -0.48806
 Alpha  occ. eigenvalues --   -0.48578  -0.48184  -0.47953  -0.47530  -0.47183
 Alpha  occ. eigenvalues --   -0.46577  -0.46500  -0.46257  -0.45616  -0.45452
 Alpha  occ. eigenvalues --   -0.44946  -0.44757  -0.44389  -0.44092  -0.44046
 Alpha  occ. eigenvalues --   -0.43785  -0.43733  -0.43575  -0.43281  -0.42944
 Alpha  occ. eigenvalues --   -0.42569  -0.42096  -0.41929  -0.41721  -0.41152
 Alpha  occ. eigenvalues --   -0.40944  -0.40619  -0.40484  -0.39944  -0.39705
 Alpha  occ. eigenvalues --   -0.38687  -0.38226  -0.37981  -0.37869  -0.34999
 Alpha  occ. eigenvalues --   -0.34845  -0.34121  -0.33945  -0.33648  -0.33464
 Alpha  occ. eigenvalues --   -0.33068  -0.32957  -0.32581  -0.32424  -0.30784
 Alpha  occ. eigenvalues --   -0.30538
 Alpha virt. eigenvalues --   -0.11492  -0.09729  -0.09281  -0.08489  -0.06631
 Alpha virt. eigenvalues --   -0.06143  -0.05721  -0.05158  -0.04400  -0.04124
 Alpha virt. eigenvalues --   -0.03691  -0.00950  -0.00617  -0.00446   0.00556

 Mulliken charges:
               1
     1  N   -0.557649
     2  H    0.347169
     3  H    0.342988
     4  H    0.375214
     5  C   -0.095291
     6  H    0.164633
     7  C    0.670483
     8  C   -0.074902
     9  H    0.109195
    10  O   -0.547376
    11  C   -0.209320
    12  H    0.149711
    13  H    0.131825
    14  C   -0.362567
    15  H    0.195785
    16  H    0.141936
    17  H    0.079712
    18  C   -0.350895
    19  H    0.141728
    20  H    0.090596
    21  H    0.120879
    22  N   -0.506593
    23  H    0.288177
    24  C   -0.011906
    25  H    0.162588
    26  C    0.614080
    27  C   -0.285472
    28  H    0.169887
    29  H    0.121077
    30  O   -0.552635
    31  C    0.097279
    32  C   -0.160681
    33  H    0.118437
    34  C   -0.144366
    35  H    0.092467
    36  C   -0.087454
    37  H    0.105203
    38  C   -0.083092
    39  H    0.103838
    40  C   -0.086170
    41  H    0.104561
    42  N   -0.552840
    43  H    0.320067
    44  C   -0.001501
    45  H    0.143173
    46  C    0.587071
    47  C   -0.035983
    48  H    0.104017
    49  O   -0.526449
    50  C   -0.324742
    51  H    0.094041
    52  H    0.103226
    53  H    0.140124
    54  C   -0.332353
    55  H    0.105998
    56  H    0.109340
    57  H    0.099142
    58  N   -0.528371
    59  H    0.281447
    60  C   -0.001224
    61  H    0.139139
    62  C    0.612110
    63  C   -0.178200
    64  H    0.100659
    65  H    0.154888
    66  O   -0.548777
    67  C   -0.292749
    68  H    0.141002
    69  H    0.133714
    70  C    0.592113
    71  N   -0.609182
    72  H    0.317193
    73  H    0.274203
    74  O   -0.581772
    75  N   -0.529247
    76  H    0.271749
    77  C    0.012390
    78  H    0.157068
    79  C    0.632754
    80  C   -0.218580
    81  H    0.118048
    82  H    0.137135
    83  O   -0.522262
    84  C   -0.211998
    85  H    0.118824
    86  H    0.102820
    87  C   -0.200482
    88  H    0.118195
    89  H    0.118641
    90  C   -0.081252
    91  H    0.113954
    92  H    0.145139
    93  N   -0.653126
    94  H    0.278864
    95  H    0.274734
    96  H    0.382325
    97  O   -0.527294
 Sum of Mulliken charges =   1.00000

 Dipole moment (field-independent basis, Debye):
    X=             -2.6821    Y=              2.7424    Z=            -17.2144  Tot=             17.6366
 Quadrupole moment (field-independent basis, Debye-Ang):
   XX=           -111.5863   YY=           -212.3217   ZZ=           -147.9080
   XY=             85.5328   XZ=             88.8982   YZ=             41.5589

 Normal termination of Gaussian 16 at Thu Sep  8 14:40:29 2022.
