 Gaussian 16, Revision C.01,
 Gaussian 16:  ES64L-G16RevC.01  3-Jul-2019

 ----------------------------------------------------------------------
 # B3LYP/6-31G** empiricaldispersion=gd3bj guess=read geom=check nosymm
  integral(ultrafinegrid)
 ----------------------------------------------------------------------

 ------------------------------------------------------
 Candidate Structure: Conf:584 Charge calc in gas phase
 ------------------------------------------------------
 Structure from the checkpoint file:  "conf-584.chk"
 Charge =  1 Multiplicity = 1

                          Input orientation:
 ---------------------------------------------------------------------
 Center     Atomic      Atomic             Coordinates (Angstroms)
 Number     Number       Type             X           Y           Z
 ---------------------------------------------------------------------
      1          7           0       -4.005510   -0.217927   -5.434536
      2          1           0       -3.102782   -0.291083   -5.935840
      3          1           0       -4.610219    0.471267   -5.882861
      4          1           0       -4.425353   -1.172225   -5.444999
      5          6           0       -3.780411    0.046476   -3.960895
      6          1           0       -2.940201    0.735268   -3.865196
      7          6           0       -3.405840   -1.363376   -3.470580
      8          6           0       -5.061618    0.619935   -3.314784
      9          1           0       -5.280847    1.553577   -3.856577
     10          8           0       -3.980424   -2.324749   -4.001466
     11          6           0       -4.806851    0.994203   -1.839670
     12          1           0       -4.358918    0.139857   -1.318207
     13          1           0       -5.784542    1.153815   -1.373320
     14          6           0       -6.272133   -0.315329   -3.447887
     15          1           0       -6.123741   -1.243422   -2.891894
     16          1           0       -7.158581    0.184968   -3.051266
     17          1           0       -6.496837   -0.587606   -4.485011
     18          6           0       -3.946809    2.245109   -1.644097
     19          1           0       -3.841656    2.468103   -0.578702
     20          1           0       -2.941383    2.118633   -2.052608
     21          1           0       -4.411395    3.115893   -2.120171
     22          7           0       -2.453150   -1.437012   -2.544440
     23          1           0       -1.953374   -0.582071   -2.282478
     24          6           0       -1.800852   -2.700918   -2.256191
     25          1           0       -2.536164   -3.493866   -2.411157
     26          6           0       -1.332478   -2.655551   -0.795973
     27          6           0       -0.577992   -2.921428   -3.216812
     28          1           0       -0.338648   -3.989606   -3.228982
     29          1           0        0.293815   -2.411747   -2.797510
     30          8           0       -1.541800   -1.665599   -0.100176
     31          6           0       -0.840557   -2.443309   -4.625744
     32          6           0       -1.417668   -3.285894   -5.584048
     33          1           0       -1.648321   -4.313596   -5.320343
     34          6           0       -0.565332   -1.116164   -4.979425
     35          1           0       -0.142644   -0.441923   -4.242294
     36          6           0       -1.714849   -2.820951   -6.863986
     37          1           0       -2.154347   -3.493162   -7.593758
     38          6           0       -0.858242   -0.641961   -6.262997
     39          1           0       -0.603361    0.380142   -6.529761
     40          6           0       -1.434707   -1.495580   -7.211881
     41          1           0       -1.636240   -1.140354   -8.218204
     42          7           0       -0.612262   -3.720992   -0.351890
     43          1           0       -0.286204   -4.376198   -1.049771
     44          6           0        0.321431   -3.499955    0.758768
     45          1           0       -0.256043   -3.138076    1.613897
     46          6           0        1.314623   -2.419107    0.289871
     47          6           0        1.042856   -4.808411    1.127584
     48          1           0        1.571231   -5.142550    0.223026
     49          8           0        1.816348   -2.483692   -0.834999
     50          6           0        2.087594   -4.560269    2.222573
     51          1           0        1.617133   -4.167123    3.131128
     52          1           0        2.585716   -5.496551    2.487362
     53          1           0        2.856146   -3.850342    1.906027
     54          6           0        0.042244   -5.886999    1.557409
     55          1           0       -0.483953   -5.582795    2.468925
     56          1           0       -0.710747   -6.081115    0.789123
     57          1           0        0.561699   -6.825799    1.768898
     58          7           0        1.548724   -1.405028    1.147315
     59          1           0        1.181178   -1.398964    2.092338
     60          6           0        2.421224   -0.295262    0.824821
     61          1           0        3.186072   -0.655858    0.130874
     62          6           0        3.040317    0.181847    2.147061
     63          6           0        1.650877    0.884927    0.171414
     64          1           0        1.021171    1.346463    0.941886
     65          1           0        2.391216    1.630945   -0.143875
     66          8           0        2.481843   -0.059304    3.217335
     67          6           0        0.781315    0.420841   -0.997402
     68          1           0        0.080061   -0.331608   -0.634865
     69          1           0        1.391311   -0.075357   -1.759782
     70          6           0       -0.087973    1.432770   -1.706199
     71          7           0        0.103105    2.740877   -1.452373
     72          1           0        0.801096    3.064091   -0.802190
     73          1           0       -0.479910    3.420745   -1.917427
     74          8           0       -0.957597    1.053167   -2.512856
     75          7           0        4.168169    0.905015    2.026537
     76          1           0        4.573954    1.124340    1.123168
     77          6           0        4.805765    1.576925    3.147068
     78          1           0        4.041988    2.077620    3.751380
     79          6           0        5.764604    2.598101    2.556255
     80          6           0        5.581053    0.602252    4.067232
     81          1           0        4.871352   -0.186545    4.330419
     82          1           0        5.820622    1.136756    4.991048
     83          8           0        6.386144    3.307089    3.475480
     84          6           0        6.864060   -0.023260    3.479103
     85          1           0        6.991114   -0.994494    3.966951
     86          1           0        6.711877   -0.251939    2.416386
     87          6           0        8.186385    0.774439    3.671882
     88          1           0        8.957755    0.070029    3.996675
     89          1           0        8.058709    1.479366    4.500477
     90          6           0        8.735215    1.542585    2.442309
     91          1           0        9.716459    1.141739    2.160676
     92          1           0        8.074987    1.416082    1.582879
     93          7           0        8.823015    3.007699    2.688412
     94          1           0        9.112816    3.484806    1.837416
     95          1           0        9.531832    3.203408    3.393106
     96          1           0        7.359279    3.452338    3.133801
     97          8           0        5.997007    2.639365    1.353129
 ---------------------------------------------------------------------

 SCF Done:  E(RB3LYP) =  -2122.68766218     A.U. after    1 cycles

 Alpha  occ. eigenvalues --  -19.23360 -19.22197 -19.22117 -19.21139 -19.19655
 Alpha  occ. eigenvalues --  -19.19296 -19.19120 -14.56882 -14.46336 -14.46315
 Alpha  occ. eigenvalues --  -14.44713 -14.43786 -14.43085 -14.41621 -10.40193
 Alpha  occ. eigenvalues --  -10.39574 -10.38034 -10.37338 -10.36769 -10.36372
 Alpha  occ. eigenvalues --  -10.36229 -10.33397 -10.31607 -10.31352 -10.31071
 Alpha  occ. eigenvalues --  -10.29741 -10.29500 -10.29299 -10.29243 -10.28934
 Alpha  occ. eigenvalues --  -10.28800 -10.28631 -10.28620 -10.28576 -10.28109
 Alpha  occ. eigenvalues --  -10.27755 -10.27739 -10.27618 -10.27330 -10.25804
 Alpha  occ. eigenvalues --  -10.24829 -10.24739 -10.24710 -10.24578 -10.24485
 Alpha  occ. eigenvalues --   -1.16098  -1.14885  -1.13506  -1.13348  -1.11560
 Alpha  occ. eigenvalues --   -1.10935  -1.10693  -1.06282  -1.03678  -1.01416
 Alpha  occ. eigenvalues --   -1.00993  -1.00431  -0.99775  -0.97010  -0.95565
 Alpha  occ. eigenvalues --   -0.92658  -0.89596  -0.88575  -0.87690  -0.86254
 Alpha  occ. eigenvalues --   -0.85036  -0.84265  -0.83039  -0.82800  -0.81498
 Alpha  occ. eigenvalues --   -0.80632  -0.77932  -0.75958  -0.75765  -0.75448
 Alpha  occ. eigenvalues --   -0.73611  -0.72597  -0.71472  -0.70722  -0.69854
 Alpha  occ. eigenvalues --   -0.69675  -0.69487  -0.68427  -0.68084  -0.67792
 Alpha  occ. eigenvalues --   -0.66684  -0.66390  -0.66217  -0.65792  -0.65525
 Alpha  occ. eigenvalues --   -0.64290  -0.63226  -0.62742  -0.61309  -0.60719
 Alpha  occ. eigenvalues --   -0.59563  -0.58921  -0.58265  -0.57574  -0.57426
 Alpha  occ. eigenvalues --   -0.57082  -0.56850  -0.56649  -0.55914  -0.55528
 Alpha  occ. eigenvalues --   -0.55271  -0.54534  -0.54468  -0.53768  -0.53666
 Alpha  occ. eigenvalues --   -0.53449  -0.53064  -0.52811  -0.52288  -0.51952
 Alpha  occ. eigenvalues --   -0.51728  -0.51652  -0.51432  -0.51031  -0.50573
 Alpha  occ. eigenvalues --   -0.50357  -0.49887  -0.49671  -0.49539  -0.49203
 Alpha  occ. eigenvalues --   -0.48914  -0.48551  -0.48042  -0.47738  -0.47382
 Alpha  occ. eigenvalues --   -0.47108  -0.46753  -0.46429  -0.46344  -0.46122
 Alpha  occ. eigenvalues --   -0.45907  -0.45731  -0.45173  -0.45020  -0.44736
 Alpha  occ. eigenvalues --   -0.44190  -0.43768  -0.43453  -0.43357  -0.43232
 Alpha  occ. eigenvalues --   -0.43202  -0.42930  -0.42553  -0.42296  -0.42134
 Alpha  occ. eigenvalues --   -0.41263  -0.41178  -0.40406  -0.39547  -0.39382
 Alpha  occ. eigenvalues --   -0.38760  -0.38122  -0.37435  -0.37025  -0.36310
 Alpha  occ. eigenvalues --   -0.36178  -0.35782  -0.35049  -0.34597  -0.34160
 Alpha  occ. eigenvalues --   -0.34053  -0.33825  -0.33383  -0.32740  -0.32421
 Alpha  occ. eigenvalues --   -0.32165
 Alpha virt. eigenvalues --   -0.11207  -0.10590  -0.09722  -0.08047  -0.07392
 Alpha virt. eigenvalues --   -0.07123  -0.05832  -0.05379  -0.04662  -0.01955
 Alpha virt. eigenvalues --   -0.01512  -0.01059  -0.00286   0.00352   0.00434

 Mulliken charges:
               1
     1  N   -0.550770
     2  H    0.338578
     3  H    0.332166
     4  H    0.355791
     5  C   -0.087005
     6  H    0.179844
     7  C    0.644394
     8  C   -0.071684
     9  H    0.099983
    10  O   -0.561601
    11  C   -0.188964
    12  H    0.128689
    13  H    0.120519
    14  C   -0.332410
    15  H    0.149492
    16  H    0.136006
    17  H    0.085217
    18  C   -0.352714
    19  H    0.124029
    20  H    0.121495
    21  H    0.105922
    22  N   -0.508339
    23  H    0.319375
    24  C   -0.040772
    25  H    0.166735
    26  C    0.615500
    27  C   -0.272975
    28  H    0.118263
    29  H    0.162698
    30  O   -0.522727
    31  C    0.105139
    32  C   -0.084529
    33  H    0.105141
    34  C   -0.117443
    35  H    0.116532
    36  C   -0.087719
    37  H    0.114823
    38  C   -0.161733
    39  H    0.109532
    40  C   -0.126265
    41  H    0.110960
    42  N   -0.518643
    43  H    0.273138
    44  C    0.020831
    45  H    0.128942
    46  C    0.606072
    47  C   -0.091266
    48  H    0.105607
    49  O   -0.564968
    50  C   -0.326820
    51  H    0.113247
    52  H    0.121509
    53  H    0.117584
    54  C   -0.311155
    55  H    0.115049
    56  H    0.105900
    57  H    0.119153
    58  N   -0.510339
    59  H    0.288921
    60  C   -0.022881
    61  H    0.142066
    62  C    0.604850
    63  C   -0.202250
    64  H    0.125377
    65  H    0.107964
    66  O   -0.539873
    67  C   -0.286916
    68  H    0.182992
    69  H    0.158681
    70  C    0.603950
    71  N   -0.593841
    72  H    0.294019
    73  H    0.291140
    74  O   -0.566329
    75  N   -0.533037
    76  H    0.280378
    77  C    0.002294
    78  H    0.147132
    79  C    0.599556
    80  C   -0.177120
    81  H    0.132041
    82  H    0.122510
    83  O   -0.529765
    84  C   -0.206097
    85  H    0.111057
    86  H    0.098210
    87  C   -0.199188
    88  H    0.111069
    89  H    0.118046
    90  C   -0.081768
    91  H    0.109703
    92  H    0.142074
    93  N   -0.652524
    94  H    0.279388
    95  H    0.272789
    96  H    0.381882
    97  O   -0.519516
 Sum of Mulliken charges =   1.00000

 Dipole moment (field-independent basis, Debye):
    X=             -1.0341    Y=              0.9044    Z=            -13.5852  Tot=             13.6545
 Quadrupole moment (field-independent basis, Debye-Ang):
   XX=           -127.3331   YY=           -223.9352   ZZ=           -168.0922
   XY=             11.9124   XZ=             89.4278   YZ=             -1.8473

 Normal termination of Gaussian 16 at Thu Sep  8 14:45:46 2022.
