 Gaussian 16, Revision C.01,
 Gaussian 16:  ES64L-G16RevC.01  3-Jul-2019

 ----------------------------------------------------------------------
 # B3LYP/6-31G** empiricaldispersion=gd3bj guess=read geom=check nosymm
  integral(ultrafinegrid)
 ----------------------------------------------------------------------

 -----------------------------------------------------
 Candidate Structure: Conf:95 Charge calc in gas phase
 -----------------------------------------------------
 Structure from the checkpoint file:  "conf-95.chk"
 Charge =  1 Multiplicity = 1

                          Input orientation:
 ---------------------------------------------------------------------
 Center     Atomic      Atomic             Coordinates (Angstroms)
 Number     Number       Type             X           Y           Z
 ---------------------------------------------------------------------
      1          7           0       -3.317177    2.077860   -6.007824
      2          1           0       -2.721127    2.747777   -6.495052
      3          1           0       -4.295308    2.307886   -6.188218
      4          1           0       -3.077892    1.067934   -6.319255
      5          6           0       -3.002358    1.959748   -4.532852
      6          1           0       -2.298332    2.750888   -4.266590
      7          6           0       -2.318825    0.569148   -4.480464
      8          6           0       -4.289340    2.075218   -3.683178
      9          1           0       -4.766792    3.014137   -4.002255
     10          8           0       -2.391364   -0.131405   -5.509590
     11          6           0       -3.954806    2.235708   -2.185569
     12          1           0       -3.132500    2.955361   -2.077528
     13          1           0       -3.598352    1.284143   -1.776898
     14          6           0       -5.252403    0.909547   -3.946688
     15          1           0       -4.832172   -0.033212   -3.584299
     16          1           0       -6.198280    1.075904   -3.429576
     17          1           0       -5.491203    0.777081   -5.008022
     18          6           0       -5.146602    2.721240   -1.355741
     19          1           0       -4.845347    2.871044   -0.316331
     20          1           0       -5.533051    3.673676   -1.733035
     21          1           0       -5.966145    1.997788   -1.356594
     22          7           0       -1.728284    0.223551   -3.353984
     23          1           0       -1.737554    0.811979   -2.520051
     24          6           0       -1.091279   -1.065882   -3.109761
     25          1           0       -1.736272   -1.856867   -3.503618
     26          6           0       -1.028549   -1.167113   -1.571433
     27          6           0        0.295116   -1.138517   -3.808257
     28          1           0        0.915916   -0.306355   -3.464680
     29          1           0        0.106115   -1.002996   -4.878413
     30          8           0       -1.319630   -0.170913   -0.886780
     31          6           0        0.990582   -2.452585   -3.544929
     32          6           0        2.163303   -2.483109   -2.783655
     33          1           0        2.614039   -1.543622   -2.482455
     34          6           0        0.414356   -3.664135   -3.958056
     35          1           0       -0.485295   -3.655436   -4.569052
     36          6           0        2.731276   -3.700094   -2.407896
     37          1           0        3.617991   -3.706941   -1.784418
     38          6           0        0.984457   -4.882048   -3.585357
     39          1           0        0.528565   -5.813234   -3.906795
     40          6           0        2.139196   -4.900939   -2.799037
     41          1           0        2.574778   -5.847612   -2.496515
     42          7           0       -0.664277   -2.350706   -1.062913
     43          1           0       -0.312899   -3.049463   -1.708687
     44          6           0       -0.358961   -2.564142    0.363351
     45          1           0       -1.100610   -1.999887    0.937423
     46          6           0        1.050643   -1.971694    0.586876
     47          6           0       -0.432562   -4.054084    0.711903
     48          1           0        0.365726   -4.549097    0.144046
     49          8           0        2.069739   -2.650191    0.531339
     50          6           0       -0.148398   -4.253678    2.205307
     51          1           0       -0.899137   -3.741258    2.818280
     52          1           0       -0.184944   -5.316968    2.457816
     53          1           0        0.839742   -3.876283    2.474674
     54          6           0       -1.786857   -4.657204    0.322840
     55          1           0       -2.604078   -4.164013    0.861718
     56          1           0       -1.991056   -4.567788   -0.748088
     57          1           0       -1.814020   -5.719921    0.579006
     58          7           0        1.057812   -0.620184    0.719611
     59          1           0        0.172217   -0.138034    0.630319
     60          6           0        2.262345    0.128190    0.417969
     61          1           0        2.837979   -0.472495   -0.293814
     62          6           0        3.124078    0.394503    1.656193
     63          6           0        1.880960    1.477795   -0.217705
     64          1           0        1.122162    1.290591   -0.982373
     65          1           0        1.443533    2.118504    0.554606
     66          8           0        2.656119    0.806973    2.709790
     67          6           0        3.076350    2.170102   -0.879903
     68          1           0        3.867327    2.393660   -0.159654
     69          1           0        2.750417    3.120318   -1.315940
     70          6           0        3.600837    1.297657   -2.015912
     71          7           0        4.923271    1.019479   -1.976369
     72          1           0        5.538303    1.396201   -1.258395
     73          1           0        5.314633    0.479642   -2.734848
     74          8           0        2.843802    0.845263   -2.879555
     75          7           0        4.459094    0.235424    1.444309
     76          1           0        4.779632    0.022547    0.510405
     77          6           0        5.420222    0.820249    2.364720
     78          1           0        4.969492    1.749837    2.743478
     79          6           0        6.640840    1.258777    1.533216
     80          6           0        5.707480   -0.068440    3.582985
     81          1           0        6.468001   -0.813332    3.328811
     82          1           0        4.793064   -0.623163    3.802955
     83          8           0        7.839436    1.252705    2.074808
     84          6           0        6.105035    0.761487    4.820046
     85          1           0        6.622740    1.677947    4.508417
     86          1           0        5.183953    1.094192    5.308523
     87          6           0        7.000874    0.013440    5.819828
     88          1           0        6.756243   -1.057175    5.817041
     89          1           0        6.813001    0.363403    6.840320
     90          6           0        8.489787    0.213476    5.534957
     91          1           0        8.741982    1.269997    5.676077
     92          1           0        9.094938   -0.363428    6.246934
     93          7           0        8.823714   -0.120028    4.131366
     94          1           0        9.802870    0.093526    3.948932
     95          1           0        8.007315    0.728003    2.933959
     96          1           0        8.724602   -1.123397    3.983210
     97          8           0        6.481368    1.656210    0.385762
 ---------------------------------------------------------------------

 SCF Done:  E(RB3LYP) =  -2122.67349413     A.U. after    3 cycles

 Alpha  occ. eigenvalues --  -19.27024 -19.23119 -19.22718 -19.19376 -19.18234
 Alpha  occ. eigenvalues --  -19.17841 -19.17194 -14.58883 -14.49312 -14.45782
 Alpha  occ. eigenvalues --  -14.42109 -14.41896 -14.41850 -14.41582 -10.43397
 Alpha  occ. eigenvalues --  -10.40086 -10.39322 -10.38047 -10.35382 -10.35127
 Alpha  occ. eigenvalues --  -10.34467 -10.34128 -10.34030 -10.30792 -10.30383
 Alpha  occ. eigenvalues --  -10.30311 -10.29780 -10.29547 -10.28588 -10.27724
 Alpha  occ. eigenvalues --  -10.27707 -10.27131 -10.26357 -10.26258 -10.26231
 Alpha  occ. eigenvalues --  -10.26037 -10.25961 -10.25779 -10.25636 -10.25361
 Alpha  occ. eigenvalues --  -10.25034 -10.24749 -10.24605 -10.24117 -10.23202
 Alpha  occ. eigenvalues --   -1.19475  -1.14947  -1.14437  -1.12919  -1.10296
 Alpha  occ. eigenvalues --   -1.09404  -1.09134  -1.06560  -1.06264  -1.02448
 Alpha  occ. eigenvalues --   -0.99118  -0.98551  -0.97554  -0.96465  -0.95309
 Alpha  occ. eigenvalues --   -0.93105  -0.89494  -0.87710  -0.87056  -0.86180
 Alpha  occ. eigenvalues --   -0.86083  -0.83913  -0.82136  -0.81990  -0.81408
 Alpha  occ. eigenvalues --   -0.79857  -0.77285  -0.76718  -0.75600  -0.75327
 Alpha  occ. eigenvalues --   -0.74752  -0.73328  -0.72919  -0.70884  -0.70476
 Alpha  occ. eigenvalues --   -0.69130  -0.68598  -0.68157  -0.67441  -0.67024
 Alpha  occ. eigenvalues --   -0.66494  -0.65489  -0.65271  -0.64899  -0.64289
 Alpha  occ. eigenvalues --   -0.63973  -0.63187  -0.62065  -0.61473  -0.60545
 Alpha  occ. eigenvalues --   -0.60032  -0.59602  -0.58350  -0.57965  -0.57785
 Alpha  occ. eigenvalues --   -0.57580  -0.57219  -0.56731  -0.56260  -0.55372
 Alpha  occ. eigenvalues --   -0.55056  -0.54429  -0.53851  -0.53647  -0.53405
 Alpha  occ. eigenvalues --   -0.53232  -0.52903  -0.52870  -0.52163  -0.51810
 Alpha  occ. eigenvalues --   -0.50826  -0.50670  -0.50378  -0.50009  -0.49909
 Alpha  occ. eigenvalues --   -0.49588  -0.49340  -0.49030  -0.48821  -0.48613
 Alpha  occ. eigenvalues --   -0.48539  -0.48361  -0.48000  -0.47792  -0.47226
 Alpha  occ. eigenvalues --   -0.46757  -0.46734  -0.46683  -0.46003  -0.45494
 Alpha  occ. eigenvalues --   -0.44903  -0.44836  -0.44728  -0.44545  -0.44321
 Alpha  occ. eigenvalues --   -0.43788  -0.43652  -0.43136  -0.43050  -0.42639
 Alpha  occ. eigenvalues --   -0.42038  -0.41930  -0.41510  -0.41188  -0.40957
 Alpha  occ. eigenvalues --   -0.40601  -0.40516  -0.40174  -0.39846  -0.39768
 Alpha  occ. eigenvalues --   -0.39522  -0.39448  -0.38993  -0.37053  -0.36457
 Alpha  occ. eigenvalues --   -0.36328  -0.34553  -0.33580  -0.33184  -0.32728
 Alpha  occ. eigenvalues --   -0.32073  -0.31851  -0.31548  -0.31535  -0.31068
 Alpha  occ. eigenvalues --   -0.30206
 Alpha virt. eigenvalues --   -0.12324  -0.10539  -0.08894  -0.07569  -0.07206
 Alpha virt. eigenvalues --   -0.06203  -0.05313  -0.04466  -0.04074  -0.03826
 Alpha virt. eigenvalues --   -0.03696  -0.01147  -0.00489  -0.00385   0.00366

 Mulliken charges:
               1
     1  N   -0.563382
     2  H    0.350026
     3  H    0.341433
     4  H    0.377672
     5  C   -0.089607
     6  H    0.171907
     7  C    0.647412
     8  C   -0.069963
     9  H    0.114307
    10  O   -0.554377
    11  C   -0.208229
    12  H    0.108776
    13  H    0.135904
    14  C   -0.339167
    15  H    0.141591
    16  H    0.152681
    17  H    0.097104
    18  C   -0.332408
    19  H    0.138452
    20  H    0.117890
    21  H    0.124930
    22  N   -0.518377
    23  H    0.309459
    24  C   -0.029138
    25  H    0.152581
    26  C    0.623073
    27  C   -0.249530
    28  H    0.166784
    29  H    0.135144
    30  O   -0.577809
    31  C    0.062243
    32  C   -0.119927
    33  H    0.116788
    34  C   -0.158196
    35  H    0.087543
    36  C   -0.059568
    37  H    0.109783
    38  C   -0.084527
    39  H    0.102536
    40  C   -0.092994
    41  H    0.104464
    42  N   -0.520220
    43  H    0.296484
    44  C   -0.005594
    45  H    0.129747
    46  C    0.614146
    47  C   -0.083932
    48  H    0.120499
    49  O   -0.530989
    50  C   -0.326523
    51  H    0.103336
    52  H    0.113185
    53  H    0.135777
    54  C   -0.313810
    55  H    0.105821
    56  H    0.092327
    57  H    0.118424
    58  N   -0.512158
    59  H    0.286377
    60  C   -0.017981
    61  H    0.121069
    62  C    0.623377
    63  C   -0.211102
    64  H    0.113050
    65  H    0.126289
    66  O   -0.530458
    67  C   -0.266490
    68  H    0.128530
    69  H    0.130289
    70  C    0.558624
    71  N   -0.622082
    72  H    0.332402
    73  H    0.276668
    74  O   -0.537881
    75  N   -0.526559
    76  H    0.265666
    77  C   -0.000662
    78  H    0.155902
    79  C    0.574046
    80  C   -0.185177
    81  H    0.086223
    82  H    0.140285
    83  O   -0.518432
    84  C   -0.199013
    85  H    0.098844
    86  H    0.126598
    87  C   -0.192299
    88  H    0.104492
    89  H    0.116585
    90  C   -0.066086
    91  H    0.127196
    92  H    0.109594
    93  N   -0.656542
    94  H    0.280305
    95  H    0.399231
    96  H    0.269349
    97  O   -0.500040
 Sum of Mulliken charges =   1.00000

 Dipole moment (field-independent basis, Debye):
    X=             -4.1488    Y=              4.1377    Z=            -13.1687  Tot=             14.4134
 Quadrupole moment (field-independent basis, Debye-Ang):
   XX=           -123.9101   YY=           -225.8769   ZZ=           -140.0037
   XY=            -41.1276   XZ=            118.0895   YZ=            -44.0555

 Normal termination of Gaussian 16 at Thu Sep  8 14:38:25 2022.
