 Gaussian 16, Revision C.01,
 Gaussian 16:  ES64L-G16RevC.01  3-Jul-2019

 ----------------------------------------------------------------------
 # B3LYP/6-31G** empiricaldispersion=gd3bj guess=read geom=check nosymm
  integral(ultrafinegrid)
 ----------------------------------------------------------------------

 ------------------------------------------------------
 Candidate Structure: Conf:883 Charge calc in gas phase
 ------------------------------------------------------
 Structure from the checkpoint file:  "conf-883.chk"
 Charge =  1 Multiplicity = 1

                          Input orientation:
 ---------------------------------------------------------------------
 Center     Atomic      Atomic             Coordinates (Angstroms)
 Number     Number       Type             X           Y           Z
 ---------------------------------------------------------------------
      1          7           0       -5.195566   -2.218219   -1.976519
      2          1           0       -5.531339   -3.116282   -2.326992
      3          1           0       -5.858078   -1.854156   -1.290238
      4          1           0       -4.216184   -2.337827   -1.553920
      5          6           0       -4.884706   -1.224798   -3.074455
      6          1           0       -5.359190   -1.564765   -3.995909
      7          6           0       -3.346276   -1.311541   -3.143989
      8          6           0       -5.396523    0.182635   -2.673533
      9          1           0       -6.482319    0.062592   -2.535534
     10          8           0       -2.765994   -1.834360   -2.177670
     11          6           0       -5.188625    1.220119   -3.793637
     12          1           0       -4.117916    1.431150   -3.883562
     13          1           0       -5.641893    2.150094   -3.435505
     14          6           0       -4.760256    0.678523   -1.365814
     15          1           0       -3.692403    0.868521   -1.502352
     16          1           0       -5.236292    1.615623   -1.068001
     17          1           0       -4.882883   -0.016499   -0.526666
     18          6           0       -5.810794    0.859071   -5.145891
     19          1           0       -5.742485    1.705697   -5.833692
     20          1           0       -5.318542    0.015816   -5.645261
     21          1           0       -6.871675    0.606219   -5.042590
     22          7           0       -2.744603   -0.792632   -4.205434
     23          1           0       -3.297116   -0.431690   -4.973073
     24          6           0       -1.306924   -0.533364   -4.231724
     25          1           0       -0.777058   -1.490838   -4.223439
     26          6           0       -0.952991    0.310221   -2.987783
     27          6           0       -0.960000    0.269971   -5.506885
     28          1           0        0.129027    0.270715   -5.607212
     29          1           0       -1.273694    1.305443   -5.343352
     30          8           0       -1.700695    1.226558   -2.636513
     31          6           0       -1.627843   -0.285100   -6.741718
     32          6           0       -2.754067    0.354406   -7.276524
     33          1           0       -3.083501    1.299359   -6.850933
     34          6           0       -1.189930   -1.480707   -7.325573
     35          1           0       -0.313565   -1.984064   -6.925988
     36          6           0       -3.433629   -0.190675   -8.368981
     37          1           0       -4.297539    0.323008   -8.778939
     38          6           0       -1.862868   -2.023270   -8.418089
     39          1           0       -1.506639   -2.944843   -8.867276
     40          6           0       -2.989686   -1.382254   -8.939716
     41          1           0       -3.509727   -1.805193   -9.793010
     42          7           0        0.207402   -0.006744   -2.408063
     43          1           0        0.765705   -0.804504   -2.702885
     44          6           0        0.736039    0.644484   -1.219404
     45          1           0        0.724107    1.729403   -1.371985
     46          6           0        2.180642    0.134672   -1.113618
     47          6           0       -0.123630    0.313575    0.038446
     48          1           0       -1.135281    0.618537   -0.250362
     49          8           0        2.521667   -0.893540   -1.697771
     50          6           0       -0.126325   -1.185446    0.355729
     51          1           0        0.862608   -1.519703    0.680578
     52          1           0       -0.827288   -1.388366    1.171662
     53          1           0       -0.439932   -1.776165   -0.509342
     54          6           0        0.291324    1.140546    1.261629
     55          1           0        1.232938    0.776998    1.682869
     56          1           0        0.376983    2.207723    1.020310
     57          1           0       -0.467633    1.049163    2.044331
     58          7           0        3.029435    0.878553   -0.364532
     59          1           0        2.612105    1.566641    0.246705
     60          6           0        4.291772    0.302814    0.080320
     61          1           0        4.794701   -0.118074   -0.791041
     62          6           0        4.015347   -0.818515    1.101498
     63          6           0        5.143858    1.424054    0.702407
     64          1           0        5.266616    2.208616   -0.052774
     65          1           0        4.579902    1.859148    1.536535
     66          8           0        3.028566   -0.788403    1.838847
     67          6           0        6.520342    1.000626    1.253240
     68          1           0        6.391832    0.273827    2.062623
     69          1           0        6.999365    1.885111    1.684948
     70          6           0        7.416213    0.369236    0.202067
     71          7           0        8.491013    1.095072   -0.189956
     72          1           0        8.722439    1.982388    0.224832
     73          1           0        9.117416    0.694123   -0.872453
     74          8           0        7.183035   -0.739284   -0.292801
     75          7           0        4.952104   -1.785121    1.138322
     76          1           0        5.794503   -1.644105    0.576415
     77          6           0        4.972100   -2.741695    2.223755
     78          1           0        4.025180   -3.286579    2.255720
     79          6           0        5.145677   -2.062102    3.580161
     80          6           0        6.146481   -3.733259    2.004634
     81          1           0        7.001205   -3.163822    1.619153
     82          1           0        5.845469   -4.419631    1.207581
     83          8           0        4.598621   -2.780718    4.551850
     84          6           0        6.591053   -4.522295    3.254602
     85          1           0        5.715275   -4.753648    3.866041
     86          1           0        7.002535   -5.482728    2.928822
     87          6           0        7.664002   -3.789436    4.104800
     88          1           0        7.676709   -2.722142    3.860227
     89          1           0        8.651079   -4.167713    3.818600
     90          6           0        7.528619   -3.927104    5.631041
     91          1           0        7.115344   -4.908123    5.888881
     92          1           0        8.524659   -3.869469    6.090533
     93          7           0        6.628958   -2.896192    6.206419
     94          1           0        7.033308   -1.972220    6.060592
     95          1           0        6.539418   -3.027573    7.211183
     96          1           0        5.220018   -2.722255    5.363551
     97          8           0        5.833104   -1.066028    3.756788
 ---------------------------------------------------------------------

 SCF Done:  E(RB3LYP) =  -2122.67080312     A.U. after    1 cycles

 Alpha  occ. eigenvalues --  -19.26487 -19.20101 -19.19958 -19.18764 -19.18152
 Alpha  occ. eigenvalues --  -19.17158 -19.16165 -14.58793 -14.49146 -14.43877
 Alpha  occ. eigenvalues --  -14.42513 -14.42414 -14.39713 -14.39378 -10.42813
 Alpha  occ. eigenvalues --  -10.39516 -10.37252 -10.35645 -10.35473 -10.34811
 Alpha  occ. eigenvalues --  -10.34004 -10.33087 -10.32805 -10.30152 -10.29307
 Alpha  occ. eigenvalues --  -10.29193 -10.28839 -10.28669 -10.28459 -10.28408
 Alpha  occ. eigenvalues --  -10.27914 -10.27749 -10.27633 -10.27559 -10.27403
 Alpha  occ. eigenvalues --  -10.27325 -10.27130 -10.26184 -10.25464 -10.25112
 Alpha  occ. eigenvalues --  -10.23993 -10.23383 -10.23067 -10.22822 -10.22189
 Alpha  occ. eigenvalues --   -1.19034  -1.12970  -1.12465  -1.11906  -1.10681
 Alpha  occ. eigenvalues --   -1.09765  -1.07818  -1.06004  -1.03741  -1.00616
 Alpha  occ. eigenvalues --   -0.99138  -0.97182  -0.96631  -0.95385  -0.94860
 Alpha  occ. eigenvalues --   -0.94232  -0.89534  -0.87120  -0.86147  -0.85710
 Alpha  occ. eigenvalues --   -0.84649  -0.83928  -0.83142  -0.82426  -0.80275
 Alpha  occ. eigenvalues --   -0.79124  -0.77065  -0.75563  -0.74587  -0.74089
 Alpha  occ. eigenvalues --   -0.73714  -0.73328  -0.73009  -0.71979  -0.69785
 Alpha  occ. eigenvalues --   -0.69251  -0.67775  -0.67710  -0.67381  -0.67131
 Alpha  occ. eigenvalues --   -0.66431  -0.64859  -0.64613  -0.64234  -0.62542
 Alpha  occ. eigenvalues --   -0.61957  -0.61647  -0.61435  -0.61005  -0.60408
 Alpha  occ. eigenvalues --   -0.59895  -0.59558  -0.58547  -0.57574  -0.56021
 Alpha  occ. eigenvalues --   -0.55976  -0.55444  -0.55027  -0.54548  -0.54277
 Alpha  occ. eigenvalues --   -0.54133  -0.54003  -0.53511  -0.53374  -0.52864
 Alpha  occ. eigenvalues --   -0.52459  -0.52295  -0.51866  -0.51470  -0.51323
 Alpha  occ. eigenvalues --   -0.51000  -0.50794  -0.50523  -0.49993  -0.49837
 Alpha  occ. eigenvalues --   -0.49826  -0.48732  -0.48509  -0.48318  -0.48159
 Alpha  occ. eigenvalues --   -0.47755  -0.47417  -0.46947  -0.46721  -0.46420
 Alpha  occ. eigenvalues --   -0.45993  -0.45863  -0.45760  -0.45140  -0.45089
 Alpha  occ. eigenvalues --   -0.44766  -0.44649  -0.44224  -0.44039  -0.43809
 Alpha  occ. eigenvalues --   -0.43317  -0.43002  -0.42598  -0.42498  -0.42395
 Alpha  occ. eigenvalues --   -0.42328  -0.41661  -0.41131  -0.40955  -0.40715
 Alpha  occ. eigenvalues --   -0.39967  -0.39790  -0.39187  -0.39097  -0.38767
 Alpha  occ. eigenvalues --   -0.38186  -0.38124  -0.37492  -0.34271  -0.33923
 Alpha  occ. eigenvalues --   -0.33862  -0.33736  -0.33525  -0.33098  -0.32689
 Alpha  occ. eigenvalues --   -0.32328  -0.32024  -0.31712  -0.31254  -0.29706
 Alpha  occ. eigenvalues --   -0.29060
 Alpha virt. eigenvalues --   -0.11964  -0.10118  -0.09550  -0.09327  -0.06530
 Alpha virt. eigenvalues --   -0.05655  -0.04744  -0.04140  -0.03939  -0.03128
 Alpha virt. eigenvalues --   -0.02134  -0.00801  -0.00007   0.00515   0.00644

 Mulliken charges:
               1
     1  N   -0.556536
     2  H    0.348539
     3  H    0.344074
     4  H    0.375315
     5  C   -0.094639
     6  H    0.165504
     7  C    0.668848
     8  C   -0.076141
     9  H    0.110392
    10  O   -0.547307
    11  C   -0.205910
    12  H    0.142778
    13  H    0.132835
    14  C   -0.363666
    15  H    0.195057
    16  H    0.142211
    17  H    0.080706
    18  C   -0.350319
    19  H    0.139137
    20  H    0.096222
    21  H    0.119325
    22  N   -0.510233
    23  H    0.288463
    24  C    0.006916
    25  H    0.136501
    26  C    0.632626
    27  C   -0.282596
    28  H    0.146499
    29  H    0.140997
    30  O   -0.554964
    31  C    0.096474
    32  C   -0.163616
    33  H    0.098775
    34  C   -0.114923
    35  H    0.097804
    36  C   -0.083420
    37  H    0.104874
    38  C   -0.083278
    39  H    0.110199
    40  C   -0.085866
    41  H    0.109115
    42  N   -0.531850
    43  H    0.290426
    44  C   -0.006824
    45  H    0.128848
    46  C    0.623574
    47  C   -0.049226
    48  H    0.111004
    49  O   -0.545759
    50  C   -0.336570
    51  H    0.151728
    52  H    0.093981
    53  H    0.100014
    54  C   -0.357772
    55  H    0.155507
    56  H    0.087669
    57  H    0.108683
    58  N   -0.526556
    59  H    0.269145
    60  C   -0.023704
    61  H    0.157348
    62  C    0.619193
    63  C   -0.201029
    64  H    0.116397
    65  H    0.121308
    66  O   -0.548278
    67  C   -0.299866
    68  H    0.193124
    69  H    0.097921
    70  C    0.593541
    71  N   -0.595758
    72  H    0.281853
    73  H    0.287906
    74  O   -0.533752
    75  N   -0.540517
    76  H    0.314496
    77  C    0.037527
    78  H    0.136346
    79  C    0.606721
    80  C   -0.222903
    81  H    0.116069
    82  H    0.118757
    83  O   -0.518484
    84  C   -0.204058
    85  H    0.127180
    86  H    0.101982
    87  C   -0.203013
    88  H    0.120990
    89  H    0.106063
    90  C   -0.063094
    91  H    0.120479
    92  H    0.103062
    93  N   -0.651823
    94  H    0.280125
    95  H    0.267602
    96  H    0.368617
    97  O   -0.511122
 Sum of Mulliken charges =   1.00000

 Dipole moment (field-independent basis, Debye):
    X=             -8.5659    Y=             -5.0950    Z=            -10.2040  Tot=             14.2638
 Quadrupole moment (field-independent basis, Debye-Ang):
   XX=            -44.7860   YY=           -228.7904   ZZ=           -161.9555
   XY=             34.6521   XZ=             98.8110   YZ=              3.3160

 Normal termination of Gaussian 16 at Thu Sep  8 14:48:03 2022.
