 Gaussian 16, Revision C.01,
 Gaussian 16:  ES64L-G16RevC.01  3-Jul-2019

 ----------------------------------------------------------------------
 # B3LYP/6-31G** empiricaldispersion=gd3bj guess=read geom=check nosymm
  integral(ultrafinegrid)
 ----------------------------------------------------------------------

 ------------------------------------------------------
 Candidate Structure: Conf:370 Charge calc in gas phase
 ------------------------------------------------------
 Structure from the checkpoint file:  "conf-370.chk"
 Charge =  1 Multiplicity = 1

                          Input orientation:
 ---------------------------------------------------------------------
 Center     Atomic      Atomic             Coordinates (Angstroms)
 Number     Number       Type             X           Y           Z
 ---------------------------------------------------------------------
      1          7           0       -5.070875    2.067877   -3.406852
      2          1           0       -5.634301    2.046643   -4.258000
      3          1           0       -5.267246    2.929932   -2.895546
      4          1           0       -5.285259    1.207670   -2.814328
      5          6           0       -3.590326    1.872430   -3.664010
      6          1           0       -3.404667    2.011982   -4.729961
      7          6           0       -3.393839    0.396094   -3.248980
      8          6           0       -2.773510    2.898972   -2.838064
      9          1           0       -3.141014    3.880748   -3.175170
     10          8           0       -4.288476   -0.137350   -2.577960
     11          6           0       -1.270313    2.851282   -3.169460
     12          1           0       -0.844801    1.917986   -2.788803
     13          1           0       -0.787417    3.644421   -2.591281
     14          6           0       -3.018907    2.756644   -1.329705
     15          1           0       -2.656516    1.793321   -0.966528
     16          1           0       -2.480511    3.548096   -0.803196
     17          1           0       -4.074198    2.854171   -1.045837
     18          6           0       -0.918849    3.055318   -4.644331
     19          1           0        0.152893    3.234854   -4.728953
     20          1           0       -1.155333    2.189706   -5.276699
     21          1           0       -1.443326    3.924212   -5.058757
     22          7           0       -2.287553   -0.210786   -3.679065
     23          1           0       -1.580321    0.338666   -4.155744
     24          6           0       -1.825924   -1.477219   -3.133964
     25          1           0       -2.697680   -2.129672   -3.024380
     26          6           0       -1.286885   -1.235002   -1.702728
     27          6           0       -0.815004   -2.124307   -4.118645
     28          1           0       -1.383279   -2.657674   -4.884366
     29          1           0       -0.228853   -2.882273   -3.588486
     30          8           0       -1.418660   -0.138073   -1.154093
     31          6           0        0.097960   -1.120152   -4.791843
     32          6           0        0.114646   -1.033435   -6.188649
     33          1           0       -0.488783   -1.721986   -6.773686
     34          6           0        0.873663   -0.215537   -4.049087
     35          1           0        0.878150   -0.264836   -2.963605
     36          6           0        0.897629   -0.075704   -6.834749
     37          1           0        0.907561   -0.030512   -7.919080
     38          6           0        1.627361    0.766986   -4.691285
     39          1           0        2.145341    1.525484   -4.115700
     40          6           0        1.644810    0.831563   -6.085993
     41          1           0        2.229612    1.599764   -6.581034
     42          7           0       -0.721402   -2.294657   -1.088398
     43          1           0       -0.581582   -3.155349   -1.596251
     44          6           0       -0.251521   -2.234418    0.303614
     45          1           0       -0.948538   -1.573378    0.829059
     46          6           0        1.150395   -1.576565    0.317626
     47          6           0       -0.252278   -3.611467    0.977640
     48          1           0        0.566954   -4.190958    0.533998
     49          8           0        2.192100   -2.238736    0.426513
     50          6           0        0.034821   -3.436231    2.475975
     51          1           0       -0.799312   -2.928488    2.972283
     52          1           0        0.164616   -4.409572    2.956762
     53          1           0        0.934756   -2.841642    2.649065
     54          6           0       -1.578356   -4.354491    0.775776
     55          1           0       -2.418860   -3.766194    1.159890
     56          1           0       -1.784784   -4.581763   -0.274176
     57          1           0       -1.561918   -5.304679    1.316273
     58          7           0        1.104190   -0.249560    0.124245
     59          1           0        0.187251    0.165522   -0.006547
     60          6           0        2.272493    0.605869    0.052988
     61          1           0        3.067231    0.007265   -0.411228
     62          6           0        2.793988    0.914923    1.480200
     63          6           0        1.982043    1.840089   -0.819751
     64          1           0        1.194980    1.593057   -1.537152
     65          1           0        1.587946    2.645791   -0.189903
     66          8           0        2.522305    0.112068    2.405089
     67          6           0        3.195811    2.356356   -1.614405
     68          1           0        3.459930    1.629334   -2.388486
     69          1           0        4.070704    2.504842   -0.981625
     70          6           0        2.808288    3.667155   -2.288427
     71          7           0        3.332248    4.770166   -1.728027
     72          1           0        3.875577    4.731773   -0.856372
     73          1           0        3.052696    5.663788   -2.105504
     74          8           0        2.023779    3.673773   -3.248046
     75          7           0        3.603428    1.960240    1.531076
     76          1           0        3.640081    2.683090    0.778766
     77          6           0        4.519983    2.515283    2.535319
     78          1           0        4.004575    2.647816    3.491302
     79          6           0        4.923739    3.922334    1.935612
     80          6           0        5.797367    1.648352    2.750723
     81          1           0        6.276250    1.985636    3.672647
     82          1           0        6.506754    1.820157    1.933452
     83          8           0        5.655038    4.624124    2.625003
     84          6           0        5.342484    0.196268    2.777641
     85          1           0        4.523441    0.144287    3.497373
     86          1           0        4.894935    0.058619    1.790475
     87          6           0        6.208992   -1.046903    2.971908
     88          1           0        6.400448   -1.261649    4.028703
     89          1           0        7.183921   -0.969145    2.478569
     90          6           0        5.457017   -2.208757    2.291880
     91          1           0        5.525658   -2.103315    1.207084
     92          1           0        5.834389   -3.195496    2.567657
     93          7           0        3.964105   -2.202420    2.584724
     94          1           0        3.426529   -2.702672    1.859615
     95          1           0        3.514561   -1.237733    2.548506
     96          1           0        3.756254   -2.600981    3.501170
     97          8           0        4.450167    4.117388    0.756628
 ---------------------------------------------------------------------

 SCF Done:  E(RB3LYP) =  -2122.62306793     A.U. after    3 cycles

 Alpha  occ. eigenvalues --  -19.27121 -19.24364 -19.22053 -19.19247 -19.16642
 Alpha  occ. eigenvalues --  -19.12508 -19.10378 -14.59335 -14.53068 -14.49895
 Alpha  occ. eigenvalues --  -14.48542 -14.45277 -14.41171 -14.39497 -10.43671
 Alpha  occ. eigenvalues --  -10.41229 -10.39750 -10.38837 -10.36410 -10.36221
 Alpha  occ. eigenvalues --  -10.34607 -10.34102 -10.33707 -10.32936 -10.31812
 Alpha  occ. eigenvalues --  -10.31423 -10.29616 -10.29616 -10.29345 -10.28798
 Alpha  occ. eigenvalues --  -10.28370 -10.28289 -10.28230 -10.28215 -10.27828
 Alpha  occ. eigenvalues --  -10.27522 -10.27388 -10.27154 -10.27015 -10.26858
 Alpha  occ. eigenvalues --  -10.26564 -10.26440 -10.25627 -10.25375 -10.24153
 Alpha  occ. eigenvalues --   -1.19633  -1.16302  -1.13480  -1.13354  -1.10408
 Alpha  occ. eigenvalues --   -1.07901  -1.07871  -1.07076  -1.05001  -1.04759
 Alpha  occ. eigenvalues --   -1.02109  -0.98788  -0.96051  -0.95377  -0.94666
 Alpha  occ. eigenvalues --   -0.94327  -0.91538  -0.89775  -0.89029  -0.87727
 Alpha  occ. eigenvalues --   -0.86100  -0.84136  -0.83464  -0.83312  -0.83131
 Alpha  occ. eigenvalues --   -0.81854  -0.79133  -0.78023  -0.77049  -0.76707
 Alpha  occ. eigenvalues --   -0.75082  -0.73848  -0.73170  -0.72530  -0.72368
 Alpha  occ. eigenvalues --   -0.71395  -0.70405  -0.69712  -0.68865  -0.68152
 Alpha  occ. eigenvalues --   -0.68030  -0.67649  -0.67022  -0.66562  -0.65050
 Alpha  occ. eigenvalues --   -0.63717  -0.63198  -0.62861  -0.62522  -0.62180
 Alpha  occ. eigenvalues --   -0.61558  -0.60953  -0.59990  -0.59513  -0.59261
 Alpha  occ. eigenvalues --   -0.58570  -0.58410  -0.58001  -0.57263  -0.56544
 Alpha  occ. eigenvalues --   -0.55784  -0.54868  -0.54810  -0.54634  -0.54442
 Alpha  occ. eigenvalues --   -0.53982  -0.53865  -0.53481  -0.53201  -0.52844
 Alpha  occ. eigenvalues --   -0.52239  -0.51859  -0.51521  -0.51423  -0.51186
 Alpha  occ. eigenvalues --   -0.50783  -0.50655  -0.50249  -0.49917  -0.49847
 Alpha  occ. eigenvalues --   -0.49201  -0.48882  -0.48694  -0.48408  -0.48241
 Alpha  occ. eigenvalues --   -0.48198  -0.47910  -0.47384  -0.46772  -0.46682
 Alpha  occ. eigenvalues --   -0.46213  -0.45806  -0.45002  -0.44512  -0.44430
 Alpha  occ. eigenvalues --   -0.44154  -0.43770  -0.43596  -0.43431  -0.43216
 Alpha  occ. eigenvalues --   -0.43035  -0.42940  -0.42718  -0.42589  -0.42168
 Alpha  occ. eigenvalues --   -0.41942  -0.41475  -0.41210  -0.40946  -0.40370
 Alpha  occ. eigenvalues --   -0.40257  -0.39395  -0.39065  -0.38386  -0.37766
 Alpha  occ. eigenvalues --   -0.35764  -0.35051  -0.34160  -0.33760  -0.32870
 Alpha  occ. eigenvalues --   -0.32385  -0.31503  -0.30522  -0.27763  -0.27087
 Alpha  occ. eigenvalues --   -0.24449
 Alpha virt. eigenvalues --   -0.12637  -0.11089  -0.10515  -0.09416  -0.09177
 Alpha virt. eigenvalues --   -0.08369  -0.06441  -0.06074  -0.04984  -0.04403
 Alpha virt. eigenvalues --   -0.03684  -0.02671  -0.01633  -0.00291  -0.00255

 Mulliken charges:
               1
     1  N   -0.554686
     2  H    0.349888
     3  H    0.345742
     4  H    0.370497
     5  C   -0.095649
     6  H    0.171542
     7  C    0.666752
     8  C   -0.076798
     9  H    0.112466
    10  O   -0.546009
    11  C   -0.201020
    12  H    0.121055
    13  H    0.144934
    14  C   -0.358472
    15  H    0.175121
    16  H    0.145814
    17  H    0.079252
    18  C   -0.355820
    19  H    0.187036
    20  H    0.083217
    21  H    0.102210
    22  N   -0.509798
    23  H    0.306411
    24  C   -0.048907
    25  H    0.173928
    26  C    0.649253
    27  C   -0.256604
    28  H    0.134307
    29  H    0.124393
    30  O   -0.548168
    31  C    0.060674
    32  C   -0.124408
    33  H    0.095132
    34  C   -0.160669
    35  H    0.089499
    36  C   -0.081450
    37  H    0.109418
    38  C   -0.077266
    39  H    0.139113
    40  C   -0.092541
    41  H    0.116732
    42  N   -0.532446
    43  H    0.277696
    44  C   -0.000242
    45  H    0.142696
    46  C    0.638476
    47  C   -0.088386
    48  H    0.111905
    49  O   -0.594200
    50  C   -0.321815
    51  H    0.121318
    52  H    0.118769
    53  H    0.096519
    54  C   -0.315402
    55  H    0.117181
    56  H    0.089710
    57  H    0.127050
    58  N   -0.515092
    59  H    0.299064
    60  C   -0.000103
    61  H    0.140403
    62  C    0.594705
    63  C   -0.239940
    64  H    0.118554
    65  H    0.132974
    66  O   -0.601274
    67  C   -0.268326
    68  H    0.110839
    69  H    0.141372
    70  C    0.558842
    71  N   -0.601626
    72  H    0.336559
    73  H    0.269273
    74  O   -0.554047
    75  N   -0.525859
    76  H    0.332066
    77  C   -0.044078
    78  H    0.128320
    79  C    0.593895
    80  C   -0.176653
    81  H    0.134870
    82  H    0.111293
    83  O   -0.534950
    84  C   -0.212263
    85  H    0.121558
    86  H    0.091487
    87  C   -0.191330
    88  H    0.123412
    89  H    0.137412
    90  C   -0.116513
    91  H    0.167425
    92  H    0.146741
    93  N   -0.589740
    94  H    0.358185
    95  H    0.387170
    96  H    0.323859
    97  O   -0.643432
 Sum of Mulliken charges =   1.00000

 Dipole moment (field-independent basis, Debye):
    X=            -13.2795    Y=             -9.3514    Z=            -12.2938  Tot=             20.3698
 Quadrupole moment (field-independent basis, Debye-Ang):
   XX=           -189.7351   YY=           -253.0791   ZZ=           -189.2289
   XY=            -99.0398   XZ=             63.9865   YZ=            -52.7709

 Normal termination of Gaussian 16 at Thu Sep  8 14:42:09 2022.
