 Gaussian 16, Revision C.01,
 Gaussian 16:  ES64L-G16RevC.01  3-Jul-2019

 ----------------------------------------------------------------------
 # B3LYP/6-31G** empiricaldispersion=gd3bj guess=read geom=check nosymm
  integral(ultrafinegrid)
 ----------------------------------------------------------------------

 ------------------------------------------------------
 Candidate Structure: Conf:224 Charge calc in gas phase
 ------------------------------------------------------
 Structure from the checkpoint file:  "conf-224.chk"
 Charge =  1 Multiplicity = 1

                          Input orientation:
 ---------------------------------------------------------------------
 Center     Atomic      Atomic             Coordinates (Angstroms)
 Number     Number       Type             X           Y           Z
 ---------------------------------------------------------------------
      1          7           0       -2.196972   -0.491045   -6.547768
      2          1           0       -1.307324   -1.001058   -6.677403
      3          1           0       -2.313466    0.213416   -7.276109
      4          1           0       -2.960064   -1.205915   -6.551502
      5          6           0       -2.286437    0.078663   -5.149090
      6          1           0       -1.296310    0.414147   -4.836033
      7          6           0       -2.726393   -1.166462   -4.362207
      8          6           0       -3.308361    1.229551   -5.092896
      9          1           0       -4.243292    0.863096   -5.542515
     10          8           0       -3.467122   -1.977088   -4.941227
     11          6           0       -2.800891    2.442922   -5.897223
     12          1           0       -2.493321    2.136268   -6.909809
     13          1           0       -1.892565    2.824018   -5.413797
     14          6           0       -3.583444    1.595221   -3.626911
     15          1           0       -2.656050    1.903106   -3.137263
     16          1           0       -4.301035    2.414768   -3.566663
     17          1           0       -3.988444    0.752957   -3.062565
     18          6           0       -3.829686    3.565952   -6.047795
     19          1           0       -3.439933    4.361502   -6.688139
     20          1           0       -4.756467    3.195377   -6.498493
     21          1           0       -4.081426    4.014673   -5.084043
     22          7           0       -2.222583   -1.297447   -3.139825
     23          1           0       -1.563323   -0.581159   -2.814361
     24          6           0       -2.272572   -2.574035   -2.448357
     25          1           0       -3.154173   -3.103962   -2.819236
     26          6           0       -2.444160   -2.258793   -0.951119
     27          6           0       -0.983491   -3.399215   -2.770924
     28          1           0       -1.182061   -4.454962   -2.554096
     29          1           0       -0.189189   -3.052493   -2.104581
     30          8           0       -2.945293   -1.199512   -0.598024
     31          6           0       -0.538795   -3.243431   -4.206563
     32          6           0       -1.028679   -4.074026   -5.221507
     33          1           0       -1.711558   -4.879461   -4.968234
     34          6           0        0.325782   -2.195746   -4.553142
     35          1           0        0.686096   -1.521201   -3.782768
     36          6           0       -0.666300   -3.870786   -6.552444
     37          1           0       -1.050473   -4.530936   -7.323538
     38          6           0        0.693229   -1.985964   -5.885472
     39          1           0        1.383310   -1.184074   -6.132846
     40          6           0        0.198655   -2.825106   -6.892231
     41          1           0        0.507226   -2.684359   -7.924188
     42          7           0       -1.946898   -3.164338   -0.047068
     43          1           0       -1.353652   -3.879394   -0.443670
     44          6           0       -1.386149   -2.568402    1.172781
     45          1           0       -2.200255   -2.061990    1.696666
     46          6           0       -0.363865   -1.513323    0.694321
     47          6           0       -0.769676   -3.630846    2.104747
     48          1           0       -0.324384   -3.063424    2.933013
     49          8           0        0.315842   -1.722531   -0.315097
     50          6           0       -1.858787   -4.545829    2.676501
     51          1           0       -2.361227   -5.098981    1.877075
     52          1           0       -1.426846   -5.272707    3.370640
     53          1           0       -2.620432   -3.972812    3.214439
     54          6           0        0.351845   -4.440707    1.437940
     55          1           0       -0.043106   -5.125959    0.677801
     56          1           0        1.092493   -3.796296    0.959931
     57          1           0        0.856595   -5.062431    2.182594
     58          7           0       -0.292488   -0.349299    1.378019
     59          1           0       -0.949889   -0.149027    2.120554
     60          6           0        0.247990    0.813153    0.685118
     61          1           0        1.035908    0.442396    0.028440
     62          6           0        0.790164    1.838431    1.673768
     63          6           0       -0.878175    1.473294   -0.157067
     64          1           0       -1.471558    0.679275   -0.613595
     65          1           0       -1.539597    2.013808    0.528045
     66          8           0        0.204691    2.059910    2.739427
     67          6           0       -0.376242    2.424621   -1.248640
     68          1           0        0.283963    3.198245   -0.851813
     69          1           0       -1.240003    2.929103   -1.696440
     70          6           0        0.329184    1.674656   -2.367339
     71          7           0        1.574504    2.072107   -2.632077
     72          1           0        2.043008    2.804906   -2.066994
     73          1           0        2.080270    1.588953   -3.360627
     74          8           0       -0.238534    0.751813   -2.997244
     75          7           0        1.868402    2.503853    1.215135
     76          1           0        2.177402    2.324558    0.255383
     77          6           0        2.189621    3.894767    1.510779
     78          1           0        1.260737    4.428006    1.753939
     79          6           0        2.761542    4.527175    0.178861
     80          6           0        3.174521    4.082897    2.660868
     81          1           0        3.527617    5.117280    2.598270
     82          1           0        4.040070    3.427707    2.497749
     83          8           0        3.207299    5.671817    0.274956
     84          6           0        2.552719    3.801793    4.029234
     85          1           0        1.697968    4.473319    4.180556
     86          1           0        2.142443    2.787420    4.059299
     87          6           0        3.565127    4.007547    5.164174
     88          1           0        3.966963    5.029119    5.116214
     89          1           0        4.410211    3.317422    5.035579
     90          6           0        2.910157    3.774517    6.511646
     91          1           0        2.085398    4.464874    6.699612
     92          1           0        2.552302    2.750151    6.632702
     93          7           0        3.919340    4.008174    7.644427
     94          1           0        3.511585    3.863237    8.573479
     95          1           0        4.284072    4.965575    7.601547
     96          1           0        4.719786    3.375416    7.544395
     97          8           0        2.691422    3.761782   -0.840319
 ---------------------------------------------------------------------

 SCF Done:  E(RB3LYP) =  -2122.62094480     A.U. after    2 cycles

 Alpha  occ. eigenvalues --  -19.21191 -19.19009 -19.18165 -19.17894 -19.16104
 Alpha  occ. eigenvalues --  -19.11316 -19.09673 -14.63237 -14.54367 -14.43878
 Alpha  occ. eigenvalues --  -14.42234 -14.41944 -14.40212 -14.38667 -10.39650
 Alpha  occ. eigenvalues --  -10.37772 -10.35889 -10.34893 -10.34756 -10.33927
 Alpha  occ. eigenvalues --  -10.32820 -10.31430 -10.31168 -10.29594 -10.29174
 Alpha  occ. eigenvalues --  -10.28799 -10.28068 -10.27583 -10.27533 -10.27448
 Alpha  occ. eigenvalues --  -10.27373 -10.27074 -10.26783 -10.26629 -10.26523
 Alpha  occ. eigenvalues --  -10.26438 -10.26361 -10.25093 -10.25045 -10.24881
 Alpha  occ. eigenvalues --  -10.24413 -10.24183 -10.23778 -10.23563 -10.23312
 Alpha  occ. eigenvalues --   -1.17110  -1.13799  -1.11424  -1.09611  -1.08856
 Alpha  occ. eigenvalues --   -1.08486  -1.07491  -1.03892  -1.01371  -0.99263
 Alpha  occ. eigenvalues --   -0.98344  -0.96634  -0.95618  -0.94623  -0.93651
 Alpha  occ. eigenvalues --   -0.92853  -0.90776  -0.87665  -0.86241  -0.85218
 Alpha  occ. eigenvalues --   -0.84290  -0.83651  -0.82381  -0.81274  -0.79597
 Alpha  occ. eigenvalues --   -0.78559  -0.77994  -0.76035  -0.75609  -0.75018
 Alpha  occ. eigenvalues --   -0.74703  -0.74060  -0.72533  -0.71083  -0.68895
 Alpha  occ. eigenvalues --   -0.68761  -0.68072  -0.68019  -0.66856  -0.66610
 Alpha  occ. eigenvalues --   -0.66195  -0.65377  -0.64831  -0.64422  -0.63971
 Alpha  occ. eigenvalues --   -0.63657  -0.62509  -0.61443  -0.60958  -0.60273
 Alpha  occ. eigenvalues --   -0.59404  -0.58829  -0.58564  -0.58210  -0.56175
 Alpha  occ. eigenvalues --   -0.55934  -0.55209  -0.54798  -0.54372  -0.53824
 Alpha  occ. eigenvalues --   -0.53788  -0.53357  -0.53218  -0.52939  -0.52577
 Alpha  occ. eigenvalues --   -0.52177  -0.51933  -0.51307  -0.50747  -0.50462
 Alpha  occ. eigenvalues --   -0.50291  -0.49743  -0.49393  -0.49169  -0.48850
 Alpha  occ. eigenvalues --   -0.48504  -0.48208  -0.47998  -0.47754  -0.47112
 Alpha  occ. eigenvalues --   -0.46921  -0.46707  -0.46408  -0.45902  -0.45760
 Alpha  occ. eigenvalues --   -0.45169  -0.45098  -0.44911  -0.44487  -0.44311
 Alpha  occ. eigenvalues --   -0.44043  -0.43831  -0.43748  -0.43204  -0.42564
 Alpha  occ. eigenvalues --   -0.42074  -0.41853  -0.41610  -0.41350  -0.41249
 Alpha  occ. eigenvalues --   -0.41204  -0.41093  -0.40950  -0.40562  -0.40404
 Alpha  occ. eigenvalues --   -0.40009  -0.39767  -0.39599  -0.39452  -0.38936
 Alpha  occ. eigenvalues --   -0.37399  -0.35827  -0.34797  -0.33700  -0.33116
 Alpha  occ. eigenvalues --   -0.32755  -0.32542  -0.32362  -0.32161  -0.31922
 Alpha  occ. eigenvalues --   -0.30641  -0.30222  -0.29388  -0.26291  -0.26138
 Alpha  occ. eigenvalues --   -0.23799
 Alpha virt. eigenvalues --   -0.13779  -0.09153  -0.08581  -0.07352  -0.07057
 Alpha virt. eigenvalues --   -0.06918  -0.06437  -0.04888  -0.04198  -0.04169
 Alpha virt. eigenvalues --   -0.03688  -0.02629  -0.00727   0.00309   0.00792

 Mulliken charges:
               1
     1  N   -0.553566
     2  H    0.337306
     3  H    0.324414
     4  H    0.349192
     5  C   -0.080688
     6  H    0.184128
     7  C    0.618406
     8  C   -0.061702
     9  H    0.106624
    10  O   -0.569148
    11  C   -0.188310
    12  H    0.063547
    13  H    0.126431
    14  C   -0.348064
    15  H    0.133798
    16  H    0.122781
    17  H    0.146607
    18  C   -0.325187
    19  H    0.123673
    20  H    0.114098
    21  H    0.127931
    22  N   -0.504559
    23  H    0.337604
    24  C   -0.015558
    25  H    0.168942
    26  C    0.602412
    27  C   -0.290499
    28  H    0.112934
    29  H    0.168801
    30  O   -0.510157
    31  C    0.095042
    32  C   -0.087608
    33  H    0.101377
    34  C   -0.116624
    35  H    0.132390
    36  C   -0.088230
    37  H    0.108960
    38  C   -0.145461
    39  H    0.104692
    40  C   -0.138934
    41  H    0.105774
    42  N   -0.520059
    43  H    0.272919
    44  C   -0.003248
    45  H    0.126472
    46  C    0.614992
    47  C   -0.080856
    48  H    0.102585
    49  O   -0.554274
    50  C   -0.307512
    51  H    0.116411
    52  H    0.110847
    53  H    0.107667
    54  C   -0.334419
    55  H    0.095828
    56  H    0.135904
    57  H    0.114207
    58  N   -0.517904
    59  H    0.273588
    60  C   -0.030389
    61  H    0.142960
    62  C    0.586012
    63  C   -0.194175
    64  H    0.147141
    65  H    0.113592
    66  O   -0.573044
    67  C   -0.273926
    68  H    0.137320
    69  H    0.122858
    70  C    0.574881
    71  N   -0.603054
    72  H    0.363087
    73  H    0.261069
    74  O   -0.588575
    75  N   -0.508714
    76  H    0.269941
    77  C   -0.044772
    78  H    0.109805
    79  C    0.588789
    80  C   -0.166060
    81  H    0.131498
    82  H    0.091208
    83  O   -0.551654
    84  C   -0.185883
    85  H    0.110330
    86  H    0.137750
    87  C   -0.212468
    88  H    0.124454
    89  H    0.121432
    90  C   -0.131251
    91  H    0.187632
    92  H    0.188479
    93  N   -0.545020
    94  H    0.362931
    95  H    0.364281
    96  H    0.363022
    97  O   -0.638208
 Sum of Mulliken charges =   1.00000

 Dipole moment (field-independent basis, Debye):
    X=              5.3306    Y=              3.5024    Z=             13.0970  Tot=             14.5676
 Quadrupole moment (field-independent basis, Debye-Ang):
   XX=           -218.6532   YY=           -233.4799   ZZ=             93.6015
   XY=             26.2299   XZ=            150.5033   YZ=            118.1351

 Normal termination of Gaussian 16 at Thu Sep  8 14:41:02 2022.
