 Gaussian 16, Revision C.01,
 Gaussian 16:  ES64L-G16RevC.01  3-Jul-2019

 ----------------------------------------------------------------------
 # B3LYP/6-31G** empiricaldispersion=gd3bj guess=read geom=check nosymm
  integral(ultrafinegrid)
 ----------------------------------------------------------------------

 ------------------------------------------------------
 Candidate Structure: Conf:797 Charge calc in gas phase
 ------------------------------------------------------
 Structure from the checkpoint file:  "conf-797.chk"
 Charge =  1 Multiplicity = 1

                          Input orientation:
 ---------------------------------------------------------------------
 Center     Atomic      Atomic             Coordinates (Angstroms)
 Number     Number       Type             X           Y           Z
 ---------------------------------------------------------------------
      1          7           0       -3.544058   -0.560987   -5.739198
      2          1           0       -2.735086   -1.105197   -6.082817
      3          1           0       -3.852944    0.108923   -6.443828
      4          1           0       -4.286491   -1.255788   -5.494664
      5          6           0       -3.228969    0.073437   -4.400872
      6          1           0       -2.183314    0.384090   -4.402618
      7          6           0       -3.445895   -1.127759   -3.461592
      8          6           0       -4.173627    1.264588   -4.130050
      9          1           0       -4.064309    1.941360   -4.992652
     10          8           0       -4.335772   -1.938944   -3.768760
     11          6           0       -3.709741    2.041955   -2.879069
     12          1           0       -3.492421    1.335581   -2.069284
     13          1           0       -4.556163    2.644941   -2.533403
     14          6           0       -5.647709    0.850560   -4.023460
     15          1           0       -5.823016    0.225843   -3.144674
     16          1           0       -6.268781    1.745387   -3.936886
     17          1           0       -6.004007    0.291656   -4.895646
     18          6           0       -2.508777    2.956009   -3.130910
     19          1           0       -2.202044    3.453876   -2.207142
     20          1           0       -1.643927    2.399594   -3.496879
     21          1           0       -2.757768    3.734372   -3.860512
     22          7           0       -2.622533   -1.218887   -2.423870
     23          1           0       -1.821445   -0.563958   -2.385124
     24          6           0       -2.508269   -2.461637   -1.686823
     25          1           0       -3.471215   -2.974487   -1.753745
     26          6           0       -2.190045   -2.114735   -0.224391
     27          6           0       -1.394057   -3.362952   -2.323110
     28          1           0       -1.537403   -4.392026   -1.977213
     29          1           0       -0.418371   -3.037322   -1.950830
     30          8           0       -2.207643   -0.955442    0.171418
     31          6           0       -1.416044   -3.331149   -3.834149
     32          6           0       -2.248032   -4.189442   -4.563912
     33          1           0       -2.853747   -4.920454   -4.036700
     34          6           0       -0.655388   -2.382383   -4.529047
     35          1           0       -0.030898   -1.687524   -3.978123
     36          6           0       -2.324491   -4.106296   -5.953002
     37          1           0       -2.970620   -4.785621   -6.499709
     38          6           0       -0.725947   -2.293681   -5.923462
     39          1           0       -0.104984   -1.571759   -6.446833
     40          6           0       -1.561945   -3.157343   -6.641762
     41          1           0       -1.596962   -3.110823   -7.726415
     42          7           0       -1.854454   -3.166302    0.580791
     43          1           0       -1.597658   -4.023629    0.108594
     44          6           0       -1.017596   -2.889573    1.756350
     45          1           0       -1.497103   -2.082205    2.315137
     46          6           0        0.344627   -2.438687    1.195809
     47          6           0       -0.882032   -4.139341    2.638477
     48          1           0       -0.418695   -4.916673    2.014841
     49          8           0        0.932180   -3.149141    0.375123
     50          6           0        0.057566   -3.857105    3.816779
     51          1           0       -0.337433   -3.050022    4.445001
     52          1           0        0.159806   -4.746921    4.444147
     53          1           0        1.056401   -3.566548    3.479862
     54          6           0       -2.250062   -4.627975    3.124443
     55          1           0       -2.723502   -3.875797    3.765753
     56          1           0       -2.929198   -4.828390    2.291970
     57          1           0       -2.144185   -5.546730    3.708795
     58          7           0        0.786201   -1.233782    1.599193
     59          1           0        0.261237   -0.664459    2.253859
     60          6           0        1.910461   -0.553897    0.982613
     61          1           0        2.810503   -1.173344    1.077257
     62          6           0        2.099538    0.766169    1.756912
     63          6           0        1.667065   -0.282313   -0.520445
     64          1           0        2.589686    0.087145   -0.976066
     65          1           0        1.436363   -1.238324   -0.995091
     66          8           0        1.382928    1.041226    2.723856
     67          6           0        0.540237    0.736221   -0.768925
     68          1           0        0.780093    1.674500   -0.264856
     69          1           0       -0.409211    0.358613   -0.386293
     70          6           0        0.387945    1.012278   -2.249553
     71          7           0        1.211381    1.922577   -2.765032
     72          1           0        1.947050    2.387704   -2.183251
     73          1           0        1.163848    2.088778   -3.759901
     74          8           0       -0.456960    0.393486   -2.947273
     75          7           0        3.045584    1.592587    1.255900
     76          1           0        3.359658    1.396119    0.301866
     77          6           0        2.889859    3.045704    1.350557
     78          1           0        1.879923    3.254157    1.723136
     79          6           0        2.979383    3.640642   -0.102088
     80          6           0        3.893696    3.704865    2.289017
     81          1           0        3.773736    4.786372    2.170031
     82          1           0        4.912706    3.451125    1.968631
     83          8           0        3.072730    2.753900   -1.021629
     84          6           0        3.684272    3.280652    3.742556
     85          1           0        2.654160    3.504840    4.044499
     86          1           0        3.797165    2.193844    3.828268
     87          6           0        4.665239    3.983922    4.690596
     88          1           0        4.548231    5.072027    4.594969
     89          1           0        5.696644    3.739560    4.401961
     90          6           0        4.418757    3.564525    6.127267
     91          1           0        3.416487    3.826345    6.472387
     92          1           0        4.583101    2.496985    6.286959
     93          7           0        5.390267    4.287297    7.069766
     94          1           0        5.251428    4.030412    8.052277
     95          1           0        5.276406    5.303020    6.986635
     96          1           0        6.360111    4.070400    6.817340
     97          8           0        2.934587    4.868689   -0.190259
 ---------------------------------------------------------------------

 SCF Done:  E(RB3LYP) =  -2122.63347501     A.U. after    2 cycles

 Alpha  occ. eigenvalues --  -19.20912 -19.18746 -19.17881 -19.17197 -19.16606
 Alpha  occ. eigenvalues --  -19.11663 -19.10223 -14.63583 -14.54437 -14.43309
 Alpha  occ. eigenvalues --  -14.42285 -14.41052 -14.39254 -14.38958 -10.40075
 Alpha  occ. eigenvalues --  -10.37568 -10.35616 -10.34321 -10.34025 -10.33669
 Alpha  occ. eigenvalues --  -10.33629 -10.31947 -10.30948 -10.29103 -10.28998
 Alpha  occ. eigenvalues --  -10.28680 -10.28668 -10.27383 -10.27241 -10.27153
 Alpha  occ. eigenvalues --  -10.27134 -10.26931 -10.26814 -10.26602 -10.26284
 Alpha  occ. eigenvalues --  -10.25646 -10.25275 -10.25261 -10.25254 -10.24155
 Alpha  occ. eigenvalues --  -10.23913 -10.23339 -10.23202 -10.23095 -10.22801
 Alpha  occ. eigenvalues --   -1.17458  -1.13575  -1.10857  -1.09031  -1.08476
 Alpha  occ. eigenvalues --   -1.08389  -1.08145  -1.04284  -1.01022  -0.99028
 Alpha  occ. eigenvalues --   -0.97671  -0.97017  -0.95446  -0.94485  -0.93449
 Alpha  occ. eigenvalues --   -0.93317  -0.90260  -0.87298  -0.85923  -0.85462
 Alpha  occ. eigenvalues --   -0.84184  -0.82666  -0.82157  -0.80601  -0.79661
 Alpha  occ. eigenvalues --   -0.79137  -0.78088  -0.76083  -0.75948  -0.75043
 Alpha  occ. eigenvalues --   -0.73989  -0.73316  -0.71267  -0.71110  -0.69188
 Alpha  occ. eigenvalues --   -0.68953  -0.68455  -0.67402  -0.67064  -0.66493
 Alpha  occ. eigenvalues --   -0.66025  -0.64950  -0.64221  -0.63923  -0.63386
 Alpha  occ. eigenvalues --   -0.63250  -0.62307  -0.60967  -0.60737  -0.60555
 Alpha  occ. eigenvalues --   -0.59381  -0.58681  -0.58084  -0.57339  -0.56366
 Alpha  occ. eigenvalues --   -0.55808  -0.55270  -0.54515  -0.54438  -0.53950
 Alpha  occ. eigenvalues --   -0.53692  -0.53421  -0.53194  -0.52425  -0.52144
 Alpha  occ. eigenvalues --   -0.51443  -0.51374  -0.50735  -0.50549  -0.50203
 Alpha  occ. eigenvalues --   -0.49723  -0.49555  -0.49359  -0.48972  -0.48841
 Alpha  occ. eigenvalues --   -0.48277  -0.48009  -0.47611  -0.47244  -0.47238
 Alpha  occ. eigenvalues --   -0.46746  -0.46380  -0.46291  -0.45487  -0.45301
 Alpha  occ. eigenvalues --   -0.45088  -0.44953  -0.44670  -0.44120  -0.43995
 Alpha  occ. eigenvalues --   -0.43872  -0.43643  -0.43485  -0.43098  -0.42712
 Alpha  occ. eigenvalues --   -0.42245  -0.41660  -0.41598  -0.41062  -0.40997
 Alpha  occ. eigenvalues --   -0.40910  -0.40517  -0.40245  -0.39881  -0.39707
 Alpha  occ. eigenvalues --   -0.39682  -0.39467  -0.39333  -0.38859  -0.38400
 Alpha  occ. eigenvalues --   -0.37510  -0.35668  -0.34521  -0.33548  -0.32952
 Alpha  occ. eigenvalues --   -0.32542  -0.31984  -0.31955  -0.31647  -0.31592
 Alpha  occ. eigenvalues --   -0.30775  -0.30432  -0.29602  -0.26943  -0.26474
 Alpha  occ. eigenvalues --   -0.24138
 Alpha virt. eigenvalues --   -0.14080  -0.08982  -0.08432  -0.07351  -0.07233
 Alpha virt. eigenvalues --   -0.07217  -0.05324  -0.04936  -0.04617  -0.04245
 Alpha virt. eigenvalues --   -0.02785  -0.02508  -0.01163   0.00375   0.00716

 Mulliken charges:
               1
     1  N   -0.552392
     2  H    0.337452
     3  H    0.327683
     4  H    0.352881
     5  C   -0.087636
     6  H    0.182850
     7  C    0.642267
     8  C   -0.068413
     9  H    0.094544
    10  O   -0.573314
    11  C   -0.189431
    12  H    0.130729
    13  H    0.112347
    14  C   -0.329144
    15  H    0.145505
    16  H    0.128889
    17  H    0.084896
    18  C   -0.337592
    19  H    0.126241
    20  H    0.120688
    21  H    0.102718
    22  N   -0.510143
    23  H    0.332934
    24  C   -0.038356
    25  H    0.164804
    26  C    0.609410
    27  C   -0.274539
    28  H    0.116577
    29  H    0.157937
    30  O   -0.512649
    31  C    0.099870
    32  C   -0.083712
    33  H    0.100024
    34  C   -0.114022
    35  H    0.128530
    36  C   -0.087794
    37  H    0.108198
    38  C   -0.155972
    39  H    0.107189
    40  C   -0.129555
    41  H    0.104931
    42  N   -0.523774
    43  H    0.272654
    44  C    0.013254
    45  H    0.122424
    46  C    0.606909
    47  C   -0.080862
    48  H    0.106306
    49  O   -0.564865
    50  C   -0.324428
    51  H    0.102703
    52  H    0.112960
    53  H    0.118582
    54  C   -0.310266
    55  H    0.107158
    56  H    0.109220
    57  H    0.110632
    58  N   -0.522840
    59  H    0.286950
    60  C    0.005922
    61  H    0.138410
    62  C    0.556786
    63  C   -0.213139
    64  H    0.127026
    65  H    0.135473
    66  O   -0.555925
    67  C   -0.271189
    68  H    0.130373
    69  H    0.154018
    70  C    0.564526
    71  N   -0.589174
    72  H    0.357607
    73  H    0.258693
    74  O   -0.600788
    75  N   -0.512553
    76  H    0.284823
    77  C   -0.051334
    78  H    0.121359
    79  C    0.587219
    80  C   -0.165985
    81  H    0.128891
    82  H    0.094384
    83  O   -0.649042
    84  C   -0.183966
    85  H    0.121252
    86  H    0.124594
    87  C   -0.212168
    88  H    0.126300
    89  H    0.123532
    90  C   -0.131294
    91  H    0.188905
    92  H    0.187838
    93  N   -0.544899
    94  H    0.364068
    95  H    0.364745
    96  H    0.364036
    97  O   -0.547471
 Sum of Mulliken charges =   1.00000

 Dipole moment (field-independent basis, Debye):
    X=              8.0374    Y=              7.1656    Z=             13.8809  Tot=             17.5677
 Quadrupole moment (field-independent basis, Debye-Ang):
   XX=           -136.8178   YY=           -213.0837   ZZ=             38.6061
   XY=             75.7726   XZ=            207.7322   YZ=            125.9357

 Normal termination of Gaussian 16 at Thu Sep  8 14:48:47 2022.
