 Gaussian 16, Revision C.01,
 Gaussian 16:  ES64L-G16RevC.01  3-Jul-2019

 ----------------------------------------------------------------------
 # B3LYP/6-31G** empiricaldispersion=gd3bj guess=read geom=check nosymm
  integral(ultrafinegrid)
 ----------------------------------------------------------------------

 ------------------------------------------------------
 Candidate Structure: Conf:112 Charge calc in gas phase
 ------------------------------------------------------
 Structure from the checkpoint file:  "conf-112.chk"
 Charge =  1 Multiplicity = 1

                          Input orientation:
 ---------------------------------------------------------------------
 Center     Atomic      Atomic             Coordinates (Angstroms)
 Number     Number       Type             X           Y           Z
 ---------------------------------------------------------------------
      1          7           0       -7.145047   -1.844710   -4.666680
      2          1           0       -7.719550   -1.005871   -4.751503
      3          1           0       -7.733344   -2.668343   -4.796824
      4          1           0       -6.324230   -1.814465   -5.381299
      5          6           0       -6.336029   -1.889948   -3.390641
      6          1           0       -6.680518   -1.089492   -2.735395
      7          6           0       -4.911768   -1.604065   -3.927032
      8          6           0       -6.483845   -3.265579   -2.697676
      9          1           0       -7.565981   -3.401029   -2.550284
     10          8           0       -4.762720   -1.644988   -5.166146
     11          6           0       -5.835624   -3.300844   -1.298139
     12          1           0       -4.744188   -3.295514   -1.387256
     13          1           0       -6.091588   -4.275056   -0.868438
     14          6           0       -5.948300   -4.407359   -3.572808
     15          1           0       -4.867726   -4.318185   -3.716719
     16          1           0       -6.142330   -5.366218   -3.087146
     17          1           0       -6.409444   -4.453728   -4.565905
     18          6           0       -6.287639   -2.197635   -0.337984
     19          1           0       -5.886297   -2.381125    0.660930
     20          1           0       -5.934343   -1.203206   -0.633650
     21          1           0       -7.379444   -2.155796   -0.257317
     22          7           0       -3.968963   -1.365667   -3.040493
     23          1           0       -4.124743   -1.404682   -2.029072
     24          6           0       -2.548118   -1.213110   -3.337773
     25          1           0       -2.267791   -1.941332   -4.103402
     26          6           0       -1.866243   -1.568437   -1.998805
     27          6           0       -2.235057    0.213108   -3.846203
     28          1           0       -2.506642    0.927105   -3.062193
     29          1           0       -2.901508    0.392257   -4.697829
     30          8           0       -2.564753   -1.662039   -0.976237
     31          6           0       -0.793759    0.407254   -4.255483
     32          6           0       -0.014521    1.405702   -3.662394
     33          1           0       -0.452873    2.041233   -2.897018
     34          6           0       -0.218245   -0.404214   -5.243754
     35          1           0       -0.815086   -1.167908   -5.737837
     36          6           0        1.310043    1.610246   -4.050835
     37          1           0        1.900737    2.407062   -3.601565
     38          6           0        1.113697   -0.224192   -5.615648
     39          1           0        1.551001   -0.863008   -6.376812
     40          6           0        1.874247    0.783371   -5.022442
     41          1           0        2.908070    0.930379   -5.318086
     42          7           0       -0.550772   -1.781892   -2.044003
     43          1           0       -0.010367   -1.563081   -2.880094
     44          6           0        0.261808   -2.043136   -0.859089
     45          1           0       -0.275152   -1.656974    0.012404
     46          6           0        1.570004   -1.278169   -1.109939
     47          6           0        0.538852   -3.557138   -0.668071
     48          1           0        1.145144   -3.870911   -1.527872
     49          8           0        2.027430   -1.225966   -2.253544
     50          6           0        1.341500   -3.803876    0.615534
     51          1           0        0.775591   -3.474340    1.495603
     52          1           0        1.545395   -4.871991    0.734810
     53          1           0        2.297112   -3.274780    0.613800
     54          6           0       -0.759289   -4.371297   -0.659372
     55          1           0       -1.422807   -4.044029    0.147224
     56          1           0       -1.302340   -4.270758   -1.602586
     57          1           0       -0.537068   -5.432926   -0.513646
     58          7           0        2.147787   -0.706443   -0.042689
     59          1           0        1.789396   -0.792981    0.903308
     60          6           0        3.374901    0.060199   -0.148458
     61          1           0        4.081337   -0.490924   -0.778438
     62          6           0        3.917028    0.206922    1.283933
     63          6           0        3.124928    1.463854   -0.769383
     64          1           0        2.199898    1.422170   -1.346490
     65          1           0        2.970602    2.189410    0.036939
     66          8           0        3.221728   -0.128137    2.254613
     67          6           0        4.254662    1.945151   -1.694147
     68          1           0        4.199900    1.392468   -2.636709
     69          1           0        5.238235    1.778600   -1.252583
     70          6           0        4.079883    3.432181   -1.986409
     71          7           0        4.911526    4.242865   -1.302947
     72          1           0        5.565171    3.883927   -0.593140
     73          1           0        4.778950    5.237041   -1.414647
     74          8           0        3.205124    3.838852   -2.759028
     75          7           0        5.130964    0.772942    1.371467
     76          1           0        5.547009    1.194991    0.532269
     77          6           0        5.556710    1.607548    2.491266
     78          1           0        4.668319    1.987751    3.009870
     79          6           0        6.324970    2.845808    1.878676
     80          6           0        6.448108    0.892811    3.499865
     81          1           0        6.863198    1.673240    4.146366
     82          1           0        7.287126    0.427074    2.966200
     83          8           0        6.776058    3.648821    2.700771
     84          6           0        5.709350   -0.159505    4.326420
     85          1           0        4.862149    0.309854    4.841410
     86          1           0        5.278034   -0.923993    3.671668
     87          6           0        6.644915   -0.804504    5.358509
     88          1           0        7.077050   -0.019231    5.994112
     89          1           0        7.477833   -1.300201    4.841195
     90          6           0        5.903187   -1.808210    6.218238
     91          1           0        5.086951   -1.352861    6.782697
     92          1           0        5.514069   -2.650711    5.642979
     93          7           0        6.852311   -2.411212    7.264227
     94          1           0        6.391514   -3.095087    7.872642
     95          1           0        7.242547   -1.669157    7.854661
     96          1           0        7.641571   -2.874175    6.801711
     97          8           0        6.386908    2.841556    0.606558
 ---------------------------------------------------------------------

 SCF Done:  E(RB3LYP) =  -2122.58838524     A.U. after    1 cycles

 Alpha  occ. eigenvalues --  -19.25929 -19.20341 -19.16487 -19.15649 -19.11381
 Alpha  occ. eigenvalues --  -19.09191 -19.07807 -14.62846 -14.57826 -14.47983
 Alpha  occ. eigenvalues --  -14.43328 -14.40571 -14.37253 -14.34388 -10.42228
 Alpha  occ. eigenvalues --  -10.39253 -10.38987 -10.37154 -10.33633 -10.33205
 Alpha  occ. eigenvalues --  -10.32832 -10.32096 -10.30874 -10.29672 -10.29342
 Alpha  occ. eigenvalues --  -10.29241 -10.28962 -10.27798 -10.27035 -10.26933
 Alpha  occ. eigenvalues --  -10.26794 -10.25787 -10.25690 -10.24691 -10.23591
 Alpha  occ. eigenvalues --  -10.23563 -10.23512 -10.23471 -10.23155 -10.22911
 Alpha  occ. eigenvalues --  -10.22360 -10.22325 -10.22060 -10.21522 -10.20547
 Alpha  occ. eigenvalues --   -1.18373  -1.16718  -1.12393  -1.11704  -1.08709
 Alpha  occ. eigenvalues --   -1.06889  -1.04961  -1.02821  -1.01950  -1.00075
 Alpha  occ. eigenvalues --   -0.97158  -0.95069  -0.94398  -0.93089  -0.92336
 Alpha  occ. eigenvalues --   -0.90550  -0.89578  -0.87820  -0.86594  -0.84999
 Alpha  occ. eigenvalues --   -0.84152  -0.83555  -0.82363  -0.80091  -0.78350
 Alpha  occ. eigenvalues --   -0.78148  -0.77882  -0.75503  -0.75260  -0.75210
 Alpha  occ. eigenvalues --   -0.74589  -0.74000  -0.73799  -0.72849  -0.71950
 Alpha  occ. eigenvalues --   -0.70030  -0.69523  -0.66948  -0.66792  -0.66291
 Alpha  occ. eigenvalues --   -0.65724  -0.65135  -0.64411  -0.63630  -0.63245
 Alpha  occ. eigenvalues --   -0.62715  -0.62263  -0.61056  -0.60541  -0.59939
 Alpha  occ. eigenvalues --   -0.59685  -0.59001  -0.58060  -0.57617  -0.56054
 Alpha  occ. eigenvalues --   -0.55532  -0.54931  -0.54473  -0.53879  -0.53771
 Alpha  occ. eigenvalues --   -0.53547  -0.53330  -0.53081  -0.52987  -0.52281
 Alpha  occ. eigenvalues --   -0.51919  -0.51267  -0.51030  -0.50689  -0.50171
 Alpha  occ. eigenvalues --   -0.49689  -0.49306  -0.49023  -0.48788  -0.48603
 Alpha  occ. eigenvalues --   -0.48268  -0.47749  -0.47491  -0.47317  -0.46838
 Alpha  occ. eigenvalues --   -0.46348  -0.45916  -0.45573  -0.45478  -0.45258
 Alpha  occ. eigenvalues --   -0.45003  -0.44716  -0.44456  -0.44358  -0.44189
 Alpha  occ. eigenvalues --   -0.44146  -0.43910  -0.43662  -0.43345  -0.43023
 Alpha  occ. eigenvalues --   -0.41625  -0.41115  -0.40692  -0.40500  -0.40207
 Alpha  occ. eigenvalues --   -0.39801  -0.39721  -0.39311  -0.39256  -0.38873
 Alpha  occ. eigenvalues --   -0.38622  -0.38065  -0.37874  -0.37632  -0.36989
 Alpha  occ. eigenvalues --   -0.36847  -0.36430  -0.35650  -0.34691  -0.33274
 Alpha  occ. eigenvalues --   -0.30785  -0.30178  -0.29516  -0.28997  -0.28839
 Alpha  occ. eigenvalues --   -0.28502  -0.26453  -0.25485  -0.24171  -0.23979
 Alpha  occ. eigenvalues --   -0.21915
 Alpha virt. eigenvalues --   -0.13411  -0.11095  -0.09635  -0.06720  -0.06528
 Alpha virt. eigenvalues --   -0.06241  -0.05377  -0.04633  -0.04417  -0.03841
 Alpha virt. eigenvalues --   -0.03647  -0.02747  -0.01315  -0.00356  -0.00057

 Mulliken charges:
               1
     1  N   -0.565869
     2  H    0.347352
     3  H    0.338816
     4  H    0.378202
     5  C   -0.082503
     6  H    0.170390
     7  C    0.644624
     8  C   -0.080263
     9  H    0.114071
    10  O   -0.557577
    11  C   -0.203624
    12  H    0.135976
    13  H    0.128046
    14  C   -0.339616
    15  H    0.143966
    16  H    0.148101
    17  H    0.095335
    18  C   -0.337971
    19  H    0.147045
    20  H    0.105039
    21  H    0.113634
    22  N   -0.526543
    23  H    0.315867
    24  C   -0.034472
    25  H    0.151286
    26  C    0.618340
    27  C   -0.225410
    28  H    0.112730
    29  H    0.135189
    30  O   -0.570362
    31  C    0.093338
    32  C   -0.137425
    33  H    0.083283
    34  C   -0.153957
    35  H    0.073499
    36  C   -0.081000
    37  H    0.160265
    38  C   -0.070531
    39  H    0.090427
    40  C   -0.080923
    41  H    0.099840
    42  N   -0.528057
    43  H    0.308960
    44  C   -0.001603
    45  H    0.124529
    46  C    0.607457
    47  C   -0.045431
    48  H    0.109180
    49  O   -0.546777
    50  C   -0.328188
    51  H    0.101837
    52  H    0.106240
    53  H    0.120908
    54  C   -0.310058
    55  H    0.114365
    56  H    0.091453
    57  H    0.103212
    58  N   -0.536965
    59  H    0.276988
    60  C    0.001979
    61  H    0.137031
    62  C    0.563708
    63  C   -0.178588
    64  H    0.127686
    65  H    0.118550
    66  O   -0.576624
    67  C   -0.268869
    68  H    0.123152
    69  H    0.127133
    70  C    0.538859
    71  N   -0.609994
    72  H    0.331933
    73  H    0.260437
    74  O   -0.532216
    75  N   -0.518465
    76  H    0.297727
    77  C   -0.048912
    78  H    0.110482
    79  C    0.585101
    80  C   -0.165393
    81  H    0.128682
    82  H    0.092199
    83  O   -0.558684
    84  C   -0.180909
    85  H    0.113883
    86  H    0.127972
    87  C   -0.212284
    88  H    0.125145
    89  H    0.122066
    90  C   -0.131163
    91  H    0.186529
    92  H    0.185437
    93  N   -0.544614
    94  H    0.361161
    95  H    0.364329
    96  H    0.363056
    97  O   -0.632189
 Sum of Mulliken charges =   1.00000

 Dipole moment (field-independent basis, Debye):
    X=            -12.0472    Y=            -26.4436    Z=             13.4247  Tot=             32.0097
 Quadrupole moment (field-independent basis, Debye-Ang):
   XX=              7.8341   YY=           -250.2054   ZZ=            -22.7108
   XY=            -69.2018   XZ=            270.7322   YZ=            -48.4131

 Normal termination of Gaussian 16 at Thu Sep  8 14:40:38 2022.
