 Gaussian 16, Revision C.01,
 Gaussian 16:  ES64L-G16RevC.01  3-Jul-2019

 ----------------------------------------------------------------------
 # B3LYP/6-31G** empiricaldispersion=gd3bj guess=read geom=check nosymm
  integral(ultrafinegrid)
 ----------------------------------------------------------------------

 ------------------------------------------------------
 Candidate Structure: Conf:474 Charge calc in gas phase
 ------------------------------------------------------
 Structure from the checkpoint file:  "conf-474.chk"
 Charge =  1 Multiplicity = 1

                          Input orientation:
 ---------------------------------------------------------------------
 Center     Atomic      Atomic             Coordinates (Angstroms)
 Number     Number       Type             X           Y           Z
 ---------------------------------------------------------------------
      1          7           0       -2.760818   -3.158082   -5.639772
      2          1           0       -2.812341   -2.342574   -6.281080
      3          1           0       -3.160295   -3.985191   -6.084476
      4          1           0       -1.751362   -3.288196   -5.398693
      5          6           0       -3.391901   -2.823124   -4.311281
      6          1           0       -4.215109   -2.139948   -4.517862
      7          6           0       -2.230152   -2.096176   -3.600956
      8          6           0       -3.884318   -4.088601   -3.580082
      9          1           0       -4.648708   -4.539546   -4.231420
     10          8           0       -1.083854   -2.435298   -3.896249
     11          6           0       -4.573734   -3.714322   -2.252722
     12          1           0       -3.836569   -3.262275   -1.578588
     13          1           0       -4.879274   -4.651335   -1.776418
     14          6           0       -2.763186   -5.110264   -3.345778
     15          1           0       -1.978220   -4.703817   -2.703339
     16          1           0       -3.173987   -5.999277   -2.861783
     17          1           0       -2.288412   -5.444445   -4.274634
     18          6           0       -5.798663   -2.805016   -2.384971
     19          1           0       -6.281090   -2.671412   -1.413755
     20          1           0       -5.555087   -1.802184   -2.755726
     21          1           0       -6.540226   -3.232093   -3.068287
     22          7           0       -2.557347   -1.121639   -2.735429
     23          1           0       -3.541710   -0.902338   -2.650560
     24          6           0       -1.629562   -0.009980   -2.480683
     25          1           0       -0.615284   -0.367694   -2.700327
     26          6           0       -1.649801    0.420278   -1.014835
     27          6           0       -1.917792    1.165115   -3.443609
     28          1           0       -1.054163    1.828845   -3.386038
     29          1           0       -2.791416    1.724851   -3.094585
     30          8           0       -1.424709    1.580041   -0.695046
     31          6           0       -2.134482    0.667834   -4.855033
     32          6           0       -1.052364    0.236859   -5.640246
     33          1           0       -0.046772    0.309454   -5.234309
     34          6           0       -3.432537    0.537581   -5.368353
     35          1           0       -4.276371    0.887953   -4.778676
     36          6           0       -1.274060   -0.310289   -6.903943
     37          1           0       -0.427033   -0.627443   -7.504871
     38          6           0       -3.659935   -0.015143   -6.632491
     39          1           0       -4.671609   -0.081921   -7.022241
     40          6           0       -2.575761   -0.446592   -7.407413
     41          1           0       -2.739600   -0.836473   -8.408410
     42          7           0       -1.898434   -0.586577   -0.122769
     43          1           0       -1.792551   -1.527961   -0.483846
     44          6           0       -1.459907   -0.456738    1.274490
     45          1           0       -1.548936    0.600479    1.534776
     46          6           0        0.007904   -0.912559    1.232108
     47          6           0       -2.308480   -1.320966    2.213870
     48          1           0       -2.167711   -2.362244    1.894853
     49          8           0        0.271258   -2.085898    0.957561
     50          6           0       -1.788782   -1.191792    3.650209
     51          1           0       -1.865152   -0.156227    4.001765
     52          1           0       -2.374105   -1.817715    4.329807
     53          1           0       -0.742880   -1.501912    3.726655
     54          6           0       -3.792674   -0.957296    2.119163
     55          1           0       -3.962821    0.075793    2.443419
     56          1           0       -4.162567   -1.048041    1.093821
     57          1           0       -4.391845   -1.610882    2.760345
     58          7           0        0.930518    0.058559    1.363810
     59          1           0        0.676933    1.009932    1.604994
     60          6           0        2.312982   -0.120565    0.958408
     61          1           0        2.726469   -1.002961    1.459194
     62          6           0        3.073793    1.144022    1.395050
     63          6           0        2.419830   -0.319246   -0.572321
     64          1           0        3.436233   -0.626359   -0.834404
     65          1           0        1.758782   -1.144789   -0.848528
     66          8           0        2.499070    2.057690    1.991615
     67          6           0        2.064446    0.954078   -1.357875
     68          1           0        2.744478    1.758219   -1.070580
     69          1           0        1.041481    1.269831   -1.145183
     70          6           0        2.187633    0.720807   -2.853042
     71          7           0        3.419166    0.889583   -3.356084
     72          1           0        4.224158    1.129755   -2.752059
     73          1           0        3.555372    0.697249   -4.337204
     74          8           0        1.207522    0.372358   -3.536636
     75          7           0        4.371158    1.187460    1.008992
     76          1           0        4.640863    0.537462    0.266675
     77          6           0        5.007401    2.466280    0.702473
     78          1           0        4.225555    3.235247    0.669744
     79          6           0        5.630883    2.376811   -0.741386
     80          6           0        6.057664    2.895266    1.718789
     81          1           0        6.575694    3.731778    1.236893
     82          1           0        6.791770    2.087759    1.845678
     83          8           0        6.343410    3.330223   -1.077906
     84          6           0        5.465424    3.276133    3.075847
     85          1           0        4.692606    4.043749    2.947771
     86          1           0        4.954438    2.414911    3.515100
     87          6           0        6.527619    3.775034    4.071852
     88          1           0        7.285649    2.992647    4.217106
     89          1           0        6.070425    3.981851    5.048714
     90          6           0        7.197852    5.033600    3.545120
     91          1           0        7.690584    4.872924    2.586357
     92          1           0        6.500807    5.868974    3.451520
     93          7           0        8.294316    5.500261    4.507054
     94          1           0        8.763795    6.349563    4.177370
     95          1           0        9.003591    4.768029    4.616461
     96          1           0        7.905562    5.689292    5.436539
     97          8           0        5.306125    1.326299   -1.385602
 ---------------------------------------------------------------------

 SCF Done:  E(RB3LYP) =  -2122.60840671     A.U. after    3 cycles

 Alpha  occ. eigenvalues --  -19.23860 -19.18132 -19.15927 -19.15750 -19.14498
 Alpha  occ. eigenvalues --  -19.10366 -19.09198 -14.62426 -14.56598 -14.47134
 Alpha  occ. eigenvalues --  -14.42134 -14.40133 -14.37826 -14.36826 -10.40717
 Alpha  occ. eigenvalues --  -10.38480 -10.37314 -10.35252 -10.32898 -10.32369
 Alpha  occ. eigenvalues --  -10.31957 -10.31537 -10.30966 -10.30476 -10.28918
 Alpha  occ. eigenvalues --  -10.28316 -10.28102 -10.28049 -10.28018 -10.28006
 Alpha  occ. eigenvalues --  -10.27927 -10.27740 -10.27676 -10.27510 -10.27375
 Alpha  occ. eigenvalues --  -10.26058 -10.26046 -10.25954 -10.24495 -10.24244
 Alpha  occ. eigenvalues --  -10.23226 -10.22796 -10.22733 -10.22370 -10.21644
 Alpha  occ. eigenvalues --   -1.16570  -1.16318  -1.10907  -1.10157  -1.08019
 Alpha  occ. eigenvalues --   -1.07171  -1.05502  -1.03972  -1.03087  -0.98570
 Alpha  occ. eigenvalues --   -0.96741  -0.95792  -0.94192  -0.94124  -0.93259
 Alpha  occ. eigenvalues --   -0.92145  -0.92093  -0.87403  -0.85903  -0.84953
 Alpha  occ. eigenvalues --   -0.84140  -0.83158  -0.82803  -0.82739  -0.80928
 Alpha  occ. eigenvalues --   -0.78709  -0.77390  -0.75499  -0.74833  -0.74552
 Alpha  occ. eigenvalues --   -0.74243  -0.73591  -0.72780  -0.71819  -0.70221
 Alpha  occ. eigenvalues --   -0.70089  -0.69376  -0.68540  -0.67655  -0.66775
 Alpha  occ. eigenvalues --   -0.66152  -0.65438  -0.64623  -0.63985  -0.63665
 Alpha  occ. eigenvalues --   -0.62394  -0.61830  -0.60866  -0.59936  -0.59481
 Alpha  occ. eigenvalues --   -0.59166  -0.59063  -0.58483  -0.58078  -0.57207
 Alpha  occ. eigenvalues --   -0.55754  -0.55542  -0.54769  -0.54097  -0.53810
 Alpha  occ. eigenvalues --   -0.53497  -0.53325  -0.53075  -0.52777  -0.52176
 Alpha  occ. eigenvalues --   -0.51972  -0.51408  -0.51190  -0.51015  -0.50372
 Alpha  occ. eigenvalues --   -0.50140  -0.50006  -0.49815  -0.49278  -0.48818
 Alpha  occ. eigenvalues --   -0.48185  -0.48023  -0.47894  -0.47438  -0.47289
 Alpha  occ. eigenvalues --   -0.46602  -0.46402  -0.46087  -0.45585  -0.45211
 Alpha  occ. eigenvalues --   -0.45170  -0.44625  -0.44362  -0.44301  -0.44164
 Alpha  occ. eigenvalues --   -0.44023  -0.43887  -0.43467  -0.43406  -0.43223
 Alpha  occ. eigenvalues --   -0.43118  -0.42309  -0.41931  -0.41584  -0.41156
 Alpha  occ. eigenvalues --   -0.40926  -0.40533  -0.39699  -0.39244  -0.39085
 Alpha  occ. eigenvalues --   -0.38923  -0.38638  -0.38256  -0.38193  -0.37993
 Alpha  occ. eigenvalues --   -0.37451  -0.36903  -0.36477  -0.33785  -0.33380
 Alpha  occ. eigenvalues --   -0.33091  -0.31371  -0.30645  -0.29793  -0.29354
 Alpha  occ. eigenvalues --   -0.29038  -0.28881  -0.28238  -0.25683  -0.25076
 Alpha  occ. eigenvalues --   -0.23212
 Alpha virt. eigenvalues --   -0.12983  -0.11194  -0.09117  -0.09051  -0.07033
 Alpha virt. eigenvalues --   -0.06233  -0.06177  -0.05410  -0.03971  -0.03237
 Alpha virt. eigenvalues --   -0.02491  -0.01482  -0.01383  -0.00488   0.00064

 Mulliken charges:
               1
     1  N   -0.552600
     2  H    0.341550
     3  H    0.332421
     4  H    0.360191
     5  C   -0.074347
     6  H    0.150911
     7  C    0.648066
     8  C   -0.077191
     9  H    0.108621
    10  O   -0.518948
    11  C   -0.193873
    12  H    0.121699
    13  H    0.132049
    14  C   -0.336701
    15  H    0.155172
    16  H    0.141219
    17  H    0.092751
    18  C   -0.338329
    19  H    0.143044
    20  H    0.087055
    21  H    0.123849
    22  N   -0.538170
    23  H    0.277614
    24  C   -0.064497
    25  H    0.227500
    26  C    0.610402
    27  C   -0.227314
    28  H    0.172992
    29  H    0.108890
    30  O   -0.518853
    31  C    0.072819
    32  C   -0.087892
    33  H    0.160001
    34  C   -0.140849
    35  H    0.092396
    36  C   -0.101415
    37  H    0.114062
    38  C   -0.110523
    39  H    0.105811
    40  C   -0.171664
    41  H    0.108527
    42  N   -0.529792
    43  H    0.273786
    44  C    0.006089
    45  H    0.125513
    46  C    0.605506
    47  C   -0.064068
    48  H    0.101687
    49  O   -0.560163
    50  C   -0.324961
    51  H    0.104599
    52  H    0.109532
    53  H    0.123004
    54  C   -0.310433
    55  H    0.109368
    56  H    0.089458
    57  H    0.106222
    58  N   -0.521901
    59  H    0.288264
    60  C   -0.001586
    61  H    0.140242
    62  C    0.560371
    63  C   -0.206617
    64  H    0.126720
    65  H    0.130744
    66  O   -0.552210
    67  C   -0.265774
    68  H    0.128039
    69  H    0.127286
    70  C    0.538987
    71  N   -0.597155
    72  H    0.341233
    73  H    0.257253
    74  O   -0.550814
    75  N   -0.511799
    76  H    0.282607
    77  C   -0.044007
    78  H    0.119236
    79  C    0.586170
    80  C   -0.182028
    81  H    0.114583
    82  H    0.091799
    83  O   -0.564878
    84  C   -0.182445
    85  H    0.119812
    86  H    0.140683
    87  C   -0.215356
    88  H    0.119133
    89  H    0.114361
    90  C   -0.125174
    91  H    0.200601
    92  H    0.184915
    93  N   -0.545950
    94  H    0.364860
    95  H    0.363152
    96  H    0.359919
    97  O   -0.635071
 Sum of Mulliken charges =   1.00000

 Dipole moment (field-independent basis, Debye):
    X=              7.0591    Y=              4.9711    Z=              2.9743  Tot=              9.1318
 Quadrupole moment (field-independent basis, Debye-Ang):
   XX=            -10.5076   YY=           -131.8655   ZZ=            -83.0348
   XY=            188.1902   XZ=            223.7641   YZ=            161.1528

 Normal termination of Gaussian 16 at Thu Sep  8 14:41:34 2022.
