 Gaussian 16, Revision C.01,
 Gaussian 16:  ES64L-G16RevC.01  3-Jul-2019

 ----------------------------------------------------------------------
 # B3LYP/6-31G** empiricaldispersion=gd3bj guess=read geom=check nosymm
  integral(ultrafinegrid)
 ----------------------------------------------------------------------

 ------------------------------------------------------
 Candidate Structure: Conf:879 Charge calc in gas phase
 ------------------------------------------------------
 Structure from the checkpoint file:  "conf-879.chk"
 Charge =  1 Multiplicity = 1

                          Input orientation:
 ---------------------------------------------------------------------
 Center     Atomic      Atomic             Coordinates (Angstroms)
 Number     Number       Type             X           Y           Z
 ---------------------------------------------------------------------
      1          7           0       -5.415445   -3.137498   -5.467583
      2          1           0       -4.817157   -2.734388   -6.208850
      3          1           0       -6.366967   -3.279301   -5.809499
      4          1           0       -4.954767   -4.031991   -5.183971
      5          6           0       -5.340576   -2.294877   -4.215856
      6          1           0       -5.250215   -1.256582   -4.533619
      7          6           0       -4.019774   -2.793072   -3.597544
      8          6           0       -6.584145   -2.492916   -3.325992
      9          1           0       -7.444941   -2.172190   -3.932162
     10          8           0       -3.663919   -3.949240   -3.855678
     11          6           0       -6.521960   -1.568808   -2.092926
     12          1           0       -5.682942   -1.871706   -1.455219
     13          1           0       -7.426456   -1.761792   -1.507511
     14          6           0       -6.783759   -3.956492   -2.910552
     15          1           0       -5.946474   -4.319072   -2.308703
     16          1           0       -7.694284   -4.046319   -2.313999
     17          1           0       -6.896111   -4.633580   -3.764385
     18          6           0       -6.441539   -0.070898   -2.401837
     19          1           0       -6.511141    0.511293   -1.480376
     20          1           0       -5.501723    0.222656   -2.884208
     21          1           0       -7.259813    0.245172   -3.057392
     22          7           0       -3.319483   -1.919994   -2.873816
     23          1           0       -3.678046   -1.006410   -2.610857
     24          6           0       -1.914585   -2.115005   -2.564285
     25          1           0       -1.740311   -3.178582   -2.390776
     26          6           0       -1.640618   -1.260278   -1.320642
     27          6           0       -1.016282   -1.597401   -3.741767
     28          1           0       -0.012747   -2.014616   -3.616786
     29          1           0       -0.930883   -0.510710   -3.643675
     30          8           0       -2.378130   -0.306840   -1.071798
     31          6           0       -1.578092   -1.931285   -5.103993
     32          6           0       -2.432275   -1.025801   -5.746003
     33          1           0       -2.612750   -0.052777   -5.297444
     34          6           0       -1.329942   -3.166266   -5.716064
     35          1           0       -0.673732   -3.881435   -5.229678
     36          6           0       -3.036535   -1.347276   -6.966649
     37          1           0       -3.659287   -0.613950   -7.471435
     38          6           0       -1.928735   -3.496884   -6.929820
     39          1           0       -1.717532   -4.455628   -7.391851
     40          6           0       -2.788643   -2.590759   -7.560473
     41          1           0       -3.226261   -2.833776   -8.524199
     42          7           0       -0.545536   -1.586164   -0.609096
     43          1           0        0.057347   -2.347775   -0.894421
     44          6           0       -0.024797   -0.742029    0.463380
     45          1           0       -0.526812    0.225247    0.373777
     46          6           0        1.476183   -0.622286    0.202666
     47          6           0       -0.294506   -1.325332    1.871205
     48          1           0        0.250336   -2.279315    1.922141
     49          8           0        2.128879   -1.655540   -0.047717
     50          6           0        0.250539   -0.382491    2.952019
     51          1           0       -0.263051    0.585536    2.909981
     52          1           0        0.065245   -0.800804    3.945254
     53          1           0        1.324404   -0.203262    2.851657
     54          6           0       -1.787586   -1.600382    2.070935
     55          1           0       -2.369716   -0.678780    1.971813
     56          1           0       -2.168982   -2.320213    1.342030
     57          1           0       -1.964581   -2.007299    3.070376
     58          7           0        1.992012    0.609157    0.217093
     59          1           0        1.400618    1.377630    0.502704
     60          6           0        3.410718    0.883345    0.045875
     61          1           0        3.767687    0.189404   -0.723217
     62          6           0        4.181702    0.551379    1.341507
     63          6           0        3.630725    2.330308   -0.424108
     64          1           0        4.654526    2.422004   -0.797135
     65          1           0        2.974917    2.532739   -1.276823
     66          8           0        3.616979   -0.067596    2.281848
     67          6           0        3.409674    3.389355    0.667211
     68          1           0        4.035523    3.171281    1.534786
     69          1           0        2.361584    3.425014    0.982643
     70          6           0        3.749484    4.770256    0.097258
     71          7           0        5.019827    5.166980    0.330680
     72          1           0        5.714556    4.554797    0.773311
     73          1           0        5.315264    6.035118   -0.090536
     74          8           0        2.918425    5.402527   -0.549102
     75          7           0        5.448743    0.917473    1.338136
     76          1           0        5.776319    1.709227    0.729884
     77          6           0        6.284446    1.059231    2.534201
     78          1           0        5.631132    1.121989    3.410968
     79          6           0        6.995674    2.456267    2.340746
     80          6           0        7.284525   -0.077972    2.738845
     81          1           0        7.885075    0.207898    3.605838
     82          1           0        7.973565   -0.124603    1.886119
     83          8           0        7.765223    2.810982    3.227455
     84          6           0        6.622521   -1.448297    2.962360
     85          1           0        7.282889   -2.098048    3.548621
     86          1           0        5.722164   -1.299012    3.572300
     87          6           0        6.265938   -2.185276    1.655101
     88          1           0        7.159965   -2.676353    1.256879
     89          1           0        5.946194   -1.477110    0.884203
     90          6           0        5.190595   -3.253847    1.839034
     91          1           0        5.149794   -3.953342    1.001269
     92          1           0        5.363939   -3.825410    2.754199
     93          7           0        3.823523   -2.623769    1.958978
     94          1           0        3.186998   -3.186004    2.523302
     95          1           0        3.357819   -2.457102    1.045618
     96          1           0        3.853278   -1.628366    2.347748
     97          8           0        6.656814    3.039848    1.246689
 ---------------------------------------------------------------------

 SCF Done:  E(RB3LYP) =  -2122.63634217     A.U. after    3 cycles

 Alpha  occ. eigenvalues --  -19.27039 -19.23633 -19.23325 -19.20450 -19.12947
 Alpha  occ. eigenvalues --  -19.11872 -19.10014 -14.59833 -14.52215 -14.50225
 Alpha  occ. eigenvalues --  -14.47956 -14.47138 -14.41286 -14.36328 -10.43987
 Alpha  occ. eigenvalues --  -10.40884 -10.40322 -10.40022 -10.36603 -10.36544
 Alpha  occ. eigenvalues --  -10.34444 -10.34050 -10.33699 -10.32194 -10.32131
 Alpha  occ. eigenvalues --  -10.32058 -10.31842 -10.31638 -10.31538 -10.31212
 Alpha  occ. eigenvalues --  -10.31111 -10.31018 -10.30945 -10.30686 -10.29436
 Alpha  occ. eigenvalues --  -10.29187 -10.28969 -10.27453 -10.26443 -10.26177
 Alpha  occ. eigenvalues --  -10.25649 -10.25640 -10.25273 -10.23931 -10.23115
 Alpha  occ. eigenvalues --   -1.19736  -1.15918  -1.14732  -1.14000  -1.11484
 Alpha  occ. eigenvalues --   -1.07407  -1.07218  -1.04702  -1.04460  -1.04376
 Alpha  occ. eigenvalues --   -1.03431  -0.98914  -0.98174  -0.95980  -0.95539
 Alpha  occ. eigenvalues --   -0.92158  -0.91589  -0.90349  -0.88294  -0.88030
 Alpha  occ. eigenvalues --   -0.87187  -0.86816  -0.86145  -0.84639  -0.82673
 Alpha  occ. eigenvalues --   -0.81821  -0.79242  -0.78379  -0.77090  -0.76647
 Alpha  occ. eigenvalues --   -0.76144  -0.74703  -0.73727  -0.72740  -0.72540
 Alpha  occ. eigenvalues --   -0.71830  -0.70795  -0.70716  -0.69914  -0.69341
 Alpha  occ. eigenvalues --   -0.69251  -0.68070  -0.67247  -0.66235  -0.65814
 Alpha  occ. eigenvalues --   -0.64399  -0.63658  -0.63174  -0.62701  -0.62517
 Alpha  occ. eigenvalues --   -0.61354  -0.61004  -0.60453  -0.60230  -0.59389
 Alpha  occ. eigenvalues --   -0.58800  -0.58212  -0.58075  -0.57322  -0.56840
 Alpha  occ. eigenvalues --   -0.56648  -0.55927  -0.55700  -0.55441  -0.55108
 Alpha  occ. eigenvalues --   -0.54677  -0.54260  -0.54123  -0.53745  -0.53405
 Alpha  occ. eigenvalues --   -0.53209  -0.52526  -0.52437  -0.52120  -0.51821
 Alpha  occ. eigenvalues --   -0.51425  -0.50950  -0.50294  -0.49916  -0.49870
 Alpha  occ. eigenvalues --   -0.49506  -0.49058  -0.49031  -0.48904  -0.48803
 Alpha  occ. eigenvalues --   -0.48152  -0.47765  -0.47620  -0.47472  -0.46610
 Alpha  occ. eigenvalues --   -0.46556  -0.46203  -0.46033  -0.45948  -0.45779
 Alpha  occ. eigenvalues --   -0.45581  -0.45204  -0.44798  -0.44197  -0.43498
 Alpha  occ. eigenvalues --   -0.43054  -0.42569  -0.42372  -0.41705  -0.41578
 Alpha  occ. eigenvalues --   -0.41364  -0.41028  -0.40363  -0.40123  -0.39748
 Alpha  occ. eigenvalues --   -0.39145  -0.38974  -0.38527  -0.37954  -0.37840
 Alpha  occ. eigenvalues --   -0.37389  -0.37091  -0.36677  -0.36062  -0.34295
 Alpha  occ. eigenvalues --   -0.32952  -0.28146  -0.27399  -0.26618  -0.26550
 Alpha  occ. eigenvalues --   -0.23915
 Alpha virt. eigenvalues --   -0.14267  -0.13215  -0.12654  -0.10063  -0.09867
 Alpha virt. eigenvalues --   -0.08356  -0.06933  -0.05908  -0.05379  -0.04704
 Alpha virt. eigenvalues --   -0.03269  -0.02346  -0.02220  -0.01640  -0.00905

 Mulliken charges:
               1
     1  N   -0.548769
     2  H    0.338028
     3  H    0.339470
     4  H    0.361040
     5  C   -0.076464
     6  H    0.159892
     7  C    0.658408
     8  C   -0.078693
     9  H    0.114745
    10  O   -0.547900
    11  C   -0.196903
    12  H    0.122213
    13  H    0.136032
    14  C   -0.336962
    15  H    0.145257
    16  H    0.148704
    17  H    0.094128
    18  C   -0.339090
    19  H    0.150408
    20  H    0.093162
    21  H    0.124242
    22  N   -0.526773
    23  H    0.303570
    24  C   -0.023199
    25  H    0.153494
    26  C    0.617423
    27  C   -0.249253
    28  H    0.134959
    29  H    0.139295
    30  O   -0.535800
    31  C    0.110381
    32  C   -0.128378
    33  H    0.106827
    34  C   -0.081364
    35  H    0.108404
    36  C   -0.146900
    37  H    0.119566
    38  C   -0.082781
    39  H    0.122695
    40  C   -0.132025
    41  H    0.121043
    42  N   -0.529193
    43  H    0.279337
    44  C   -0.004954
    45  H    0.140382
    46  C    0.626503
    47  C   -0.048339
    48  H    0.074389
    49  O   -0.613245
    50  C   -0.356452
    51  H    0.111992
    52  H    0.118514
    53  H    0.146666
    54  C   -0.311942
    55  H    0.125353
    56  H    0.095630
    57  H    0.117903
    58  N   -0.486480
    59  H    0.290759
    60  C   -0.026509
    61  H    0.146446
    62  C    0.581286
    63  C   -0.227831
    64  H    0.148004
    65  H    0.127273
    66  O   -0.610903
    67  C   -0.255649
    68  H    0.129933
    69  H    0.098946
    70  C    0.538589
    71  N   -0.610499
    72  H    0.327207
    73  H    0.267871
    74  O   -0.528678
    75  N   -0.489022
    76  H    0.315030
    77  C   -0.058916
    78  H    0.125863
    79  C    0.603388
    80  C   -0.173985
    81  H    0.144829
    82  H    0.101893
    83  O   -0.530525
    84  C   -0.196783
    85  H    0.109177
    86  H    0.095775
    87  C   -0.202736
    88  H    0.133429
    89  H    0.124053
    90  C   -0.103036
    91  H    0.144123
    92  H    0.152128
    93  N   -0.600287
    94  H    0.317044
    95  H    0.360088
    96  H    0.394352
    97  O   -0.640323
 Sum of Mulliken charges =   1.00000

 Dipole moment (field-independent basis, Debye):
    X=            -23.4658    Y=            -25.4439    Z=            -19.8260  Tot=             39.8887
 Quadrupole moment (field-independent basis, Debye-Ang):
   XX=           -186.9533   YY=           -252.3088   ZZ=           -149.9845
   XY=            -20.2579   XZ=             86.7084   YZ=             29.8441

 Normal termination of Gaussian 16 at Thu Sep  8 14:46:42 2022.
