 Gaussian 16, Revision C.01,
 Gaussian 16:  ES64L-G16RevC.01  3-Jul-2019

 ----------------------------------------------------------------------
 # B3LYP/6-31G** empiricaldispersion=gd3bj guess=read geom=check nosymm
  integral(ultrafinegrid)
 ----------------------------------------------------------------------

 ------------------------------------------------------
 Candidate Structure: Conf:669 Charge calc in gas phase
 ------------------------------------------------------
 Structure from the checkpoint file:  "conf-669.chk"
 Charge =  1 Multiplicity = 1

                          Input orientation:
 ---------------------------------------------------------------------
 Center     Atomic      Atomic             Coordinates (Angstroms)
 Number     Number       Type             X           Y           Z
 ---------------------------------------------------------------------
      1          7           0       -1.766069    2.653558   -5.328168
      2          1           0       -0.973731    2.195136   -5.810051
      3          1           0       -1.807535    3.644901   -5.566224
      4          1           0       -2.626996    2.138454   -5.621659
      5          6           0       -1.709815    2.391909   -3.838304
      6          1           0       -0.664297    2.401728   -3.527851
      7          6           0       -2.291996    0.967579   -3.778789
      8          6           0       -2.539868    3.445393   -3.071872
      9          1           0       -2.133609    4.425746   -3.368005
     10          8           0       -3.173688    0.677660   -4.602560
     11          6           0       -2.320418    3.300009   -1.550849
     12          1           0       -2.426988    2.247145   -1.264146
     13          1           0       -3.135294    3.831939   -1.049013
     14          6           0       -4.032051    3.410681   -3.430095
     15          1           0       -4.499287    2.479281   -3.102612
     16          1           0       -4.541088    4.241186   -2.935371
     17          1           0       -4.221301    3.509808   -4.504344
     18          6           0       -0.981159    3.855102   -1.061137
     19          1           0       -0.876307    3.706391    0.017105
     20          1           0       -0.134973    3.357438   -1.539476
     21          1           0       -0.910536    4.930741   -1.256694
     22          7           0       -1.763421    0.146277   -2.877574
     23          1           0       -0.939859    0.459140   -2.346807
     24          6           0       -1.991315   -1.283289   -2.964861
     25          1           0       -2.980959   -1.435118   -3.402155
     26          6           0       -1.927555   -1.850108   -1.540677
     27          6           0       -0.904892   -1.954427   -3.878719
     28          1           0       -1.283209   -2.926735   -4.210046
     29          1           0       -0.012781   -2.154989   -3.278633
     30          8           0       -1.757822   -1.112344   -0.575257
     31          6           0       -0.548256   -1.110992   -5.080608
     32          6           0       -1.273777   -1.205045   -6.274868
     33          1           0       -2.081310   -1.926669   -6.352510
     34          6           0        0.479151   -0.162907   -4.992973
     35          1           0        1.035467   -0.059843   -4.067389
     36          6           0       -0.986419   -0.375165   -7.357064
     37          1           0       -1.555322   -0.470489   -8.276263
     38          6           0        0.774193    0.673523   -6.074938
     39          1           0        1.596037    1.380309   -5.999497
     40          6           0        0.041033    0.569535   -7.263590
     41          1           0        0.287396    1.195228   -8.116527
     42          7           0       -2.001923   -3.205148   -1.425146
     43          1           0       -1.893641   -3.740258   -2.276814
     44          6           0       -1.373691   -3.825941   -0.251297
     45          1           0       -1.802407   -3.358194    0.638592
     46          6           0        0.129303   -3.511689   -0.364688
     47          6           0       -1.633838   -5.340605   -0.228894
     48          1           0       -1.209224   -5.746676   -1.157942
     49          8           0        0.735401   -3.760876   -1.409224
     50          6           0       -0.901287   -5.990879    0.950774
     51          1           0       -1.251520   -5.578020    1.903762
     52          1           0       -1.090184   -7.067467    0.966752
     53          1           0        0.180320   -5.841893    0.893594
     54          6           0       -3.135247   -5.642767   -0.182267
     55          1           0       -3.577056   -5.261961    0.745290
     56          1           0       -3.672004   -5.185719   -1.017659
     57          1           0       -3.308121   -6.722141   -0.215933
     58          7           0        0.706887   -2.921124    0.701604
     59          1           0        0.163741   -2.622984    1.504274
     60          6           0        2.050652   -2.384463    0.640416
     61          1           0        2.746245   -3.174900    0.338487
     62          6           0        2.390950   -1.854278    2.034625
     63          6           0        2.168007   -1.216298   -0.373099
     64          1           0        3.208558   -0.878310   -0.406043
     65          1           0        1.914392   -1.610182   -1.359297
     66          8           0        1.512191   -1.617973    2.857098
     67          6           0        1.252790   -0.031312   -0.012863
     68          1           0        1.486988    0.331743    0.990100
     69          1           0        0.207706   -0.341651   -0.031203
     70          6           0        1.428385    1.091575   -1.007704
     71          7           0        2.417343    1.960474   -0.739248
     72          1           0        3.021797    1.838906    0.071772
     73          1           0        2.614266    2.688543   -1.409374
     74          8           0        0.720380    1.197270   -2.030849
     75          7           0        3.710718   -1.587023    2.245397
     76          1           0        4.320246   -1.648828    1.440791
     77          6           0        4.104761   -0.607688    3.244044
     78          1           0        3.454679   -0.727538    4.111233
     79          6           0        3.923461    0.812744    2.713751
     80          6           0        5.584954   -0.830814    3.652181
     81          1           0        6.160728   -1.065803    2.747241
     82          1           0        5.609952   -1.728469    4.275719
     83          8           0        3.755547    1.690268    3.675811
     84          6           0        6.254551    0.352557    4.379179
     85          1           0        5.524488    0.827614    5.039275
     86          1           0        7.043988   -0.041907    5.025671
     87          6           0        6.879473    1.402868    3.421844
     88          1           0        6.448019    1.312301    2.418162
     89          1           0        7.942286    1.171763    3.299196
     90          6           0        6.752970    2.871228    3.868046
     91          1           0        6.684013    2.932772    4.958255
     92          1           0        7.646289    3.433051    3.570237
     93          7           0        5.532253    3.515839    3.307926
     94          1           0        5.400939    4.437761    3.719213
     95          1           0        4.294063    2.561430    3.465185
     96          1           0        5.654605    3.657605    2.306510
     97          8           0        4.035865    1.082603    1.517491
 ---------------------------------------------------------------------

 SCF Done:  E(RB3LYP) =  -2122.70152609     A.U. after    3 cycles

 Alpha  occ. eigenvalues --  -19.24038 -19.22951 -19.21914 -19.21380 -19.20683
 Alpha  occ. eigenvalues --  -19.20247 -19.18752 -14.56405 -14.45645 -14.44154
 Alpha  occ. eigenvalues --  -14.44129 -14.44095 -14.43991 -14.43322 -10.39708
 Alpha  occ. eigenvalues --  -10.39348 -10.38147 -10.37531 -10.36989 -10.36281
 Alpha  occ. eigenvalues --  -10.35774 -10.32899 -10.31472 -10.31059 -10.31029
 Alpha  occ. eigenvalues --  -10.30480 -10.30426 -10.29184 -10.29019 -10.28963
 Alpha  occ. eigenvalues --  -10.28639 -10.28528 -10.28319 -10.28227 -10.27429
 Alpha  occ. eigenvalues --  -10.27423 -10.27421 -10.27259 -10.26670 -10.26593
 Alpha  occ. eigenvalues --  -10.26374 -10.26073 -10.25651 -10.23967 -10.23872
 Alpha  occ. eigenvalues --   -1.16722  -1.15680  -1.12881  -1.12296  -1.12256
 Alpha  occ. eigenvalues --   -1.10588  -1.10408  -1.08150  -1.03161  -1.01016
 Alpha  occ. eigenvalues --   -1.00905  -1.00032  -0.99378  -0.99193  -0.95252
 Alpha  occ. eigenvalues --   -0.92315  -0.89145  -0.88583  -0.87590  -0.86972
 Alpha  occ. eigenvalues --   -0.84655  -0.83956  -0.83565  -0.82684  -0.81225
 Alpha  occ. eigenvalues --   -0.80711  -0.77827  -0.76852  -0.75346  -0.74895
 Alpha  occ. eigenvalues --   -0.73258  -0.72199  -0.71134  -0.71088  -0.70335
 Alpha  occ. eigenvalues --   -0.69419  -0.69186  -0.68644  -0.67890  -0.67006
 Alpha  occ. eigenvalues --   -0.66860  -0.65985  -0.65968  -0.65704  -0.65018
 Alpha  occ. eigenvalues --   -0.64374  -0.62697  -0.62470  -0.61627  -0.60527
 Alpha  occ. eigenvalues --   -0.59719  -0.59501  -0.59031  -0.58311  -0.57644
 Alpha  occ. eigenvalues --   -0.57295  -0.56896  -0.56473  -0.56218  -0.55705
 Alpha  occ. eigenvalues --   -0.55121  -0.54819  -0.54666  -0.54198  -0.54089
 Alpha  occ. eigenvalues --   -0.53659  -0.52846  -0.52562  -0.52445  -0.52040
 Alpha  occ. eigenvalues --   -0.51738  -0.51323  -0.51104  -0.50952  -0.50670
 Alpha  occ. eigenvalues --   -0.50269  -0.49946  -0.49703  -0.49645  -0.49302
 Alpha  occ. eigenvalues --   -0.49226  -0.48413  -0.48281  -0.48009  -0.47391
 Alpha  occ. eigenvalues --   -0.47039  -0.46810  -0.46684  -0.45990  -0.45896
 Alpha  occ. eigenvalues --   -0.45751  -0.45529  -0.45470  -0.45182  -0.44566
 Alpha  occ. eigenvalues --   -0.44331  -0.44143  -0.43828  -0.43493  -0.43110
 Alpha  occ. eigenvalues --   -0.42972  -0.42676  -0.42345  -0.42067  -0.41854
 Alpha  occ. eigenvalues --   -0.41525  -0.41393  -0.41101  -0.40592  -0.40526
 Alpha  occ. eigenvalues --   -0.39781  -0.37953  -0.37721  -0.36582  -0.36341
 Alpha  occ. eigenvalues --   -0.36099  -0.35769  -0.35369  -0.35235  -0.34703
 Alpha  occ. eigenvalues --   -0.34464  -0.34143  -0.33682  -0.33178  -0.32818
 Alpha  occ. eigenvalues --   -0.31725
 Alpha virt. eigenvalues --   -0.10866  -0.10260  -0.09234  -0.07713  -0.07367
 Alpha virt. eigenvalues --   -0.07183  -0.06771  -0.05986  -0.04963  -0.01673
 Alpha virt. eigenvalues --   -0.01225  -0.00958  -0.00405  -0.00079   0.00704

 Mulliken charges:
               1
     1  N   -0.551531
     2  H    0.337565
     3  H    0.329902
     4  H    0.355620
     5  C   -0.086420
     6  H    0.176872
     7  C    0.646506
     8  C   -0.070213
     9  H    0.096495
    10  O   -0.566389
    11  C   -0.189338
    12  H    0.130222
    13  H    0.119224
    14  C   -0.330558
    15  H    0.147821
    16  H    0.133493
    17  H    0.087870
    18  C   -0.341382
    19  H    0.124042
    20  H    0.114501
    21  H    0.105026
    22  N   -0.511662
    23  H    0.325359
    24  C   -0.038975
    25  H    0.167046
    26  C    0.611118
    27  C   -0.272883
    28  H    0.120454
    29  H    0.158915
    30  O   -0.517926
    31  C    0.102813
    32  C   -0.083836
    33  H    0.105028
    34  C   -0.117095
    35  H    0.121185
    36  C   -0.087822
    37  H    0.113755
    38  C   -0.154147
    39  H    0.105603
    40  C   -0.131585
    41  H    0.109156
    42  N   -0.519002
    43  H    0.273864
    44  C    0.015100
    45  H    0.126939
    46  C    0.609964
    47  C   -0.087137
    48  H    0.106846
    49  O   -0.560941
    50  C   -0.325259
    51  H    0.109850
    52  H    0.120356
    53  H    0.118754
    54  C   -0.311329
    55  H    0.112761
    56  H    0.106487
    57  H    0.117374
    58  N   -0.524362
    59  H    0.293352
    60  C   -0.003213
    61  H    0.140762
    62  C    0.596694
    63  C   -0.197642
    64  H    0.108462
    65  H    0.144939
    66  O   -0.523588
    67  C   -0.285320
    68  H    0.132036
    69  H    0.174810
    70  C    0.574680
    71  N   -0.595389
    72  H    0.323475
    73  H    0.270358
    74  O   -0.575171
    75  N   -0.510591
    76  H    0.268439
    77  C   -0.004951
    78  H    0.168993
    79  C    0.604013
    80  C   -0.203813
    81  H    0.101556
    82  H    0.133679
    83  O   -0.509093
    84  C   -0.205073
    85  H    0.131032
    86  H    0.116068
    87  C   -0.209025
    88  H    0.111972
    89  H    0.119243
    90  C   -0.072388
    91  H    0.135104
    92  H    0.117922
    93  N   -0.657044
    94  H    0.280968
    95  H    0.383572
    96  H    0.277752
    97  O   -0.541674
 Sum of Mulliken charges =   1.00000

 Dipole moment (field-independent basis, Debye):
    X=              6.6805    Y=              9.4052    Z=            -10.6849  Tot=             15.7243
 Quadrupole moment (field-independent basis, Debye-Ang):
   XX=           -182.2230   YY=           -193.6622   ZZ=           -164.7114
   XY=             24.3280   XZ=             59.1728   YZ=            -26.9151

 Normal termination of Gaussian 16 at Thu Sep  8 14:44:14 2022.
