 Gaussian 16, Revision C.01,
 Gaussian 16:  ES64L-G16RevC.01  3-Jul-2019

 ----------------------------------------------------------------------
 # B3LYP/6-31G** empiricaldispersion=gd3bj guess=read geom=check nosymm
  integral(ultrafinegrid)
 ----------------------------------------------------------------------

 ------------------------------------------------------
 Candidate Structure: Conf:727 Charge calc in gas phase
 ------------------------------------------------------
 Structure from the checkpoint file:  "conf-727.chk"
 Charge =  1 Multiplicity = 1

                          Input orientation:
 ---------------------------------------------------------------------
 Center     Atomic      Atomic             Coordinates (Angstroms)
 Number     Number       Type             X           Y           Z
 ---------------------------------------------------------------------
      1          7           0       -6.759408   -2.461436   -2.484540
      2          1           0       -7.578728   -2.886199   -2.917390
      3          1           0       -7.056096   -1.681185   -1.891892
      4          1           0       -6.204076   -3.151869   -1.891066
      5          6           0       -5.700283   -2.015747   -3.469160
      6          1           0       -5.854867   -2.605183   -4.378306
      7          6           0       -4.405450   -2.522387   -2.783191
      8          6           0       -5.787542   -0.513651   -3.783957
      9          1           0       -4.943464   -0.304442   -4.455208
     10          8           0       -4.529497   -3.341752   -1.863559
     11          6           0       -5.612523    0.353936   -2.521529
     12          1           0       -4.785944   -0.032797   -1.917527
     13          1           0       -6.525710    0.298850   -1.905852
     14          6           0       -7.074297   -0.202399   -4.560867
     15          1           0       -7.966871   -0.356465   -3.941967
     16          1           0       -7.087391    0.840916   -4.879531
     17          1           0       -7.168702   -0.823144   -5.457483
     18          6           0       -5.332101    1.825215   -2.839654
     19          1           0       -5.185681    2.387055   -1.914118
     20          1           0       -4.417005    1.919987   -3.431863
     21          1           0       -6.150587    2.298358   -3.389515
     22          7           0       -3.246158   -2.083564   -3.270731
     23          1           0       -3.259980   -1.277058   -3.885733
     24          6           0       -2.000014   -2.270520   -2.543809
     25          1           0       -1.828828   -3.341251   -2.400413
     26          6           0       -2.095758   -1.574377   -1.167548
     27          6           0       -0.839021   -1.654714   -3.374623
     28          1           0       -0.680563   -2.279176   -4.258459
     29          1           0        0.073444   -1.704715   -2.774505
     30          8           0       -2.974949   -0.758710   -0.911711
     31          6           0       -1.133856   -0.230024   -3.790494
     32          6           0       -1.649830    0.029955   -5.069015
     33          1           0       -1.739502   -0.784526   -5.784260
     34          6           0       -0.981448    0.839134   -2.895589
     35          1           0       -0.577239    0.669789   -1.903432
     36          6           0       -2.011891    1.325514   -5.446825
     37          1           0       -2.392716    1.510902   -6.446152
     38          6           0       -1.343856    2.131212   -3.270789
     39          1           0       -1.227692    2.947920   -2.567373
     40          6           0       -1.860993    2.378069   -4.545097
     41          1           0       -2.135183    3.387189   -4.835414
     42          7           0       -1.087460   -1.893145   -0.327246
     43          1           0       -0.352321   -2.516382   -0.641690
     44          6           0       -0.665875   -1.006718    0.758605
     45          1           0       -1.300133   -0.117340    0.712633
     46          6           0        0.790305   -0.667261    0.432521
     47          6           0       -0.797758   -1.659132    2.149311
     48          1           0       -0.167940   -2.560396    2.135337
     49          8           0        1.580914   -1.590331    0.150926
     50          6           0       -0.279081   -0.709127    3.236322
     51          1           0       -0.876557    0.209921    3.257594
     52          1           0       -0.365934   -1.177892    4.220758
     53          1           0        0.765306   -0.425138    3.079082
     54          6           0       -2.248062   -2.077417    2.404947
     55          1           0       -2.905202   -1.201122    2.415353
     56          1           0       -2.611263   -2.761297    1.633170
     57          1           0       -2.336268   -2.576327    3.374305
     58          7           0        1.106184    0.627392    0.424035
     59          1           0        0.384658    1.338487    0.585794
     60          6           0        2.453406    1.108756    0.181174
     61          1           0        2.786949    0.756176   -0.802261
     62          6           0        3.444740    0.551095    1.219562
     63          6           0        2.504495    2.645400    0.207088
     64          1           0        2.235542    2.993984    1.210097
     65          1           0        3.548278    2.925207    0.044825
     66          8           0        3.026133    0.049941    2.303534
     67          6           0        1.637343    3.353064   -0.853294
     68          1           0        1.557478    2.731586   -1.754929
     69          1           0        2.130070    4.278260   -1.165722
     70          6           0        0.217556    3.657678   -0.396823
     71          7           0       -0.287055    4.851522   -0.794073
     72          1           0        0.292059    5.562290   -1.212017
     73          1           0       -1.202467    5.113257   -0.456932
     74          8           0       -0.471715    2.865094    0.254382
     75          7           0        4.697326    0.630340    0.846128
     76          1           0        5.092367    1.189180   -0.010584
     77          6           0        5.919716    0.526498    1.643312
     78          1           0        5.818966    1.128225    2.554977
     79          6           0        6.982158    1.246568    0.698477
     80          6           0        6.362486   -0.889874    2.011791
     81          1           0        7.455441   -0.859083    2.038792
     82          1           0        6.108127   -1.557064    1.174704
     83          8           0        8.159096    1.197777    1.051415
     84          6           0        5.824749   -1.434189    3.359414
     85          1           0        6.572146   -1.238190    4.133129
     86          1           0        4.931524   -0.875736    3.661683
     87          6           0        5.510072   -2.945550    3.341972
     88          1           0        5.710282   -3.399905    4.317535
     89          1           0        6.170545   -3.454562    2.629455
     90          6           0        4.050602   -3.268869    3.009161
     91          1           0        3.914086   -4.326227    2.768909
     92          1           0        3.394714   -3.018173    3.847024
     93          7           0        3.562241   -2.449331    1.856373
     94          1           0        2.651823   -2.716387    1.466347
     95          1           0        4.224008   -2.447507    1.078894
     96          1           0        3.418255   -1.414763    2.142937
     97          8           0        6.434751    1.783432   -0.324883
 ---------------------------------------------------------------------

 SCF Done:  E(RB3LYP) =  -2122.63209919     A.U. after    3 cycles

 Alpha  occ. eigenvalues --  -19.27537 -19.22392 -19.21956 -19.21269 -19.18949
 Alpha  occ. eigenvalues --  -19.10564 -19.08865 -14.59740 -14.50341 -14.50041
 Alpha  occ. eigenvalues --  -14.46074 -14.45853 -14.44287 -14.39673 -10.44021
 Alpha  occ. eigenvalues --  -10.40566 -10.39383 -10.39260 -10.37802 -10.35726
 Alpha  occ. eigenvalues --  -10.35207 -10.34146 -10.32654 -10.31878 -10.31244
 Alpha  occ. eigenvalues --  -10.31127 -10.30953 -10.30451 -10.30216 -10.29522
 Alpha  occ. eigenvalues --  -10.29303 -10.29018 -10.29006 -10.28984 -10.28898
 Alpha  occ. eigenvalues --  -10.27874 -10.27840 -10.27748 -10.27642 -10.26751
 Alpha  occ. eigenvalues --  -10.25009 -10.24902 -10.24320 -10.24195 -10.23005
 Alpha  occ. eigenvalues --   -1.20077  -1.14586  -1.13762  -1.13553  -1.12729
 Alpha  occ. eigenvalues --   -1.10001  -1.07248  -1.05809  -1.03537  -1.02840
 Alpha  occ. eigenvalues --   -1.01384  -1.00434  -0.97385  -0.96287  -0.95551
 Alpha  occ. eigenvalues --   -0.94400  -0.91176  -0.89205  -0.88096  -0.87507
 Alpha  occ. eigenvalues --   -0.86936  -0.84813  -0.84649  -0.83687  -0.82919
 Alpha  occ. eigenvalues --   -0.81272  -0.79212  -0.76996  -0.76559  -0.75800
 Alpha  occ. eigenvalues --   -0.75732  -0.74517  -0.73843  -0.72475  -0.71569
 Alpha  occ. eigenvalues --   -0.70640  -0.70522  -0.69909  -0.69088  -0.68523
 Alpha  occ. eigenvalues --   -0.68243  -0.66990  -0.66452  -0.66096  -0.64816
 Alpha  occ. eigenvalues --   -0.64329  -0.63673  -0.63366  -0.63203  -0.62109
 Alpha  occ. eigenvalues --   -0.61496  -0.60834  -0.59906  -0.59296  -0.58744
 Alpha  occ. eigenvalues --   -0.58533  -0.58161  -0.57984  -0.57195  -0.56690
 Alpha  occ. eigenvalues --   -0.56628  -0.56078  -0.55702  -0.54765  -0.54649
 Alpha  occ. eigenvalues --   -0.53972  -0.53714  -0.53366  -0.53151  -0.52960
 Alpha  occ. eigenvalues --   -0.52423  -0.51904  -0.51625  -0.51139  -0.51095
 Alpha  occ. eigenvalues --   -0.50650  -0.50604  -0.50228  -0.50084  -0.50068
 Alpha  occ. eigenvalues --   -0.49293  -0.49049  -0.48945  -0.48814  -0.48603
 Alpha  occ. eigenvalues --   -0.48035  -0.47837  -0.47438  -0.46670  -0.46380
 Alpha  occ. eigenvalues --   -0.46154  -0.45790  -0.45364  -0.44783  -0.44675
 Alpha  occ. eigenvalues --   -0.44451  -0.44384  -0.44247  -0.43907  -0.43841
 Alpha  occ. eigenvalues --   -0.43469  -0.43257  -0.42231  -0.41867  -0.41598
 Alpha  occ. eigenvalues --   -0.41293  -0.40984  -0.40696  -0.40179  -0.39641
 Alpha  occ. eigenvalues --   -0.38202  -0.37969  -0.37309  -0.36982  -0.36858
 Alpha  occ. eigenvalues --   -0.36232  -0.35810  -0.35393  -0.35128  -0.34765
 Alpha  occ. eigenvalues --   -0.34178  -0.33122  -0.31528  -0.25807  -0.25256
 Alpha  occ. eigenvalues --   -0.22945
 Alpha virt. eigenvalues --   -0.13500  -0.11069  -0.10946  -0.10388  -0.08887
 Alpha virt. eigenvalues --   -0.07837  -0.06763  -0.06500  -0.05505  -0.04199
 Alpha virt. eigenvalues --   -0.03099  -0.03030  -0.02207  -0.01588  -0.00825

 Mulliken charges:
               1
     1  N   -0.551513
     2  H    0.349411
     3  H    0.347167
     4  H    0.371887
     5  C   -0.092010
     6  H    0.180231
     7  C    0.662325
     8  C   -0.093862
     9  H    0.129221
    10  O   -0.540819
    11  C   -0.230768
    12  H    0.174313
    13  H    0.080480
    14  C   -0.330605
    15  H    0.098233
    16  H    0.153554
    17  H    0.122736
    18  C   -0.332591
    19  H    0.130825
    20  H    0.125846
    21  H    0.114448
    22  N   -0.516688
    23  H    0.291168
    24  C   -0.033671
    25  H    0.153850
    26  C    0.636476
    27  C   -0.277291
    28  H    0.137322
    29  H    0.144477
    30  O   -0.527011
    31  C    0.084456
    32  C   -0.164886
    33  H    0.099627
    34  C   -0.097664
    35  H    0.097172
    36  C   -0.081549
    37  H    0.109422
    38  C   -0.088467
    39  H    0.107066
    40  C   -0.094104
    41  H    0.108429
    42  N   -0.518060
    43  H    0.275188
    44  C   -0.014021
    45  H    0.144055
    46  C    0.618897
    47  C   -0.051218
    48  H    0.077247
    49  O   -0.623482
    50  C   -0.350257
    51  H    0.110842
    52  H    0.110464
    53  H    0.146161
    54  C   -0.312674
    55  H    0.112799
    56  H    0.108218
    57  H    0.112375
    58  N   -0.528682
    59  H    0.327613
    60  C    0.005535
    61  H    0.136463
    62  C    0.567759
    63  C   -0.223741
    64  H    0.135377
    65  H    0.166090
    66  O   -0.611740
    67  C   -0.278847
    68  H    0.149197
    69  H    0.126585
    70  C    0.597178
    71  N   -0.594164
    72  H    0.291977
    73  H    0.292634
    74  O   -0.541039
    75  N   -0.524564
    76  H    0.332370
    77  C   -0.046414
    78  H    0.123456
    79  C    0.589020
    80  C   -0.190244
    81  H    0.163184
    82  H    0.056612
    83  O   -0.546904
    84  C   -0.221005
    85  H    0.127438
    86  H    0.119567
    87  C   -0.207537
    88  H    0.129586
    89  H    0.122460
    90  C   -0.100291
    91  H    0.139545
    92  H    0.153871
    93  N   -0.588531
    94  H    0.332049
    95  H    0.323205
    96  H    0.413917
    97  O   -0.622165
 Sum of Mulliken charges =   1.00000

 Dipole moment (field-independent basis, Debye):
    X=            -30.0309    Y=             -9.0340    Z=            -11.9183  Tot=             33.5487
 Quadrupole moment (field-independent basis, Debye-Ang):
   XX=           -212.7484   YY=           -191.7100   ZZ=           -197.0604
   XY=             -7.9025   XZ=             89.7242   YZ=             -3.3569

 Normal termination of Gaussian 16 at Thu Sep  8 14:47:04 2022.
