 Gaussian 16, Revision C.01,
 Gaussian 16:  ES64L-G16RevC.01  3-Jul-2019

 ----------------------------------------------------------------------
 # B3LYP/6-31G** empiricaldispersion=gd3bj guess=read geom=check nosymm
  integral(ultrafinegrid)
 ----------------------------------------------------------------------

 ------------------------------------------------------
 Candidate Structure: Conf:428 Charge calc in gas phase
 ------------------------------------------------------
 Structure from the checkpoint file:  "conf-428.chk"
 Charge =  1 Multiplicity = 1

                          Input orientation:
 ---------------------------------------------------------------------
 Center     Atomic      Atomic             Coordinates (Angstroms)
 Number     Number       Type             X           Y           Z
 ---------------------------------------------------------------------
      1          7           0       -3.828132   -5.287016   -3.484065
      2          1           0       -3.930216   -5.900407   -4.290826
      3          1           0       -4.607374   -5.439931   -2.841421
      4          1           0       -2.883816   -5.433684   -2.960381
      5          6           0       -3.670394   -3.825547   -3.833245
      6          1           0       -3.511670   -3.762577   -4.913262
      7          6           0       -2.359789   -3.474538   -3.084059
      8          6           0       -4.886360   -2.979966   -3.414560
      9          1           0       -4.634362   -1.953207   -3.710853
     10          8           0       -1.761651   -4.416405   -2.529873
     11          6           0       -5.094079   -2.987388   -1.886247
     12          1           0       -4.143777   -2.787735   -1.378693
     13          1           0       -5.427436   -3.985405   -1.558144
     14          6           0       -6.133060   -3.395464   -4.206156
     15          1           0       -6.478786   -4.398492   -3.925944
     16          1           0       -6.959570   -2.710785   -4.010253
     17          1           0       -5.947234   -3.389016   -5.284893
     18          6           0       -6.121410   -1.954227   -1.416263
     19          1           0       -6.178696   -1.949203   -0.325388
     20          1           0       -5.829440   -0.948020   -1.735684
     21          1           0       -7.125121   -2.153820   -1.801642
     22          7           0       -2.004434   -2.204466   -3.061194
     23          1           0       -2.545063   -1.521894   -3.583910
     24          6           0       -0.944620   -1.653059   -2.215017
     25          1           0        0.033685   -1.820598   -2.674276
     26          6           0       -1.049126   -2.290283   -0.815224
     27          6           0       -1.176245   -0.123975   -2.075720
     28          1           0       -0.238996    0.301704   -1.714363
     29          1           0       -1.953208    0.030735   -1.321935
     30          8           0       -2.119869   -2.326979   -0.210669
     31          6           0       -1.586613    0.513058   -3.382018
     32          6           0       -0.646337    0.741538   -4.397290
     33          1           0        0.398738    0.512260   -4.201160
     34          6           0       -2.938933    0.798970   -3.626482
     35          1           0       -3.666585    0.652500   -2.830554
     36          6           0       -1.059273    1.252963   -5.626646
     37          1           0       -0.324411    1.435392   -6.404868
     38          6           0       -3.349283    1.307006   -4.862608
     39          1           0       -4.396269    1.539479   -5.032703
     40          6           0       -2.407660    1.532902   -5.865478
     41          1           0       -2.719686    1.933146   -6.825008
     42          7           0        0.125849   -2.711037   -0.316140
     43          1           0        0.943447   -2.719452   -0.913045
     44          6           0        0.327884   -3.170164    1.062833
     45          1           0       -0.387380   -2.624649    1.685404
     46          6           0        1.761755   -2.680696    1.318144
     47          6           0        0.082386   -4.681726    1.252589
     48          1           0       -1.002274   -4.807232    1.139105
     49          8           0        2.690621   -3.165528    0.673027
     50          6           0        0.773349   -5.554605    0.199572
     51          1           0        1.857421   -5.433289    0.237135
     52          1           0        0.531388   -6.607952    0.374732
     53          1           0        0.431606   -5.295132   -0.806660
     54          6           0        0.475598   -5.085314    2.677997
     55          1           0        1.557557   -4.995258    2.821783
     56          1           0       -0.019884   -4.458568    3.427987
     57          1           0        0.199171   -6.124837    2.876294
     58          7           0        1.909471   -1.568031    2.085994
     59          1           0        1.101733   -1.153659    2.536811
     60          6           0        2.878363   -0.579829    1.623504
     61          1           0        3.857638   -1.056841    1.545984
     62          6           0        2.923821    0.614158    2.571587
     63          6           0        2.439042   -0.011525    0.233143
     64          1           0        1.438304   -0.394526    0.016269
     65          1           0        2.364330    1.076148    0.282465
     66          8           0        2.036716    0.821953    3.399457
     67          6           0        3.375173   -0.351673   -0.932256
     68          1           0        3.435612   -1.431339   -1.077896
     69          1           0        4.371452    0.047252   -0.728487
     70          6           0        2.790667    0.292372   -2.176881
     71          7           0        3.182893    1.560265   -2.392001
     72          1           0        3.716960    2.072338   -1.670167
     73          1           0        2.730520    2.074360   -3.133778
     74          8           0        1.957074   -0.312066   -2.876191
     75          7           0        3.947067    1.467630    2.289390
     76          1           0        4.447743    1.251656    1.420877
     77          6           0        3.710917    2.914973    2.250997
     78          1           0        2.643989    3.092911    2.430011
     79          6           0        4.034925    3.433789    0.795260
     80          6           0        4.510111    3.676302    3.301777
     81          1           0        4.357375    4.743454    3.113484
     82          1           0        5.579372    3.467832    3.163054
     83          8           0        3.927383    4.652060    0.628800
     84          6           0        4.088025    3.291005    4.718918
     85          1           0        3.022404    3.510912    4.858219
     86          1           0        4.196602    2.207652    4.845847
     87          6           0        4.911577    4.026639    5.784356
     88          1           0        4.794378    5.111412    5.656173
     89          1           0        5.976726    3.794342    5.648278
     90          6           0        4.471175    3.621302    7.177518
     91          1           0        3.429898    3.880207    7.379708
     92          1           0        4.617864    2.556508    7.369449
     93          7           0        5.301915    4.359864    8.236231
     94          1           0        5.032686    4.112584    9.193711
     95          1           0        5.196124    5.373797    8.126195
     96          1           0        6.297730    4.145697    8.118883
     97          8           0        4.357449    2.515380   -0.030870
 ---------------------------------------------------------------------

 SCF Done:  E(RB3LYP) =  -2122.58269832     A.U. after    3 cycles

 Alpha  occ. eigenvalues --  -19.24917 -19.18198 -19.16925 -19.15948 -19.14462
 Alpha  occ. eigenvalues --  -19.10172 -19.08631 -14.62979 -14.56491 -14.47082
 Alpha  occ. eigenvalues --  -14.42695 -14.40385 -14.37365 -14.36827 -10.41010
 Alpha  occ. eigenvalues --  -10.39397 -10.37835 -10.35483 -10.33905 -10.32284
 Alpha  occ. eigenvalues --  -10.31711 -10.31430 -10.31178 -10.31069 -10.28805
 Alpha  occ. eigenvalues --  -10.28758 -10.28078 -10.27589 -10.27346 -10.26208
 Alpha  occ. eigenvalues --  -10.26070 -10.26004 -10.25819 -10.25619 -10.25516
 Alpha  occ. eigenvalues --  -10.25074 -10.24890 -10.24254 -10.24068 -10.23997
 Alpha  occ. eigenvalues --  -10.22828 -10.22812 -10.22336 -10.21653 -10.21231
 Alpha  occ. eigenvalues --   -1.17365  -1.16851  -1.10833  -1.10070  -1.08957
 Alpha  occ. eigenvalues --   -1.07216  -1.05349  -1.04170  -1.02675  -0.99068
 Alpha  occ. eigenvalues --   -0.97156  -0.95477  -0.93748  -0.93201  -0.92570
 Alpha  occ. eigenvalues --   -0.92090  -0.91868  -0.87332  -0.85510  -0.84502
 Alpha  occ. eigenvalues --   -0.84418  -0.82830  -0.82103  -0.80592  -0.80243
 Alpha  occ. eigenvalues --   -0.78644  -0.77477  -0.75665  -0.75349  -0.74566
 Alpha  occ. eigenvalues --   -0.74307  -0.72913  -0.72278  -0.71587  -0.70739
 Alpha  occ. eigenvalues --   -0.69952  -0.69056  -0.67395  -0.67070  -0.66623
 Alpha  occ. eigenvalues --   -0.66006  -0.65544  -0.64429  -0.63558  -0.62578
 Alpha  occ. eigenvalues --   -0.62020  -0.61744  -0.60432  -0.60087  -0.59779
 Alpha  occ. eigenvalues --   -0.59507  -0.59460  -0.57902  -0.57323  -0.56296
 Alpha  occ. eigenvalues --   -0.56021  -0.55561  -0.55297  -0.54093  -0.53508
 Alpha  occ. eigenvalues --   -0.53254  -0.52884  -0.52677  -0.52118  -0.51895
 Alpha  occ. eigenvalues --   -0.51621  -0.51239  -0.50901  -0.50291  -0.49961
 Alpha  occ. eigenvalues --   -0.49531  -0.49061  -0.48955  -0.48338  -0.48270
 Alpha  occ. eigenvalues --   -0.48129  -0.48022  -0.47663  -0.47436  -0.47279
 Alpha  occ. eigenvalues --   -0.46663  -0.46368  -0.46295  -0.45305  -0.44842
 Alpha  occ. eigenvalues --   -0.44659  -0.44237  -0.44143  -0.43863  -0.43486
 Alpha  occ. eigenvalues --   -0.43323  -0.43108  -0.42832  -0.42760  -0.42505
 Alpha  occ. eigenvalues --   -0.42298  -0.41917  -0.41807  -0.41025  -0.39973
 Alpha  occ. eigenvalues --   -0.39917  -0.39754  -0.39610  -0.39574  -0.39091
 Alpha  occ. eigenvalues --   -0.38777  -0.38342  -0.38299  -0.38177  -0.37981
 Alpha  occ. eigenvalues --   -0.37876  -0.37079  -0.36137  -0.32510  -0.32068
 Alpha  occ. eigenvalues --   -0.31456  -0.31154  -0.30673  -0.30075  -0.29421
 Alpha  occ. eigenvalues --   -0.29169  -0.28986  -0.27984  -0.25208  -0.24900
 Alpha  occ. eigenvalues --   -0.22588
 Alpha virt. eigenvalues --   -0.13520  -0.10368  -0.08306  -0.07261  -0.06890
 Alpha virt. eigenvalues --   -0.06798  -0.06657  -0.05600  -0.04218  -0.03948
 Alpha virt. eigenvalues --   -0.03107  -0.02221  -0.01263  -0.00551  -0.00509

 Mulliken charges:
               1
     1  N   -0.563055
     2  H    0.342899
     3  H    0.338809
     4  H    0.379047
     5  C   -0.088770
     6  H    0.173540
     7  C    0.657419
     8  C   -0.088507
     9  H    0.129435
    10  O   -0.549849
    11  C   -0.223763
    12  H    0.174592
    13  H    0.076892
    14  C   -0.328725
    15  H    0.094540
    16  H    0.150840
    17  H    0.120620
    18  C   -0.327935
    19  H    0.135532
    20  H    0.118465
    21  H    0.114975
    22  N   -0.512268
    23  H    0.287378
    24  C    0.001979
    25  H    0.170036
    26  C    0.613365
    27  C   -0.258411
    28  H    0.160412
    29  H    0.128020
    30  O   -0.547378
    31  C    0.041449
    32  C   -0.112786
    33  H    0.140315
    34  C   -0.170489
    35  H    0.091027
    36  C   -0.090276
    37  H    0.104711
    38  C   -0.085739
    39  H    0.092997
    40  C   -0.085883
    41  H    0.099464
    42  N   -0.530730
    43  H    0.296985
    44  C    0.032152
    45  H    0.117176
    46  C    0.563367
    47  C   -0.046992
    48  H    0.098246
    49  O   -0.524847
    50  C   -0.332182
    51  H    0.141991
    52  H    0.092011
    53  H    0.104901
    54  C   -0.326415
    55  H    0.124326
    56  H    0.098257
    57  H    0.108178
    58  N   -0.513508
    59  H    0.271140
    60  C   -0.005435
    61  H    0.148059
    62  C    0.540592
    63  C   -0.207758
    64  H    0.092342
    65  H    0.140965
    66  O   -0.547484
    67  C   -0.239222
    68  H    0.131373
    69  H    0.132130
    70  C    0.527690
    71  N   -0.593269
    72  H    0.331029
    73  H    0.261157
    74  O   -0.558630
    75  N   -0.509560
    76  H    0.279203
    77  C   -0.055087
    78  H    0.115366
    79  C    0.583059
    80  C   -0.163650
    81  H    0.126901
    82  H    0.092167
    83  O   -0.556846
    84  C   -0.183749
    85  H    0.116832
    86  H    0.128371
    87  C   -0.211962
    88  H    0.125000
    89  H    0.122772
    90  C   -0.131224
    91  H    0.187393
    92  H    0.188312
    93  N   -0.545000
    94  H    0.362749
    95  H    0.363878
    96  H    0.363632
    97  O   -0.631076
 Sum of Mulliken charges =   1.00000

 Dipole moment (field-independent basis, Debye):
    X=             -2.4032    Y=             -2.5458    Z=             17.8586  Tot=             18.1985
 Quadrupole moment (field-independent basis, Debye-Ang):
   XX=           -122.1592   YY=           -155.1625   ZZ=             61.0188
   XY=            128.7304   XZ=            231.6240   YZ=            190.4925

 Normal termination of Gaussian 16 at Thu Sep  8 14:41:20 2022.
