 Gaussian 16, Revision C.01,
 Gaussian 16:  ES64L-G16RevC.01  3-Jul-2019

 ----------------------------------------------------------------------
 # B3LYP/6-31G* empiricaldispersion=gd3 guess=read geom=check nosymm in
 tegral(ultrafinegrid)
 ----------------------------------------------------------------------

 ------------------------------------------------------
 Candidate Structure: Conf:231 Charge calc in gas phase
 ------------------------------------------------------
 Structure from the checkpoint file:  "conf-231.chk"
 Charge =  1 Multiplicity = 1

                          Input orientation:
 ---------------------------------------------------------------------
 Center     Atomic      Atomic             Coordinates (Angstroms)
 Number     Number       Type             X           Y           Z
 ---------------------------------------------------------------------
      1          7           0       -4.997515    1.686556    2.457089
      2          1           0       -4.959007    2.546739    1.849605
      3          1           0       -5.188438    0.889819    1.817831
      4          1           0       -5.738597    1.776281    3.156468
      5          6           0       -3.638029    1.389867    3.054537
      6          1           0       -3.213765    2.342830    3.382274
      7          6           0       -2.887494    0.788115    1.846662
      8          6           0       -3.745798    0.389615    4.208527
      9          1           0       -4.233128   -0.520637    3.837791
     10          1           0       -2.728039    0.103180    4.491380
     11          8           0       -3.528450    0.045434    1.102222
     12          6           0       -4.474912    0.943478    5.444498
     13          1           0       -5.509452    1.234187    5.233806
     14          1           0       -3.944039    1.826028    5.823511
     15          6           0       -4.556093   -0.079941    6.567790
     16          8           0       -5.576906   -0.440102    7.099051
     17          8           0       -3.324463   -0.534734    6.891800
     18          7           0       -1.603165    1.136582    1.680992
     19          1           0       -1.161850    1.810799    2.298297
     20          6           0       -0.943533    0.980159    0.383990
     21          1           0       -1.308909    0.053755   -0.061297
     22          6           0        0.557994    0.959428    0.692340
     23          6           0       -1.243620    2.206972   -0.548994
     24          1           0       -1.016852    1.918354   -1.580081
     25          1           0       -0.551711    3.006211   -0.265961
     26          8           0        1.027489    1.860482    1.398782
     27          6           0       -2.651244    2.715175   -0.446993
     28          6           0       -3.094590    3.652390    0.439805
     29          1           0       -2.530962    4.263117    1.133433
     30          6           0       -3.821159    2.218306   -1.154166
     31          6           0       -4.947829    2.885827   -0.630203
     32          6           0       -3.987410    1.289482   -2.190789
     33          1           0       -3.126435    0.812807   -2.646973
     34          7           0       -4.513052    3.720405    0.433853
     35          1           0       -4.956643    4.629013    0.542628
     36          6           0       -6.387659    1.728935   -2.125383
     37          1           0       -7.377107    1.531712   -2.526626
     38          6           0       -6.241956    2.656681   -1.094472
     39          1           0       -7.098275    3.189607   -0.689493
     40          6           0       -5.274958    1.056816   -2.665294
     41          1           0       -5.425989    0.351778   -3.476815
     42          7           0        1.278028   -0.032107    0.140452
     43          1           0        0.781112   -0.841626   -0.212658
     44          6           0        2.682848   -0.277178    0.508193
     45          1           0        2.797443   -0.004008    1.563960
     46          6           0        3.619639    0.596821   -0.364169
     47          6           0        3.001922   -1.766133    0.312020
     48          1           0        3.077562   -1.952859   -0.768109
     49          8           0        4.330149    0.114342   -1.240215
     50          6           0        4.313406   -2.155133    0.985552
     51          1           0        5.146233   -1.595265    0.552322
     52          1           0        4.512949   -3.222142    0.833578
     53          1           0        4.262103   -1.965773    2.063306
     54          8           0        1.881931   -2.476704    0.860917
     55          1           0        2.043347   -3.423253    0.725339
     56          7           0        3.562992    1.924190   -0.093367
     57          1           0        2.921986    2.249392    0.623963
     58          6           0        4.286979    2.880756   -0.921380
     59          1           0        5.281642    2.455025   -1.109030
     60          6           0        4.518943    4.196291   -0.186580
     61          6           0        3.603057    3.118168   -2.281649
     62          1           0        3.577188    2.148738   -2.791439
     63          1           0        4.234378    3.788702   -2.873287
     64          8           0        4.726751    5.250042   -0.742795
     65          6           0        2.189747    3.694100   -2.151579
     66          1           0        1.621026    3.126383   -1.404861
     67          1           0        2.242466    4.731241   -1.797333
     68          6           0        1.421007    3.629910   -3.475815
     69          1           0        1.959790    4.170906   -4.265210
     70          1           0        1.369676    2.585942   -3.797316
     71          7           0        0.062552    4.138627   -3.345487
     72          1           0       -0.037566    5.144002   -3.404682
     73          7           0       -2.239529    4.182892   -3.438795
     74          1           0       -3.070734    3.618350   -3.572305
     75          1           0       -2.260254    4.676879   -2.552999
     76          7           0       -1.204437    2.204987   -4.057740
     77          1           0       -0.312835    1.812566   -4.358606
     78          6           0       -1.085079    3.424075   -3.651790
     79          8           0        4.493537    4.061529    1.160072
     80          1           0       -3.433528   -1.180056    7.616932
     81          1           0        4.688912    4.944638    1.528066
 ---------------------------------------------------------------------

 SCF Done:  E(RB3LYP) =  -2054.02011161     A.U. after    1 cycles

 Alpha  occ. eigenvalues --  -19.30100 -19.27447 -19.26060 -19.24403 -19.23362
 Alpha  occ. eigenvalues --  -19.23045 -19.21450 -19.19409 -14.59078 -14.50360
 Alpha  occ. eigenvalues --  -14.49772 -14.47040 -14.43484 -14.42459 -14.40923
 Alpha  occ. eigenvalues --  -14.35582 -10.43328 -10.42956 -10.40782 -10.39977
 Alpha  occ. eigenvalues --  -10.39729 -10.36680 -10.35470 -10.35364 -10.34394
 Alpha  occ. eigenvalues --  -10.33724 -10.33400 -10.33206 -10.32364 -10.32266
 Alpha  occ. eigenvalues --  -10.31429 -10.30774 -10.30003 -10.29687 -10.29600
 Alpha  occ. eigenvalues --  -10.29522 -10.28845 -10.28353 -10.28090 -10.25810
 Alpha  occ. eigenvalues --  -10.25771 -10.24985  -1.20924  -1.18788  -1.18244
 Alpha  occ. eigenvalues --   -1.14925  -1.13455  -1.12150  -1.11481  -1.10573
 Alpha  occ. eigenvalues --   -1.09184  -1.09103  -1.06326  -1.04617  -1.03043
 Alpha  occ. eigenvalues --   -1.00265  -0.95815  -0.95119  -0.94602  -0.91984
 Alpha  occ. eigenvalues --   -0.90937  -0.89177  -0.87737  -0.86569  -0.85471
 Alpha  occ. eigenvalues --   -0.84004  -0.82872  -0.82143  -0.79249  -0.78756
 Alpha  occ. eigenvalues --   -0.76764  -0.75212  -0.74027  -0.72731  -0.72266
 Alpha  occ. eigenvalues --   -0.71865  -0.71586  -0.71017  -0.70020  -0.69907
 Alpha  occ. eigenvalues --   -0.68839  -0.67238  -0.66344  -0.65343  -0.65075
 Alpha  occ. eigenvalues --   -0.64758  -0.64125  -0.63824  -0.62420  -0.61906
 Alpha  occ. eigenvalues --   -0.60766  -0.60308  -0.59666  -0.59278  -0.59222
 Alpha  occ. eigenvalues --   -0.58719  -0.58642  -0.58371  -0.57829  -0.57093
 Alpha  occ. eigenvalues --   -0.56830  -0.56316  -0.55844  -0.55594  -0.55157
 Alpha  occ. eigenvalues --   -0.54677  -0.53986  -0.53718  -0.53557  -0.53058
 Alpha  occ. eigenvalues --   -0.52950  -0.52601  -0.51846  -0.51267  -0.51214
 Alpha  occ. eigenvalues --   -0.50721  -0.50549  -0.50436  -0.50205  -0.50010
 Alpha  occ. eigenvalues --   -0.49688  -0.49385  -0.48983  -0.48785  -0.47956
 Alpha  occ. eigenvalues --   -0.47609  -0.47435  -0.47078  -0.46539  -0.45882
 Alpha  occ. eigenvalues --   -0.45277  -0.44923  -0.44859  -0.44420  -0.44071
 Alpha  occ. eigenvalues --   -0.43677  -0.42337  -0.42240  -0.42055  -0.41398
 Alpha  occ. eigenvalues --   -0.41127  -0.40754  -0.39883  -0.39267  -0.38450
 Alpha  occ. eigenvalues --   -0.37818  -0.37488  -0.36815  -0.35796  -0.35297
 Alpha  occ. eigenvalues --   -0.33835  -0.33308  -0.33092  -0.32624  -0.32417
 Alpha  occ. eigenvalues --   -0.32257  -0.29864
 Alpha virt. eigenvalues --   -0.13301  -0.12587  -0.09894  -0.09629  -0.09508
 Alpha virt. eigenvalues --   -0.09026  -0.06864  -0.06040  -0.05817  -0.05434
 Alpha virt. eigenvalues --   -0.04088  -0.02485  -0.02458  -0.02132  -0.01923

 Mulliken charges:
               1
     1  N   -0.772004
     2  H    0.442230
     3  H    0.424845
     4  H    0.402814
     5  C   -0.113067
     6  H    0.189567
     7  C    0.658127
     8  C   -0.294551
     9  H    0.196023
    10  H    0.219301
    11  O   -0.522958
    12  C   -0.367784
    13  H    0.166560
    14  H    0.194711
    15  C    0.580854
    16  O   -0.423677
    17  O   -0.558253
    18  N   -0.595849
    19  H    0.354396
    20  C   -0.053499
    21  H    0.197909
    22  C    0.637012
    23  C   -0.384713
    24  H    0.210960
    25  H    0.182594
    26  O   -0.561920
    27  C    0.095961
    28  C   -0.088372
    29  H    0.162712
    30  C    0.121135
    31  C    0.210750
    32  C   -0.191926
    33  H    0.184317
    34  N   -0.724850
    35  H    0.356448
    36  C   -0.140691
    37  H    0.158581
    38  C   -0.192006
    39  H    0.142835
    40  C   -0.140299
    41  H    0.161417
    42  N   -0.599393
    43  H    0.360453
    44  C   -0.070685
    45  H    0.187415
    46  C    0.640255
    47  C    0.115146
    48  H    0.160981
    49  O   -0.521526
    50  C   -0.477162
    51  H    0.189818
    52  H    0.154217
    53  H    0.158209
    54  O   -0.653413
    55  H    0.408098
    56  N   -0.629397
    57  H    0.375690
    58  C   -0.045194
    59  H    0.214785
    60  C    0.579435
    61  C   -0.271081
    62  H    0.168681
    63  H    0.173643
    64  O   -0.455481
    65  C   -0.276766
    66  H    0.136187
    67  H    0.154052
    68  C   -0.139762
    69  H    0.166481
    70  H    0.148486
    71  N   -0.608898
    72  H    0.331753
    73  N   -0.746123
    74  H    0.344011
    75  H    0.310350
    76  N   -0.665524
    77  H    0.282871
    78  C    0.585810
    79  O   -0.564765
    80  H    0.432603
    81  H    0.420101
 Sum of Mulliken charges =   1.00000

 Dipole moment (field-independent basis, Debye):
    X=            -14.2638    Y=              9.4929    Z=             10.8202  Tot=             20.2644
 Quadrupole moment (field-independent basis, Debye-Ang):
   XX=           -154.8832   YY=           -188.4869   ZZ=           -204.2803
   XY=            -47.3049   XZ=            -27.7000   YZ=             17.4521

 Normal termination of Gaussian 16 at Fri May 13 04:40:05 2022.
