 Gaussian 16, Revision C.01,
 Gaussian 16:  ES64L-G16RevC.01  3-Jul-2019

 ----------------------------------------------------------------------
 # B3LYP/6-31G* empiricaldispersion=gd3 guess=read geom=check nosymm in
 tegral(ultrafinegrid)
 ----------------------------------------------------------------------

 ------------------------------------------------------
 Candidate Structure: Conf:796 Charge calc in gas phase
 ------------------------------------------------------
 Structure from the checkpoint file:  "conf-796.chk"
 Charge =  1 Multiplicity = 1

                          Input orientation:
 ---------------------------------------------------------------------
 Center     Atomic      Atomic             Coordinates (Angstroms)
 Number     Number       Type             X           Y           Z
 ---------------------------------------------------------------------
      1          7           0       -5.238968   -1.431527    1.317836
      2          1           0       -5.870218   -0.599596    1.305466
      3          1           0       -5.348065   -1.890982    0.386188
      4          1           0       -5.490895   -2.058399    2.085758
      5          6           0       -3.802933   -0.971579    1.340964
      6          1           0       -3.775862   -0.045462    1.920575
      7          6           0       -3.500386   -0.677152   -0.148820
      8          6           0       -2.841811   -2.005916    1.928445
      9          1           0       -2.934012   -2.954103    1.385640
     10          1           0       -1.838034   -1.626314    1.717378
     11          8           0       -4.210478   -1.192055   -1.017139
     12          6           0       -2.981000   -2.219237    3.446771
     13          1           0       -3.593090   -3.088827    3.704704
     14          1           0       -3.460827   -1.351038    3.923164
     15          6           0       -1.632923   -2.336643    4.151828
     16          8           0       -0.615267   -1.767346    3.806028
     17          8           0       -1.716706   -3.102961    5.243732
     18          7           0       -2.470500    0.144814   -0.343872
     19          1           0       -1.958076    0.469279    0.475368
     20          6           0       -2.172302    0.812455   -1.624756
     21          1           0       -2.102862    0.050598   -2.409171
     22          6           0       -0.795982    1.483816   -1.396005
     23          6           0       -3.255697    1.865341   -1.985179
     24          1           0       -4.095589    1.341901   -2.451748
     25          1           0       -2.825005    2.536622   -2.732324
     26          8           0       -0.588537    2.667272   -1.641117
     27          6           0       -3.737937    2.614545   -0.776130
     28          6           0       -3.101117    3.639674   -0.119447
     29          1           0       -2.192927    4.157944   -0.391677
     30          6           0       -4.899690    2.287889    0.011859
     31          6           0       -4.888488    3.138470    1.157675
     32          6           0       -5.963807    1.381567   -0.147341
     33          1           0       -6.023179    0.757603   -1.034313
     34          7           0       -3.784848    3.949688    1.043460
     35          1           0       -3.564685    4.722927    1.653577
     36          6           0       -6.887142    2.128513    1.993931
     37          1           0       -7.672264    2.060859    2.741059
     38          6           0       -5.864258    3.056116    2.159429
     39          1           0       -5.835654    3.707843    3.027989
     40          6           0       -6.946946    1.304792    0.843599
     41          1           0       -7.813766    0.663154    0.694440
     42          7           0        0.120111    0.681754   -0.790622
     43          1           0       -0.147504   -0.278099   -0.615622
     44          6           0        1.091454    1.239316    0.158736
     45          1           0        0.745436    2.249343    0.408154
     46          6           0        2.480342    1.329229   -0.504606
     47          6           0        1.088239    0.383645    1.429396
     48          1           0        1.503148   -0.603825    1.181840
     49          8           0        3.398450    0.569575   -0.209921
     50          6           0        1.904354    1.011016    2.552362
     51          1           0        2.953771    1.083135    2.256671
     52          1           0        1.844746    0.389855    3.453319
     53          1           0        1.521572    2.008549    2.794803
     54          8           0       -0.304243    0.247409    1.808960
     55          1           0       -0.335812   -0.355148    2.575904
     56          7           0        2.549207    2.296325   -1.446292
     57          1           0        1.748287    2.896688   -1.619448
     58          6           0        3.732563    2.488370   -2.266912
     59          1           0        4.608178    2.303158   -1.636914
     60          6           0        3.752680    3.939577   -2.721555
     61          6           0        3.788945    1.516062   -3.468320
     62          1           0        3.798804    0.499012   -3.061022
     63          1           0        4.742751    1.658001   -3.984025
     64          8           0        2.842889    4.726696   -2.571846
     65          6           0        2.616782    1.688751   -4.442067
     66          1           0        1.666064    1.646088   -3.891364
     67          1           0        2.656157    2.686598   -4.904373
     68          6           0        2.580881    0.626103   -5.553230
     69          1           0        2.494801   -0.367587   -5.106011
     70          1           0        1.691954    0.779086   -6.176464
     71          7           0        3.749089    0.624808   -6.440936
     72          1           0        3.869430    1.501193   -6.938489
     73          7           0        4.845267   -1.150921   -5.377917
     74          1           0        5.763501   -1.553085   -5.219795
     75          1           0        4.234571   -1.811075   -5.849833
     76          7           0        6.149574    0.542229   -6.275304
     77          1           0        6.101714    1.495102   -6.642603
     78          6           0        4.977913    0.063997   -6.061657
     79          8           0        4.904974    4.239073   -3.352541
     80          1           0       -0.846153   -3.096701    5.689165
     81          1           0        4.844825    5.173015   -3.630561
 ---------------------------------------------------------------------

 SCF Done:  E(RB3LYP) =  -2054.02824209     A.U. after    1 cycles

 Alpha  occ. eigenvalues --  -19.32813 -19.27912 -19.26635 -19.26539 -19.24987
 Alpha  occ. eigenvalues --  -19.22994 -19.21039 -19.18822 -14.59944 -14.49459
 Alpha  occ. eigenvalues --  -14.48212 -14.46372 -14.42755 -14.39691 -14.38396
 Alpha  occ. eigenvalues --  -14.32880 -10.46197 -10.43467 -10.40884 -10.39746
 Alpha  occ. eigenvalues --  -10.38968 -10.36137 -10.35279 -10.35050 -10.35020
 Alpha  occ. eigenvalues --  -10.33516 -10.32674 -10.32374 -10.32311 -10.31589
 Alpha  occ. eigenvalues --  -10.30296 -10.29921 -10.29758 -10.29610 -10.29497
 Alpha  occ. eigenvalues --  -10.29250 -10.29147 -10.28225 -10.27769 -10.25723
 Alpha  occ. eigenvalues --  -10.24711 -10.24530  -1.24074  -1.19041  -1.17536
 Alpha  occ. eigenvalues --   -1.15214  -1.14837  -1.14032  -1.11833  -1.10641
 Alpha  occ. eigenvalues --   -1.08621  -1.08149  -1.06776  -1.02728  -1.01778
 Alpha  occ. eigenvalues --   -0.99610  -0.95971  -0.94730  -0.93197  -0.91347
 Alpha  occ. eigenvalues --   -0.89237  -0.88570  -0.87755  -0.86099  -0.85470
 Alpha  occ. eigenvalues --   -0.84346  -0.82437  -0.80838  -0.80341  -0.79213
 Alpha  occ. eigenvalues --   -0.76562  -0.74364  -0.73687  -0.73169  -0.72906
 Alpha  occ. eigenvalues --   -0.72012  -0.71801  -0.71416  -0.69716  -0.68926
 Alpha  occ. eigenvalues --   -0.68042  -0.67358  -0.66788  -0.65373  -0.64507
 Alpha  occ. eigenvalues --   -0.64394  -0.64084  -0.63653  -0.63492  -0.62915
 Alpha  occ. eigenvalues --   -0.61659  -0.60523  -0.60344  -0.59715  -0.58969
 Alpha  occ. eigenvalues --   -0.58733  -0.58382  -0.57679  -0.57259  -0.56701
 Alpha  occ. eigenvalues --   -0.56152  -0.55661  -0.54880  -0.54567  -0.54178
 Alpha  occ. eigenvalues --   -0.54080  -0.53785  -0.53585  -0.53355  -0.52813
 Alpha  occ. eigenvalues --   -0.52404  -0.52238  -0.51971  -0.51554  -0.50996
 Alpha  occ. eigenvalues --   -0.50806  -0.50789  -0.50553  -0.49990  -0.49903
 Alpha  occ. eigenvalues --   -0.49740  -0.49199  -0.48603  -0.48106  -0.47759
 Alpha  occ. eigenvalues --   -0.47291  -0.47109  -0.46857  -0.46312  -0.45985
 Alpha  occ. eigenvalues --   -0.45513  -0.45256  -0.45126  -0.44358  -0.43986
 Alpha  occ. eigenvalues --   -0.43865  -0.42855  -0.42490  -0.41864  -0.41514
 Alpha  occ. eigenvalues --   -0.40920  -0.40352  -0.39398  -0.39276  -0.38647
 Alpha  occ. eigenvalues --   -0.38169  -0.37600  -0.37153  -0.36524  -0.34547
 Alpha  occ. eigenvalues --   -0.33345  -0.32358  -0.32005  -0.30885  -0.30714
 Alpha  occ. eigenvalues --   -0.29982  -0.27100
 Alpha virt. eigenvalues --   -0.13666  -0.12230  -0.11873  -0.10786  -0.09404
 Alpha virt. eigenvalues --   -0.08841  -0.06096  -0.05458  -0.04746  -0.04265
 Alpha virt. eigenvalues --   -0.03972  -0.03769  -0.02733  -0.01975  -0.01307

 Mulliken charges:
               1
     1  N   -0.753765
     2  H    0.406293
     3  H    0.418877
     4  H    0.405576
     5  C   -0.135209
     6  H    0.222866
     7  C    0.664116
     8  C   -0.306772
     9  H    0.190821
    10  H    0.213522
    11  O   -0.538486
    12  C   -0.384482
    13  H    0.200668
    14  H    0.198464
    15  C    0.601279
    16  O   -0.463468
    17  O   -0.534302
    18  N   -0.648088
    19  H    0.395945
    20  C   -0.033856
    21  H    0.202630
    22  C    0.581893
    23  C   -0.363490
    24  H    0.172943
    25  H    0.202050
    26  O   -0.507306
    27  C    0.050880
    28  C    0.009462
    29  H    0.203877
    30  C    0.072102
    31  C    0.316410
    32  C   -0.248732
    33  H    0.165944
    34  N   -0.683441
    35  H    0.348087
    36  C   -0.152183
    37  H    0.152851
    38  C   -0.162031
    39  H    0.153953
    40  C   -0.227196
    41  H    0.151641
    42  N   -0.573740
    43  H    0.341840
    44  C   -0.084969
    45  H    0.180069
    46  C    0.649836
    47  C    0.114406
    48  H    0.157654
    49  O   -0.529524
    50  C   -0.479453
    51  H    0.200336
    52  H    0.156899
    53  H    0.153256
    54  O   -0.709575
    55  H    0.446739
    56  N   -0.618036
    57  H    0.371504
    58  C   -0.047380
    59  H    0.205907
    60  C    0.584044
    61  C   -0.272540
    62  H    0.179977
    63  H    0.184280
    64  O   -0.467702
    65  C   -0.278075
    66  H    0.133867
    67  H    0.137781
    68  C   -0.147609
    69  H    0.158564
    70  H    0.147240
    71  N   -0.579356
    72  H    0.310111
    73  N   -0.735747
    74  H    0.340658
    75  H    0.321807
    76  N   -0.624535
    77  H    0.264770
    78  C    0.545570
    79  O   -0.559858
    80  H    0.439420
    81  H    0.421218
 Sum of Mulliken charges =   1.00000

 Dipole moment (field-independent basis, Debye):
    X=            -18.8281    Y=             -1.9892    Z=              8.9489  Tot=             20.9413
 Quadrupole moment (field-independent basis, Debye-Ang):
   XX=           -171.8739   YY=           -196.9833   ZZ=           -186.7137
   XY=             23.8172   XZ=            -37.1287   YZ=            -19.0602

 Normal termination of Gaussian 16 at Fri May 13 04:40:05 2022.
