 Gaussian 16, Revision C.01,
 Gaussian 16:  ES64L-G16RevC.01  3-Jul-2019

 ----------------------------------------------------------------------
 # B3LYP/6-31G* empiricaldispersion=gd3 guess=read geom=check nosymm in
 tegral(ultrafinegrid)
 ----------------------------------------------------------------------

 ------------------------------------------------------
 Candidate Structure: Conf:217 Charge calc in gas phase
 ------------------------------------------------------
 Structure from the checkpoint file:  "conf-217.chk"
 Charge =  1 Multiplicity = 1

                          Input orientation:
 ---------------------------------------------------------------------
 Center     Atomic      Atomic             Coordinates (Angstroms)
 Number     Number       Type             X           Y           Z
 ---------------------------------------------------------------------
      1          7           0       -3.075065    3.579599    1.710347
      2          1           0       -2.198975    3.720771    0.771457
      3          1           0       -3.823035    3.000974    1.305657
      4          1           0       -3.474901    4.499195    1.909320
      5          6           0       -2.563095    2.958784    2.978368
      6          1           0       -1.654840    3.517600    3.239867
      7          6           0       -2.171713    1.491275    2.674289
      8          6           0       -3.586553    3.062088    4.108416
      9          1           0       -3.968500    4.089156    4.153934
     10          1           0       -4.438789    2.412813    3.883149
     11          8           0       -2.678583    0.552122    3.281488
     12          6           0       -3.017464    2.691341    5.479620
     13          1           0       -2.123873    3.283393    5.719045
     14          1           0       -2.714675    1.640871    5.505231
     15          6           0       -4.039385    2.929466    6.572974
     16          8           0       -5.148977    3.385336    6.404013
     17          8           0       -3.555483    2.568175    7.780486
     18          7           0       -1.241760    1.336751    1.713932
     19          1           0       -0.965791    2.104742    1.111254
     20          6           0       -0.826422    0.032011    1.261002
     21          1           0       -0.610424   -0.574571    2.147180
     22          6           0        0.479546    0.236616    0.478329
     23          6           0       -1.919560   -0.753968    0.415389
     24          1           0       -2.408070   -1.461676    1.089226
     25          1           0       -1.414964   -1.332608   -0.365267
     26          8           0        0.890470    1.360276    0.163948
     27          6           0       -2.955911    0.139980   -0.192577
     28          6           0       -4.181221    0.427197    0.345414
     29          1           0       -4.641839    0.027475    1.238226
     30          6           0       -2.821470    0.960145   -1.370517
     31          6           0       -3.999996    1.747328   -1.474214
     32          6           0       -1.808699    1.105815   -2.332135
     33          1           0       -0.899827    0.515409   -2.279074
     34          7           0       -4.803024    1.449725   -0.375507
     35          1           0       -5.808444    1.557952   -0.396676
     36          6           0       -3.171707    2.796997   -3.451621
     37          1           0       -3.299184    3.487959   -4.280413
     38          6           0       -4.190656    2.670993   -2.507310
     39          1           0       -5.099484    3.262019   -2.579746
     40          6           0       -1.995311    2.020693   -3.364473
     41          1           0       -1.231965    2.119667   -4.131655
     42          7           0        1.107014   -0.901847    0.125378
     43          1           0        0.831392   -1.792169    0.523376
     44          6           0        2.323654   -0.918498   -0.673917
     45          1           0        3.161853   -0.526049   -0.082229
     46          6           0        2.089651   -0.079041   -1.945060
     47          6           0        2.629162   -2.369984   -1.085610
     48          1           0        1.847228   -2.671688   -1.797915
     49          8           0        1.131247   -0.302689   -2.672508
     50          6           0        4.007127   -2.499537   -1.727853
     51          1           0        4.091526   -1.871908   -2.621697
     52          1           0        4.187912   -3.536848   -2.029712
     53          1           0        4.786485   -2.210221   -1.014775
     54          8           0        2.522358   -3.133063    0.119908
     55          1           0        2.627439   -4.070996   -0.103407
     56          7           0        3.039354    0.863410   -2.203631
     57          1           0        3.622328    1.115749   -1.416176
     58          6           0        2.787927    1.922759   -3.179381
     59          1           0        2.139465    1.471544   -3.937663
     60          6           0        4.102987    2.321496   -3.847251
     61          6           0        2.089485    3.099058   -2.482470
     62          1           0        2.813106    3.556720   -1.794787
     63          1           0        1.283925    2.671421   -1.881591
     64          8           0        4.623945    3.411846   -3.764493
     65          6           0        1.547204    4.179389   -3.421855
     66          1           0        2.368538    4.605113   -4.008186
     67          1           0        0.827613    3.743797   -4.129144
     68          6           0        0.875519    5.331342   -2.660831
     69          1           0        1.586924    5.793975   -1.968270
     70          1           0        0.579683    6.126348   -3.351839
     71          7           0       -0.338722    4.946138   -1.931401
     72          1           0       -1.165274    4.824962   -2.505634
     73          7           0        0.582265    4.521166    0.197454
     74          1           0        0.763718    3.678784    0.730225
     75          1           0        1.424206    4.990270   -0.100770
     76          7           0       -1.530736    3.758640   -0.319360
     77          1           0       -2.146203    3.526906   -1.093539
     78          6           0       -0.437890    4.395108   -0.698454
     79          8           0        4.609546    1.298283   -4.561976
     80          1           0       -4.258165    2.746804    8.434294
     81          1           0        5.438315    1.612739   -4.971686
 ---------------------------------------------------------------------

 SCF Done:  E(RB3LYP) =  -2054.07361370     A.U. after    1 cycles

 Alpha  occ. eigenvalues --  -19.28602 -19.26439 -19.24497 -19.23450 -19.23105
 Alpha  occ. eigenvalues --  -19.21740 -19.21702 -19.20995 -14.49980 -14.48434
 Alpha  occ. eigenvalues --  -14.47858 -14.47075 -14.46531 -14.46330 -14.45828
 Alpha  occ. eigenvalues --  -14.43335 -10.42969 -10.41358 -10.39713 -10.39279
 Alpha  occ. eigenvalues --  -10.39093 -10.38837 -10.35110 -10.34003 -10.33897
 Alpha  occ. eigenvalues --  -10.33746 -10.33525 -10.33437 -10.31842 -10.31316
 Alpha  occ. eigenvalues --  -10.29092 -10.28935 -10.28861 -10.28847 -10.28484
 Alpha  occ. eigenvalues --  -10.28475 -10.28170 -10.28096 -10.27994 -10.27786
 Alpha  occ. eigenvalues --  -10.27516 -10.26578  -1.19694  -1.17405  -1.15095
 Alpha  occ. eigenvalues --   -1.13871  -1.13375  -1.11863  -1.11563  -1.10857
 Alpha  occ. eigenvalues --   -1.08534  -1.07434  -1.05655  -1.03057  -1.02994
 Alpha  occ. eigenvalues --   -1.02700  -1.01777  -0.98356  -0.93597  -0.90587
 Alpha  occ. eigenvalues --   -0.90019  -0.89314  -0.88310  -0.85665  -0.84785
 Alpha  occ. eigenvalues --   -0.83097  -0.82268  -0.81429  -0.79888  -0.78623
 Alpha  occ. eigenvalues --   -0.76777  -0.74215  -0.73564  -0.72610  -0.71587
 Alpha  occ. eigenvalues --   -0.71271  -0.69559  -0.69194  -0.68941  -0.68491
 Alpha  occ. eigenvalues --   -0.68289  -0.67667  -0.66977  -0.66612  -0.65124
 Alpha  occ. eigenvalues --   -0.64432  -0.63386  -0.63059  -0.62681  -0.61210
 Alpha  occ. eigenvalues --   -0.60963  -0.60101  -0.59915  -0.58491  -0.58085
 Alpha  occ. eigenvalues --   -0.57918  -0.57652  -0.57450  -0.57339  -0.57038
 Alpha  occ. eigenvalues --   -0.56626  -0.56584  -0.55859  -0.55285  -0.54699
 Alpha  occ. eigenvalues --   -0.54506  -0.54264  -0.53962  -0.53631  -0.53328
 Alpha  occ. eigenvalues --   -0.52928  -0.52249  -0.51865  -0.51436  -0.51137
 Alpha  occ. eigenvalues --   -0.50917  -0.50566  -0.50289  -0.50093  -0.49632
 Alpha  occ. eigenvalues --   -0.48943  -0.48792  -0.48560  -0.47799  -0.47510
 Alpha  occ. eigenvalues --   -0.47360  -0.47166  -0.47090  -0.46407  -0.46240
 Alpha  occ. eigenvalues --   -0.45891  -0.45517  -0.44989  -0.44765  -0.44640
 Alpha  occ. eigenvalues --   -0.44186  -0.43895  -0.43186  -0.42712  -0.42393
 Alpha  occ. eigenvalues --   -0.40973  -0.40547  -0.38745  -0.38565  -0.37673
 Alpha  occ. eigenvalues --   -0.37449  -0.37272  -0.36995  -0.36817  -0.36313
 Alpha  occ. eigenvalues --   -0.35620  -0.35397  -0.35247  -0.34664  -0.34509
 Alpha  occ. eigenvalues --   -0.32470  -0.30273
 Alpha virt. eigenvalues --   -0.11155  -0.09884  -0.09105  -0.08992  -0.08905
 Alpha virt. eigenvalues --   -0.08131  -0.07846  -0.05913  -0.04347  -0.04097
 Alpha virt. eigenvalues --   -0.03406  -0.02643  -0.01783  -0.01380  -0.01235

 Mulliken charges:
               1
     1  N   -0.812877
     2  H    0.451231
     3  H    0.382699
     4  H    0.366199
     5  C   -0.096974
     6  H    0.181575
     7  C    0.640416
     8  C   -0.253224
     9  H    0.156861
    10  H    0.177027
    11  O   -0.523455
    12  C   -0.374312
    13  H    0.175866
    14  H    0.220491
    15  C    0.588112
    16  O   -0.458289
    17  O   -0.562924
    18  N   -0.634553
    19  H    0.380110
    20  C   -0.033907
    21  H    0.195031
    22  C    0.640387
    23  C   -0.384392
    24  H    0.182641
    25  H    0.180378
    26  O   -0.573387
    27  C    0.089011
    28  C   -0.041952
    29  H    0.186577
    30  C    0.081444
    31  C    0.259954
    32  C   -0.207206
    33  H    0.203325
    34  N   -0.687020
    35  H    0.349049
    36  C   -0.181356
    37  H    0.145485
    38  C   -0.187097
    39  H    0.146527
    40  C   -0.186974
    41  H    0.142853
    42  N   -0.616487
    43  H    0.363515
    44  C   -0.013192
    45  H    0.158478
    46  C    0.637780
    47  C    0.104935
    48  H    0.162833
    49  O   -0.521085
    50  C   -0.478272
    51  H    0.177675
    52  H    0.163824
    53  H    0.165554
    54  O   -0.642300
    55  H    0.413138
    56  N   -0.588902
    57  H    0.339217
    58  C   -0.056824
    59  H    0.208468
    60  C    0.582234
    61  C   -0.286600
    62  H    0.133932
    63  H    0.193189
    64  O   -0.452904
    65  C   -0.269553
    66  H    0.187057
    67  H    0.148923
    68  C   -0.183533
    69  H    0.168238
    70  H    0.187617
    71  N   -0.585786
    72  H    0.346615
    73  N   -0.752623
    74  H    0.377848
    75  H    0.351362
    76  N   -0.839637
    77  H    0.349081
    78  C    0.749139
    79  O   -0.551821
    80  H    0.420394
    81  H    0.425126
 Sum of Mulliken charges =   1.00000

 Dipole moment (field-independent basis, Debye):
    X=             -1.7833    Y=             11.4715    Z=             -2.0002  Tot=             11.7804
 Quadrupole moment (field-independent basis, Debye-Ang):
   XX=           -181.9248   YY=           -165.7822   ZZ=           -203.8272
   XY=            -28.4917   XZ=            -17.0187   YZ=             -6.5052

 Normal termination of Gaussian 16 at Fri May 13 04:40:34 2022.
