 Gaussian 16, Revision C.01,
 Gaussian 16:  ES64L-G16RevC.01  3-Jul-2019

 ----------------------------------------------------------------------
 # B3LYP/6-31G* empiricaldispersion=gd3 guess=read geom=check nosymm in
 tegral(ultrafinegrid)
 ----------------------------------------------------------------------

 ------------------------------------------------------
 Candidate Structure: Conf:472 Charge calc in gas phase
 ------------------------------------------------------
 Structure from the checkpoint file:  "conf-472.chk"
 Charge =  1 Multiplicity = 1

                          Input orientation:
 ---------------------------------------------------------------------
 Center     Atomic      Atomic             Coordinates (Angstroms)
 Number     Number       Type             X           Y           Z
 ---------------------------------------------------------------------
      1          7           0       -2.649271   -1.501647    3.704460
      2          1           0       -3.340837   -2.258106    3.686621
      3          1           0       -1.844569   -1.778294    3.081469
      4          1           0       -2.336726   -1.361869    4.670112
      5          6           0       -3.142634   -0.223045    3.048772
      6          1           0       -4.228333   -0.166951    3.159119
      7          6           0       -2.691158   -0.404103    1.580218
      8          6           0       -2.437864    0.970974    3.719103
      9          1           0       -2.725946    0.989951    4.778256
     10          1           0       -1.354037    0.817982    3.673257
     11          8           0       -1.704026   -1.136084    1.387285
     12          6           0       -2.802316    2.305104    3.057506
     13          1           0       -3.884095    2.454402    3.012463
     14          1           0       -2.433877    2.338283    2.024502
     15          6           0       -2.219612    3.527428    3.736551
     16          8           0       -2.721630    4.624526    3.702227
     17          8           0       -1.039848    3.256572    4.346548
     18          7           0       -3.357287    0.266367    0.648945
     19          1           0       -4.142190    0.860257    0.910086
     20          6           0       -2.850555    0.413116   -0.728579
     21          1           0       -2.676955   -0.596986   -1.110027
     22          6           0       -1.528651    1.206003   -0.599755
     23          6           0       -3.865445    1.181590   -1.640242
     24          1           0       -3.872945    0.684405   -2.614265
     25          1           0       -3.467327    2.189277   -1.793992
     26          8           0       -1.549496    2.349140   -0.138330
     27          6           0       -5.255879    1.297798   -1.094396
     28          6           0       -6.366011    0.547875   -1.398300
     29          1           0       -6.483964   -0.248259   -2.120908
     30          6           0       -5.662463    2.236023   -0.073173
     31          6           0       -7.035831    1.991066    0.201573
     32          6           0       -4.985697    3.251642    0.630333
     33          1           0       -3.939183    3.457754    0.420363
     34          7           0       -7.432875    0.954920   -0.621374
     35          1           0       -8.379193    0.618286   -0.717267
     36          6           0       -7.044767    3.713258    1.851024
     37          1           0       -7.564897    4.301372    2.601365
     38          6           0       -7.741603    2.726745    1.159621
     39          1           0       -8.793188    2.537934    1.356355
     40          6           0       -5.681708    3.975459    1.592386
     41          1           0       -5.164004    4.746541    2.155623
     42          7           0       -0.418579    0.533175   -0.937777
     43          1           0       -0.462545   -0.369505   -1.407560
     44          6           0        0.940817    1.031019   -0.806404
     45          1           0        0.962385    2.102882   -1.032410
     46          6           0        1.764835    0.226158   -1.834939
     47          6           0        1.494404    0.779968    0.632402
     48          1           0        2.575895    0.953526    0.600190
     49          8           0        1.288118   -0.767019   -2.382904
     50          6           0        0.879323    1.693983    1.693537
     51          1           0        0.993190    2.752928    1.441841
     52          1           0        1.362212    1.500981    2.656416
     53          1           0       -0.190540    1.499368    1.792074
     54          8           0        1.347327   -0.587173    0.977362
     55          1           0        0.396572   -0.793804    0.941802
     56          7           0        3.021607    0.669295   -2.042193
     57          1           0        3.338475    1.537095   -1.629333
     58          6           0        3.961878   -0.023566   -2.920978
     59          1           0        3.756993   -1.093571   -2.864646
     60          6           0        5.391484    0.229307   -2.456267
     61          6           0        3.828448    0.475877   -4.386117
     62          1           0        4.023519    1.555051   -4.366002
     63          1           0        2.781088    0.342104   -4.676363
     64          8           0        6.276232   -0.590428   -2.518631
     65          6           0        4.776228   -0.228939   -5.382352
     66          1           0        5.588186   -0.727327   -4.846085
     67          1           0        4.234914   -1.014022   -5.923869
     68          6           0        5.412513    0.714937   -6.423094
     69          1           0        6.061371    0.129054   -7.084051
     70          1           0        4.645429    1.159511   -7.066089
     71          7           0        6.175183    1.845430   -5.866305
     72          1           0        5.629351    2.685929   -5.732905
     73          7           0        7.883517    0.521073   -5.008390
     74          1           0        8.637977    0.455425   -4.337573
     75          1           0        8.138170    0.240275   -5.946282
     76          7           0        7.383565    2.495335   -3.902761
     77          1           0        6.696772    3.252304   -3.900994
     78          6           0        7.150903    1.683172   -4.888915
     79          8           0        5.564986    1.521939   -2.100502
     80          1           0       -0.707029    4.098723    4.712753
     81          1           0        6.508075    1.766807   -2.306507
 ---------------------------------------------------------------------

 SCF Done:  E(RB3LYP) =  -2054.01484690     A.U. after    1 cycles

 Alpha  occ. eigenvalues --  -19.29539 -19.28206 -19.24143 -19.23476 -19.21917
 Alpha  occ. eigenvalues --  -19.21743 -19.20034 -19.19574 -14.61850 -14.50925
 Alpha  occ. eigenvalues --  -14.47279 -14.45964 -14.44275 -14.41227 -14.39821
 Alpha  occ. eigenvalues --  -14.34716 -10.44828 -10.42161 -10.42104 -10.39085
 Alpha  occ. eigenvalues --  -10.37583 -10.37214 -10.35396 -10.34756 -10.34444
 Alpha  occ. eigenvalues --  -10.32528 -10.32219 -10.31434 -10.31352 -10.31030
 Alpha  occ. eigenvalues --  -10.30415 -10.29834 -10.28651 -10.27861 -10.27665
 Alpha  occ. eigenvalues --  -10.27577 -10.27181 -10.27037 -10.26471 -10.25847
 Alpha  occ. eigenvalues --  -10.25770 -10.24324  -1.20582  -1.20154  -1.15593
 Alpha  occ. eigenvalues --   -1.15445  -1.13812  -1.12015  -1.11265  -1.09766
 Alpha  occ. eigenvalues --   -1.07522  -1.07013  -1.06957  -1.03655  -1.02239
 Alpha  occ. eigenvalues --   -1.00709  -0.95692  -0.94491  -0.92767  -0.90865
 Alpha  occ. eigenvalues --   -0.90283  -0.88017  -0.87280  -0.85950  -0.84677
 Alpha  occ. eigenvalues --   -0.82275  -0.81317  -0.80938  -0.79610  -0.79276
 Alpha  occ. eigenvalues --   -0.76332  -0.75483  -0.74162  -0.73632  -0.73335
 Alpha  occ. eigenvalues --   -0.71145  -0.71010  -0.70339  -0.68669  -0.68108
 Alpha  occ. eigenvalues --   -0.67955  -0.67427  -0.66740  -0.66300  -0.64873
 Alpha  occ. eigenvalues --   -0.64635  -0.64589  -0.63126  -0.62483  -0.61594
 Alpha  occ. eigenvalues --   -0.60682  -0.60542  -0.59858  -0.58353  -0.57926
 Alpha  occ. eigenvalues --   -0.57573  -0.57323  -0.56800  -0.56392  -0.55903
 Alpha  occ. eigenvalues --   -0.55511  -0.55280  -0.54460  -0.53687  -0.53419
 Alpha  occ. eigenvalues --   -0.53125  -0.53032  -0.52907  -0.52834  -0.52361
 Alpha  occ. eigenvalues --   -0.52242  -0.51794  -0.51616  -0.51279  -0.51058
 Alpha  occ. eigenvalues --   -0.50509  -0.50393  -0.49916  -0.49566  -0.49256
 Alpha  occ. eigenvalues --   -0.48924  -0.48775  -0.48217  -0.47764  -0.47580
 Alpha  occ. eigenvalues --   -0.46982  -0.46762  -0.46157  -0.45895  -0.45670
 Alpha  occ. eigenvalues --   -0.44850  -0.43986  -0.43695  -0.42914  -0.42740
 Alpha  occ. eigenvalues --   -0.42275  -0.42095  -0.42004  -0.41409  -0.41107
 Alpha  occ. eigenvalues --   -0.40812  -0.40372  -0.40115  -0.37302  -0.37144
 Alpha  occ. eigenvalues --   -0.36650  -0.36165  -0.35789  -0.34874  -0.34319
 Alpha  occ. eigenvalues --   -0.33808  -0.33292  -0.31792  -0.31316  -0.31120
 Alpha  occ. eigenvalues --   -0.29524  -0.28246
 Alpha virt. eigenvalues --   -0.14352  -0.12206  -0.10214  -0.08970  -0.08319
 Alpha virt. eigenvalues --   -0.07368  -0.06826  -0.06357  -0.05227  -0.04978
 Alpha virt. eigenvalues --   -0.03883  -0.03056  -0.02228  -0.01498  -0.01364

 Mulliken charges:
               1
     1  N   -0.747331
     2  H    0.420696
     3  H    0.434182
     4  H    0.419890
     5  C   -0.125004
     6  H    0.218045
     7  C    0.659669
     8  C   -0.296395
     9  H    0.180487
    10  H    0.205430
    11  O   -0.558273
    12  C   -0.420399
    13  H    0.197453
    14  H    0.248599
    15  C    0.596753
    16  O   -0.437123
    17  O   -0.569015
    18  N   -0.595609
    19  H    0.377557
    20  C   -0.024551
    21  H    0.180544
    22  C    0.604618
    23  C   -0.397324
    24  H    0.178380
    25  H    0.204792
    26  O   -0.530037
    27  C    0.042479
    28  C    0.007814
    29  H    0.170067
    30  C    0.018594
    31  C    0.320227
    32  C   -0.249520
    33  H    0.173504
    34  N   -0.685376
    35  H    0.344162
    36  C   -0.155681
    37  H    0.149248
    38  C   -0.162689
    39  H    0.144591
    40  C   -0.154529
    41  H    0.168528
    42  N   -0.607995
    43  H    0.367410
    44  C   -0.078867
    45  H    0.180748
    46  C    0.647792
    47  C    0.129772
    48  H    0.156764
    49  O   -0.537352
    50  C   -0.454556
    51  H    0.160478
    52  H    0.159896
    53  H    0.130123
    54  O   -0.642123
    55  H    0.414987
    56  N   -0.624910
    57  H    0.353530
    58  C   -0.029158
    59  H    0.200893
    60  C    0.593484
    61  C   -0.272075
    62  H    0.128460
    63  H    0.168027
    64  O   -0.446426
    65  C   -0.297860
    66  H    0.206592
    67  H    0.149647
    68  C   -0.150881
    69  H    0.157034
    70  H    0.155735
    71  N   -0.581806
    72  H    0.320195
    73  N   -0.721245
    74  H    0.353261
    75  H    0.337467
    76  N   -0.692765
    77  H    0.273393
    78  C    0.589344
    79  O   -0.621336
    80  H    0.428551
    81  H    0.438322
 Sum of Mulliken charges =   1.00000

 Dipole moment (field-independent basis, Debye):
    X=            -15.0600    Y=             -1.4340    Z=              6.9886  Tot=             16.6643
 Quadrupole moment (field-independent basis, Debye-Ang):
   XX=           -136.1915   YY=           -240.0252   ZZ=           -137.7083
   XY=             26.5349   XZ=            -61.8418   YZ=            -18.3366

 Normal termination of Gaussian 16 at Fri May 13 04:40:04 2022.
