 Gaussian 16, Revision C.01,
 Gaussian 16:  ES64L-G16RevC.01  3-Jul-2019

 ----------------------------------------------------------------------
 # B3LYP/6-31G* empiricaldispersion=gd3 guess=read geom=check nosymm in
 tegral(ultrafinegrid)
 ----------------------------------------------------------------------

 ------------------------------------------------------
 Candidate Structure: Conf:746 Charge calc in gas phase
 ------------------------------------------------------
 Structure from the checkpoint file:  "conf-746.chk"
 Charge =  1 Multiplicity = 1

                          Input orientation:
 ---------------------------------------------------------------------
 Center     Atomic      Atomic             Coordinates (Angstroms)
 Number     Number       Type             X           Y           Z
 ---------------------------------------------------------------------
      1          7           0       -5.453941    3.847942    1.199495
      2          1           0       -5.644227    4.356250    0.329744
      3          1           0       -5.715054    2.837267    1.049217
      4          1           0       -6.002907    4.270817    1.953383
      5          6           0       -3.968601    3.755118    1.506400
      6          1           0       -3.465436    4.639400    1.120304
      7          6           0       -3.564519    2.461066    0.760184
      8          6           0       -3.795213    3.648665    3.040528
      9          1           0       -3.929031    4.651195    3.461784
     10          1           0       -4.590075    3.005278    3.439033
     11          8           0       -4.440922    1.595376    0.611597
     12          6           0       -2.458058    3.058854    3.509546
     13          1           0       -2.400837    1.988412    3.282657
     14          1           0       -2.384635    3.136404    4.600123
     15          6           0       -1.245434    3.716512    2.882498
     16          8           0       -1.301034    4.643901    2.092993
     17          8           0       -0.116319    3.106023    3.243892
     18          7           0       -2.296265    2.372653    0.377446
     19          1           0       -1.655462    3.154114    0.503702
     20          6           0       -1.701279    1.178017   -0.211932
     21          1           0       -2.219354    0.303326    0.189135
     22          6           0       -0.226848    1.178492    0.220838
     23          6           0       -1.848195    1.196448   -1.764051
     24          1           0       -1.445104    2.137227   -2.153735
     25          1           0       -2.925167    1.193405   -1.973350
     26          8           0        0.347044    2.250824    0.480512
     27          6           0       -1.157627    0.026254   -2.385343
     28          6           0        0.039648    0.054559   -3.057905
     29          1           0        0.638303    0.907292   -3.343117
     30          6           0       -1.487020   -1.364619   -2.188583
     31          6           0       -0.438996   -2.126341   -2.776130
     32          6           0       -2.541204   -2.034354   -1.540293
     33          1           0       -3.363546   -1.475222   -1.099024
     34          7           0        0.457906   -1.231829   -3.330837
     35          1           0        1.402531   -1.461965   -3.603689
     36          6           0       -1.466598   -4.156751   -2.073089
     37          1           0       -1.476270   -5.240697   -2.010578
     38          6           0       -0.418010   -3.523282   -2.729354
     39          1           0        0.389401   -4.091639   -3.182174
     40          6           0       -2.518537   -3.422124   -1.486579
     41          1           0       -3.323608   -3.954896   -0.989094
     42          7           0        0.365492   -0.021764    0.271109
     43          1           0       -0.114769   -0.845866   -0.087219
     44          6           0        1.802754   -0.208051    0.474842
     45          1           0        2.134637    0.497529    1.242780
     46          6           0        2.538313    0.085392   -0.852045
     47          6           0        2.045454   -1.664705    0.923906
     48          1           0        3.131845   -1.830659    0.914177
     49          8           0        2.930238   -0.811999   -1.604535
     50          6           0        1.492025   -1.946756    2.313075
     51          1           0        1.980280   -1.317311    3.064717
     52          1           0        1.664382   -2.996086    2.566047
     53          1           0        0.413446   -1.760827    2.344881
     54          8           0        1.394126   -2.543813    0.013186
     55          1           0        1.854179   -2.425909   -0.838614
     56          7           0        2.670067    1.396025   -1.142962
     57          1           0        2.252140    2.073965   -0.514941
     58          6           0        3.240513    1.849136   -2.396591
     59          1           0        2.805596    1.269978   -3.215045
     60          6           0        4.749171    1.604408   -2.411159
     61          6           0        2.910358    3.342991   -2.574974
     62          1           0        3.420582    3.906317   -1.783039
     63          1           0        1.833554    3.459806   -2.411694
     64          8           0        5.466195    1.576477   -1.442008
     65          6           0        3.270301    3.949719   -3.933916
     66          1           0        2.972393    5.001029   -3.900907
     67          1           0        4.354744    3.935738   -4.088390
     68          6           0        2.631418    3.245725   -5.150380
     69          1           0        2.693926    3.912094   -6.025551
     70          1           0        3.229388    2.362740   -5.392654
     71          7           0        1.267701    2.747105   -4.934420
     72          1           0        1.042943    1.917371   -5.466762
     73          7           0        0.398596    4.868376   -4.401460
     74          1           0       -0.473469    5.373998   -4.292414
     75          1           0        1.009269    5.320759   -5.072858
     76          7           0       -1.058118    3.074113   -4.497294
     77          1           0       -1.093391    2.058015   -4.593294
     78          6           0        0.141350    3.519228   -4.645011
     79          8           0        5.194051    1.468748   -3.685331
     80          1           0        0.596169    3.422916    2.653877
     81          1           0        6.161958    1.350273   -3.636612
 ---------------------------------------------------------------------

 SCF Done:  E(RB3LYP) =  -2054.04523673     A.U. after    1 cycles

 Alpha  occ. eigenvalues --  -19.30552 -19.27257 -19.26656 -19.25706 -19.22921
 Alpha  occ. eigenvalues --  -19.21259 -19.21202 -19.20888 -14.61081 -14.49571
 Alpha  occ. eigenvalues --  -14.46256 -14.44969 -14.44514 -14.43095 -14.41742
 Alpha  occ. eigenvalues --  -14.35502 -10.44083 -10.43531 -10.40844 -10.39676
 Alpha  occ. eigenvalues --  -10.39284 -10.37545 -10.35649 -10.35147 -10.34437
 Alpha  occ. eigenvalues --  -10.33182 -10.32028 -10.31868 -10.31608 -10.30352
 Alpha  occ. eigenvalues --  -10.29149 -10.28974 -10.28381 -10.27447 -10.26641
 Alpha  occ. eigenvalues --  -10.25951 -10.25716 -10.25639 -10.25627 -10.25098
 Alpha  occ. eigenvalues --  -10.24884 -10.24713  -1.22034  -1.19250  -1.17883
 Alpha  occ. eigenvalues --   -1.14808  -1.14327  -1.13165  -1.12562  -1.09096
 Alpha  occ. eigenvalues --   -1.08877  -1.06301  -1.05109  -1.04999  -1.02718
 Alpha  occ. eigenvalues --   -1.01265  -0.96271  -0.95302  -0.91650  -0.91063
 Alpha  occ. eigenvalues --   -0.90143  -0.88191  -0.87615  -0.85995  -0.84165
 Alpha  occ. eigenvalues --   -0.82144  -0.80572  -0.80265  -0.79516  -0.78510
 Alpha  occ. eigenvalues --   -0.75988  -0.75774  -0.74538  -0.74190  -0.72262
 Alpha  occ. eigenvalues --   -0.71239  -0.70075  -0.69566  -0.69208  -0.68441
 Alpha  occ. eigenvalues --   -0.67326  -0.66565  -0.66357  -0.66078  -0.65231
 Alpha  occ. eigenvalues --   -0.64365  -0.63637  -0.62235  -0.62003  -0.61303
 Alpha  occ. eigenvalues --   -0.60883  -0.60807  -0.59457  -0.59286  -0.58991
 Alpha  occ. eigenvalues --   -0.58469  -0.58253  -0.56908  -0.56785  -0.56580
 Alpha  occ. eigenvalues --   -0.55975  -0.55423  -0.54737  -0.54577  -0.54520
 Alpha  occ. eigenvalues --   -0.54221  -0.53917  -0.53318  -0.52650  -0.52497
 Alpha  occ. eigenvalues --   -0.52073  -0.51844  -0.51500  -0.51333  -0.50650
 Alpha  occ. eigenvalues --   -0.50346  -0.50069  -0.49899  -0.49639  -0.49568
 Alpha  occ. eigenvalues --   -0.49111  -0.48950  -0.48604  -0.47963  -0.47350
 Alpha  occ. eigenvalues --   -0.46914  -0.46838  -0.46023  -0.45602  -0.45353
 Alpha  occ. eigenvalues --   -0.45022  -0.44674  -0.43903  -0.43183  -0.43108
 Alpha  occ. eigenvalues --   -0.42484  -0.42209  -0.41512  -0.41222  -0.40664
 Alpha  occ. eigenvalues --   -0.40521  -0.39926  -0.39503  -0.39368  -0.39045
 Alpha  occ. eigenvalues --   -0.37701  -0.36949  -0.35530  -0.34792  -0.34564
 Alpha  occ. eigenvalues --   -0.34332  -0.33801  -0.33229  -0.33068  -0.29636
 Alpha  occ. eigenvalues --   -0.29292  -0.27571
 Alpha virt. eigenvalues --   -0.13022  -0.11583  -0.10809  -0.09319  -0.08343
 Alpha virt. eigenvalues --   -0.06827  -0.06535  -0.06133  -0.04667  -0.03943
 Alpha virt. eigenvalues --   -0.02796  -0.02446  -0.02201  -0.01770  -0.01559

 Mulliken charges:
               1
     1  N   -0.751022
     2  H    0.421806
     3  H    0.428616
     4  H    0.415435
     5  C   -0.113636
     6  H    0.242272
     7  C    0.630755
     8  C   -0.289978
     9  H    0.195285
    10  H    0.175829
    11  O   -0.542862
    12  C   -0.376278
    13  H    0.210569
    14  H    0.220793
    15  C    0.607288
    16  O   -0.486834
    17  O   -0.540637
    18  N   -0.607618
    19  H    0.393022
    20  C   -0.072659
    21  H    0.196045
    22  C    0.637809
    23  C   -0.353950
    24  H    0.189622
    25  H    0.171075
    26  O   -0.594246
    27  C    0.028349
    28  C   -0.024594
    29  H    0.186100
    30  C    0.047064
    31  C    0.308553
    32  C   -0.224264
    33  H    0.130669
    34  N   -0.680787
    35  H    0.346876
    36  C   -0.140070
    37  H    0.143862
    38  C   -0.159986
    39  H    0.142506
    40  C   -0.134657
    41  H    0.135624
    42  N   -0.592829
    43  H    0.384282
    44  C   -0.093015
    45  H    0.175650
    46  C    0.666842
    47  C    0.113850
    48  H    0.156047
    49  O   -0.565168
    50  C   -0.450517
    51  H    0.148507
    52  H    0.180475
    53  H    0.148339
    54  O   -0.640155
    55  H    0.418880
    56  N   -0.621644
    57  H    0.367611
    58  C   -0.002274
    59  H    0.171339
    60  C    0.602753
    61  C   -0.317551
    62  H    0.162394
    63  H    0.181655
    64  O   -0.450189
    65  C   -0.270902
    66  H    0.157247
    67  H    0.161820
    68  C   -0.159172
    69  H    0.149911
    70  H    0.174603
    71  N   -0.611506
    72  H    0.332317
    73  N   -0.739036
    74  H    0.339739
    75  H    0.331012
    76  N   -0.663925
    77  H    0.279273
    78  C    0.570889
    79  O   -0.572510
    80  H    0.441148
    81  H    0.422067
 Sum of Mulliken charges =   1.00000

 Dipole moment (field-independent basis, Debye):
    X=            -12.0886    Y=             16.4062    Z=              0.8983  Tot=             20.3986
 Quadrupole moment (field-independent basis, Debye-Ang):
   XX=           -136.9454   YY=           -165.3236   ZZ=           -185.4575
   XY=            -61.2890   XZ=            -59.0477   YZ=              6.9817

 Normal termination of Gaussian 16 at Fri May 13 04:40:12 2022.
