 Gaussian 16, Revision C.01,
 Gaussian 16:  ES64L-G16RevC.01  3-Jul-2019

 ----------------------------------------------------------------------
 # B3LYP/6-31G* empiricaldispersion=gd3 guess=read geom=check nosymm in
 tegral(ultrafinegrid)
 ----------------------------------------------------------------------

 -----------------------------------------------------
 Candidate Structure: Conf:35 Charge calc in gas phase
 -----------------------------------------------------
 Structure from the checkpoint file:  "conf-35.chk"
 Charge =  1 Multiplicity = 1

                          Input orientation:
 ---------------------------------------------------------------------
 Center     Atomic      Atomic             Coordinates (Angstroms)
 Number     Number       Type             X           Y           Z
 ---------------------------------------------------------------------
      1          7           0       -3.413351    0.742647    4.824080
      2          1           0       -4.133182    0.044720    5.035908
      3          1           0       -2.532721    0.232840    4.535812
      4          1           0       -3.253942    1.318336    5.656433
      5          6           0       -3.720227    1.563745    3.584520
      6          1           0       -4.803937    1.595459    3.445067
      7          6           0       -2.987809    0.779298    2.473476
      8          6           0       -3.124253    2.968140    3.767648
      9          1           0       -3.592297    3.444226    4.637560
     10          1           0       -2.053357    2.873344    3.982954
     11          8           0       -2.046908    0.050352    2.819538
     12          6           0       -3.299609    3.870687    2.543081
     13          1           0       -4.339409    3.888286    2.189527
     14          1           0       -2.671453    3.524577    1.714510
     15          6           0       -2.893571    5.291726    2.884909
     16          8           0       -2.478730    5.650002    3.964173
     17          8           0       -3.051912    6.104933    1.823569
     18          7           0       -3.380518    0.995972    1.222877
     19          1           0       -4.205914    1.554715    1.024308
     20          6           0       -2.566742    0.614952    0.073142
     21          1           0       -2.557843   -0.476844   -0.004753
     22          6           0       -1.143077    1.171365    0.279649
     23          6           0       -3.177653    1.248785   -1.207101
     24          1           0       -2.679418    0.785528   -2.066963
     25          1           0       -2.912361    2.312402   -1.215322
     26          8           0       -0.971708    2.270334    0.806433
     27          6           0       -4.664432    1.092715   -1.285403
     28          6           0       -5.592412    2.109613   -1.223577
     29          1           0       -5.436103    3.179816   -1.183543
     30          6           0       -5.407464   -0.139658   -1.386147
     31          6           0       -6.785475    0.205284   -1.388918
     32          6           0       -5.041966   -1.494139   -1.481226
     33          1           0       -3.995302   -1.786976   -1.501170
     34          7           0       -6.865730    1.581970   -1.278363
     35          1           0       -7.714383    2.121740   -1.356785
     36          6           0       -7.404473   -2.086713   -1.575118
     37          1           0       -8.162641   -2.859924   -1.655716
     38          6           0       -7.796567   -0.756634   -1.483071
     39          1           0       -8.845898   -0.475778   -1.490882
     40          6           0       -6.041594   -2.453059   -1.574820
     41          1           0       -5.774698   -3.502376   -1.657846
     42          7           0       -0.154500    0.382817   -0.182510
     43          1           0       -0.357114   -0.422452   -0.773634
     44          6           0        1.232402    0.813163   -0.277126
     45          1           0        1.261485    1.903499   -0.386784
     46          6           0        1.797942    0.112187   -1.529462
     47          6           0        2.048734    0.397888    0.980222
     48          1           0        3.087359    0.708629    0.816987
     49          8           0        1.154223   -0.766469   -2.101743
     50          6           0        1.528322    1.033329    2.268662
     51          1           0        1.502619    2.124853    2.196220
     52          1           0        2.179232    0.739581    3.097595
     53          1           0        0.510446    0.689970    2.483793
     54          8           0        2.108177   -1.017152    1.075491
     55          1           0        1.207679   -1.332029    1.260225
     56          7           0        3.022534    0.527832   -1.919769
     57          1           0        3.508102    1.220307   -1.365954
     58          6           0        3.813278   -0.181886   -2.921730
     59          1           0        3.352011   -1.164560   -3.056266
     60          6           0        5.241417   -0.427319   -2.445369
     61          6           0        3.846793    0.552088   -4.278268
     62          1           0        4.568351    0.036431   -4.921777
     63          1           0        4.219706    1.572367   -4.126658
     64          8           0        6.017450   -1.150703   -3.019146
     65          6           0        2.477323    0.598058   -4.962191
     66          1           0        2.166626   -0.415988   -5.242301
     67          1           0        1.714952    0.963016   -4.260538
     68          6           0        2.484130    1.486253   -6.212836
     69          1           0        3.310798    1.191287   -6.866068
     70          1           0        1.547680    1.332973   -6.775425
     71          7           0        2.683784    2.882999   -5.851064
     72          1           0        2.046009    3.244910   -5.154782
     73          7           0        3.774157    3.396543   -7.867376
     74          1           0        4.158351    4.171844   -8.396724
     75          1           0        3.128983    2.849614   -8.428067
     76          7           0        3.415789    5.101628   -6.340551
     77          1           0        3.140020    5.272738   -5.370991
     78          6           0        3.259882    3.864935   -6.655159
     79          8           0        5.564967    0.292774   -1.339952
     80          1           0       -2.764136    6.997807    2.095145
     81          1           0        6.499544    0.094145   -1.139506
 ---------------------------------------------------------------------

 SCF Done:  E(RB3LYP) =  -2054.00277083     A.U. after    1 cycles

 Alpha  occ. eigenvalues --  -19.29519 -19.27862 -19.27410 -19.24126 -19.22447
 Alpha  occ. eigenvalues --  -19.22304 -19.20998 -19.20676 -14.61566 -14.50692
 Alpha  occ. eigenvalues --  -14.47445 -14.46167 -14.44795 -14.39940 -14.38164
 Alpha  occ. eigenvalues --  -14.32038 -10.44499 -10.42549 -10.42002 -10.39507
 Alpha  occ. eigenvalues --  -10.39375 -10.37795 -10.35529 -10.34456 -10.32662
 Alpha  occ. eigenvalues --  -10.32390 -10.32190 -10.32063 -10.32004 -10.31364
 Alpha  occ. eigenvalues --  -10.30969 -10.30805 -10.28462 -10.27922 -10.27569
 Alpha  occ. eigenvalues --  -10.27474 -10.27401 -10.26906 -10.26550 -10.25551
 Alpha  occ. eigenvalues --  -10.25450 -10.25165  -1.20549  -1.20387  -1.17925
 Alpha  occ. eigenvalues --   -1.15405  -1.14229  -1.12619  -1.11766  -1.10126
 Alpha  occ. eigenvalues --   -1.08947  -1.07598  -1.07196  -1.02605  -1.01737
 Alpha  occ. eigenvalues --   -1.01398  -0.95658  -0.93307  -0.92769  -0.91459
 Alpha  occ. eigenvalues --   -0.88406  -0.88128  -0.87597  -0.86239  -0.84795
 Alpha  occ. eigenvalues --   -0.82319  -0.81525  -0.81302  -0.79910  -0.79409
 Alpha  occ. eigenvalues --   -0.76560  -0.75338  -0.74284  -0.74004  -0.73653
 Alpha  occ. eigenvalues --   -0.71158  -0.70496  -0.69598  -0.68849  -0.68481
 Alpha  occ. eigenvalues --   -0.68413  -0.67318  -0.66838  -0.66299  -0.65212
 Alpha  occ. eigenvalues --   -0.64849  -0.64405  -0.63208  -0.62887  -0.62136
 Alpha  occ. eigenvalues --   -0.60703  -0.60146  -0.59261  -0.58705  -0.58458
 Alpha  occ. eigenvalues --   -0.57943  -0.57756  -0.57451  -0.56624  -0.56031
 Alpha  occ. eigenvalues --   -0.55570  -0.55190  -0.54427  -0.54348  -0.54036
 Alpha  occ. eigenvalues --   -0.53553  -0.53302  -0.52881  -0.52790  -0.52574
 Alpha  occ. eigenvalues --   -0.51901  -0.51800  -0.51672  -0.51473  -0.51151
 Alpha  occ. eigenvalues --   -0.50884  -0.50570  -0.49861  -0.49825  -0.49476
 Alpha  occ. eigenvalues --   -0.49072  -0.48735  -0.48597  -0.47842  -0.47614
 Alpha  occ. eigenvalues --   -0.47323  -0.46976  -0.46769  -0.46433  -0.45570
 Alpha  occ. eigenvalues --   -0.44681  -0.44352  -0.44003  -0.42918  -0.42325
 Alpha  occ. eigenvalues --   -0.42300  -0.42125  -0.41789  -0.41595  -0.41098
 Alpha  occ. eigenvalues --   -0.40833  -0.40643  -0.39902  -0.38836  -0.37923
 Alpha  occ. eigenvalues --   -0.36941  -0.36787  -0.36302  -0.35985  -0.35150
 Alpha  occ. eigenvalues --   -0.34162  -0.32816  -0.31262  -0.30843  -0.29803
 Alpha  occ. eigenvalues --   -0.29654  -0.26166
 Alpha virt. eigenvalues --   -0.13730  -0.12013  -0.10309  -0.09216  -0.08615
 Alpha virt. eigenvalues --   -0.07266  -0.06477  -0.06329  -0.06011  -0.05498
 Alpha virt. eigenvalues --   -0.03782  -0.02858  -0.02542  -0.01157  -0.01107

 Mulliken charges:
               1
     1  N   -0.748913
     2  H    0.419878
     3  H    0.432493
     4  H    0.420129
     5  C   -0.133678
     6  H    0.209757
     7  C    0.676843
     8  C   -0.282558
     9  H    0.190734
    10  H    0.203241
    11  O   -0.541023
    12  C   -0.408402
    13  H    0.171848
    14  H    0.250212
    15  C    0.600646
    16  O   -0.450194
    17  O   -0.561495
    18  N   -0.591487
    19  H    0.348262
    20  C   -0.035577
    21  H    0.184730
    22  C    0.647620
    23  C   -0.398793
    24  H    0.189456
    25  H    0.178655
    26  O   -0.541442
    27  C    0.028205
    28  C   -0.020629
    29  H    0.168720
    30  C    0.096354
    31  C    0.306444
    32  C   -0.212058
    33  H    0.127508
    34  N   -0.683084
    35  H    0.343187
    36  C   -0.148814
    37  H    0.149016
    38  C   -0.159991
    39  H    0.143669
    40  C   -0.138723
    41  H    0.144108
    42  N   -0.623688
    43  H    0.362900
    44  C   -0.091904
    45  H    0.179469
    46  C    0.650417
    47  C    0.136525
    48  H    0.152464
    49  O   -0.540279
    50  C   -0.472268
    51  H    0.158453
    52  H    0.165775
    53  H    0.153891
    54  O   -0.611408
    55  H    0.393803
    56  N   -0.605175
    57  H    0.352164
    58  C   -0.068252
    59  H    0.214813
    60  C    0.598461
    61  C   -0.262592
    62  H    0.179887
    63  H    0.162174
    64  O   -0.440459
    65  C   -0.278664
    66  H    0.156534
    67  H    0.134402
    68  C   -0.134329
    69  H    0.178529
    70  H    0.137107
    71  N   -0.605519
    72  H    0.307014
    73  N   -0.742245
    74  H    0.342570
    75  H    0.320460
    76  N   -0.640495
    77  H    0.254852
    78  C    0.580799
    79  O   -0.586638
    80  H    0.428959
    81  H    0.426638
 Sum of Mulliken charges =   1.00000

 Dipole moment (field-independent basis, Debye):
    X=            -20.0869    Y=              6.0492    Z=             12.5023  Tot=             24.4209
 Quadrupole moment (field-independent basis, Debye-Ang):
   XX=           -129.7291   YY=           -237.9628   ZZ=           -161.1314
   XY=            -29.8608   XZ=            -38.5051   YZ=             17.5008

 Normal termination of Gaussian 16 at Fri May 13 04:40:11 2022.
