 Gaussian 16, Revision C.01,
 Gaussian 16:  ES64L-G16RevC.01  3-Jul-2019

 ----------------------------------------------------------------------
 # B3LYP/6-31G* empiricaldispersion=gd3 guess=read geom=check nosymm in
 tegral(ultrafinegrid)
 ----------------------------------------------------------------------

 ------------------------------------------------------
 Candidate Structure: Conf:549 Charge calc in gas phase
 ------------------------------------------------------
 Structure from the checkpoint file:  "conf-549.chk"
 Charge =  1 Multiplicity = 1

                          Input orientation:
 ---------------------------------------------------------------------
 Center     Atomic      Atomic             Coordinates (Angstroms)
 Number     Number       Type             X           Y           Z
 ---------------------------------------------------------------------
      1          7           0       -4.734471   -0.505433    0.717117
      2          1           0       -5.425817    0.213198    0.410719
      3          1           0       -4.172977   -0.766846   -0.118055
      4          1           0       -5.249399   -1.305442    1.090235
      5          6           0       -3.733022    0.055241    1.701575
      6          1           0       -4.235152    0.884107    2.194620
      7          6           0       -2.608982    0.570451    0.772881
      8          6           0       -3.234294   -0.949960    2.733184
      9          1           0       -2.663687   -0.344107    3.445626
     10          1           0       -4.070926   -1.364017    3.305677
     11          8           0       -2.576187    0.159618   -0.395156
     12          6           0       -2.275431   -2.029677    2.203458
     13          1           0       -2.141549   -1.946095    1.118744
     14          1           0       -2.619623   -3.049952    2.387245
     15          6           0       -0.866749   -1.807191    2.775749
     16          8           0       -0.545867   -0.782383    3.353514
     17          8           0       -0.021703   -2.784911    2.471150
     18          7           0       -1.699737    1.400318    1.308049
     19          1           0       -1.859747    1.698698    2.265126
     20          6           0       -0.847414    2.288635    0.501542
     21          1           0       -0.777954    1.814723   -0.478936
     22          6           0        0.614016    2.348574    0.981074
     23          6           0       -1.541105    3.658673    0.274221
     24          1           0       -0.815318    4.336138   -0.182763
     25          1           0       -1.820046    4.108150    1.234749
     26          8           0        1.303149    3.341691    0.764186
     27          6           0       -2.715491    3.398522   -0.620906
     28          6           0       -2.583488    3.111323   -1.961290
     29          1           0       -1.702525    3.206549   -2.570330
     30          6           0       -4.063548    3.036596   -0.279782
     31          6           0       -4.660826    2.501417   -1.469624
     32          6           0       -4.832328    3.105594    0.896642
     33          1           0       -4.422689    3.558182    1.796053
     34          7           0       -3.737465    2.588089   -2.479660
     35          1           0       -3.743724    2.168303   -3.437235
     36          6           0       -6.673747    2.003405   -0.270183
     37          1           0       -7.693008    1.628812   -0.247222
     38          6           0       -5.958280    1.972036   -1.470505
     39          1           0       -6.395515    1.561680   -2.376045
     40          6           0       -6.122001    2.588449    0.895273
     41          1           0       -6.728174    2.645164    1.794321
     42          7           0        1.114957    1.193988    1.490129
     43          1           0        0.528603    0.378146    1.617438
     44          6           0        2.562812    0.983512    1.614875
     45          1           0        3.001183    1.934547    1.930451
     46          6           0        3.106842    0.615083    0.210031
     47          6           0        2.885596   -0.126624    2.625522
     48          1           0        3.973274   -0.275077    2.600282
     49          8           0        3.324042   -0.553076   -0.137968
     50          6           0        2.445786    0.197735    4.040795
     51          1           0        2.903625    1.130290    4.383419
     52          1           0        2.762123   -0.605394    4.713077
     53          1           0        1.360806    0.300237    4.094839
     54          8           0        2.246376   -1.336575    2.190878
     55          1           0        2.619745   -1.517791    1.298912
     56          7           0        3.230908    1.660550   -0.627137
     57          1           0        2.964540    2.590092   -0.307297
     58          6           0        3.490428    1.486887   -2.050743
     59          1           0        4.279704    0.739456   -2.179821
     60          6           0        3.945674    2.837581   -2.580332
     61          6           0        2.205464    1.024716   -2.783425
     62          1           0        1.461578    1.825815   -2.701007
     63          1           0        1.845034    0.162080   -2.207692
     64          8           0        3.675380    3.896105   -2.059203
     65          6           0        2.380810    0.580079   -4.237728
     66          1           0        2.738707    1.413166   -4.850090
     67          1           0        3.150991   -0.200842   -4.285260
     68          6           0        1.088748    0.021019   -4.868490
     69          1           0        1.322473   -0.373225   -5.864309
     70          1           0        0.702307   -0.821152   -4.285711
     71          7           0        0.026950    1.022539   -5.004757
     72          1           0        0.017003    1.519348   -5.883038
     73          7           0       -1.212116    0.288445   -3.181687
     74          1           0       -2.018477    0.423763   -2.587347
     75          1           0       -0.363128    0.271113   -2.633517
     76          7           0       -2.239663    1.684305   -4.718854
     77          1           0       -2.141948    2.098432   -5.642748
     78          6           0       -1.181923    1.041302   -4.349732
     79          8           0        4.648856    2.719129   -3.722616
     80          1           0        0.902105   -2.435636    2.624625
     81          1           0        4.878415    3.622245   -4.013707
 ---------------------------------------------------------------------

 SCF Done:  E(RB3LYP) =  -2054.06528740     A.U. after    1 cycles

 Alpha  occ. eigenvalues --  -19.28699 -19.28344 -19.27611 -19.24505 -19.23990
 Alpha  occ. eigenvalues --  -19.23008 -19.22149 -19.21743 -14.59215 -14.50917
 Alpha  occ. eigenvalues --  -14.46430 -14.46303 -14.45040 -14.44058 -14.42758
 Alpha  occ. eigenvalues --  -14.37383 -10.44567 -10.42887 -10.41056 -10.40518
 Alpha  occ. eigenvalues --  -10.39585 -10.38364 -10.37437 -10.35379 -10.33802
 Alpha  occ. eigenvalues --  -10.33216 -10.33096 -10.32778 -10.32627 -10.31896
 Alpha  occ. eigenvalues --  -10.31155 -10.30565 -10.29699 -10.29682 -10.29333
 Alpha  occ. eigenvalues --  -10.29318 -10.29121 -10.28799 -10.28664 -10.27472
 Alpha  occ. eigenvalues --  -10.27403 -10.25139  -1.20317  -1.19842  -1.19658
 Alpha  occ. eigenvalues --   -1.14511  -1.13647  -1.13417  -1.11596  -1.10863
 Alpha  occ. eigenvalues --   -1.10606  -1.07437  -1.07033  -1.06500  -1.02710
 Alpha  occ. eigenvalues --   -1.01679  -0.97310  -0.95119  -0.94328  -0.93226
 Alpha  occ. eigenvalues --   -0.91181  -0.89342  -0.88046  -0.86821  -0.85470
 Alpha  occ. eigenvalues --   -0.83746  -0.83478  -0.82061  -0.79625  -0.79076
 Alpha  occ. eigenvalues --   -0.76795  -0.76170  -0.73941  -0.73018  -0.72244
 Alpha  occ. eigenvalues --   -0.71978  -0.71743  -0.70159  -0.70028  -0.69291
 Alpha  occ. eigenvalues --   -0.69062  -0.68702  -0.68146  -0.66974  -0.66940
 Alpha  occ. eigenvalues --   -0.65237  -0.63788  -0.63126  -0.62956  -0.62254
 Alpha  occ. eigenvalues --   -0.61491  -0.61181  -0.61096  -0.60705  -0.59216
 Alpha  occ. eigenvalues --   -0.58698  -0.58603  -0.58105  -0.57904  -0.57253
 Alpha  occ. eigenvalues --   -0.57084  -0.56621  -0.56201  -0.56100  -0.55664
 Alpha  occ. eigenvalues --   -0.55016  -0.54696  -0.53859  -0.53620  -0.53314
 Alpha  occ. eigenvalues --   -0.53201  -0.52903  -0.52510  -0.52082  -0.51887
 Alpha  occ. eigenvalues --   -0.51367  -0.51064  -0.50830  -0.50580  -0.50439
 Alpha  occ. eigenvalues --   -0.50000  -0.49611  -0.49199  -0.48929  -0.48522
 Alpha  occ. eigenvalues --   -0.48048  -0.47941  -0.47324  -0.46879  -0.46580
 Alpha  occ. eigenvalues --   -0.46258  -0.46188  -0.45266  -0.44914  -0.44598
 Alpha  occ. eigenvalues --   -0.44104  -0.43875  -0.43409  -0.42949  -0.42738
 Alpha  occ. eigenvalues --   -0.42027  -0.41727  -0.40506  -0.40459  -0.38481
 Alpha  occ. eigenvalues --   -0.37968  -0.37909  -0.36887  -0.36546  -0.35983
 Alpha  occ. eigenvalues --   -0.35908  -0.35177  -0.34369  -0.33730  -0.32572
 Alpha  occ. eigenvalues --   -0.31095  -0.29920
 Alpha virt. eigenvalues --   -0.13739  -0.11828  -0.10003  -0.09702  -0.09209
 Alpha virt. eigenvalues --   -0.08350  -0.08310  -0.06699  -0.06007  -0.04414
 Alpha virt. eigenvalues --   -0.03619  -0.03453  -0.02230  -0.01759  -0.00950

 Mulliken charges:
               1
     1  N   -0.760380
     2  H    0.420404
     3  H    0.422202
     4  H    0.403140
     5  C   -0.122076
     6  H    0.215122
     7  C    0.672951
     8  C   -0.307497
     9  H    0.221756
    10  H    0.183203
    11  O   -0.551063
    12  C   -0.395151
    13  H    0.194472
    14  H    0.208734
    15  C    0.596213
    16  O   -0.474555
    17  O   -0.573647
    18  N   -0.599741
    19  H    0.356370
    20  C   -0.087837
    21  H    0.204252
    22  C    0.616800
    23  C   -0.349973
    24  H    0.209121
    25  H    0.159010
    26  O   -0.521259
    27  C    0.042580
    28  C    0.015690
    29  H    0.174124
    30  C    0.051872
    31  C    0.337943
    32  C   -0.229819
    33  H    0.137218
    34  N   -0.675508
    35  H    0.379079
    36  C   -0.226478
    37  H    0.153686
    38  C   -0.179909
    39  H    0.159844
    40  C   -0.169608
    41  H    0.147949
    42  N   -0.607901
    43  H    0.366704
    44  C   -0.079576
    45  H    0.195381
    46  C    0.635331
    47  C    0.121900
    48  H    0.158694
    49  O   -0.561081
    50  C   -0.475669
    51  H    0.156577
    52  H    0.169882
    53  H    0.189340
    54  O   -0.689822
    55  H    0.436372
    56  N   -0.624832
    57  H    0.394347
    58  C   -0.026099
    59  H    0.204081
    60  C    0.582817
    61  C   -0.300403
    62  H    0.152916
    63  H    0.162932
    64  O   -0.449327
    65  C   -0.253113
    66  H    0.159238
    67  H    0.158982
    68  C   -0.171142
    69  H    0.170418
    70  H    0.176813
    71  N   -0.602594
    72  H    0.328796
    73  N   -0.778640
    74  H    0.364711
    75  H    0.331340
    76  N   -0.717473
    77  H    0.284567
    78  C    0.645854
    79  O   -0.558812
    80  H    0.463229
    81  H    0.426026
 Sum of Mulliken charges =   1.00000

 Dipole moment (field-independent basis, Debye):
    X=            -11.6320    Y=              0.6561    Z=             -0.7544  Tot=             11.6749
 Quadrupole moment (field-independent basis, Debye-Ang):
   XX=           -146.9741   YY=           -243.2380   ZZ=           -185.0548
   XY=             17.0605   XZ=            -31.8871   YZ=            -13.8311

 Normal termination of Gaussian 16 at Fri May 13 04:40:11 2022.
