 Gaussian 16, Revision C.01,
 Gaussian 16:  ES64L-G16RevC.01  3-Jul-2019

 ----------------------------------------------------------------------
 # B3LYP/6-31G* empiricaldispersion=gd3 guess=read geom=check nosymm in
 tegral(ultrafinegrid)
 ----------------------------------------------------------------------

 ------------------------------------------------------
 Candidate Structure: Conf:617 Charge calc in gas phase
 ------------------------------------------------------
 Structure from the checkpoint file:  "conf-617.chk"
 Charge =  1 Multiplicity = 1

                          Input orientation:
 ---------------------------------------------------------------------
 Center     Atomic      Atomic             Coordinates (Angstroms)
 Number     Number       Type             X           Y           Z
 ---------------------------------------------------------------------
      1          7           0       -3.866521    2.968012    1.510568
      2          1           0       -3.002317    3.538177    1.113464
      3          1           0       -4.288959    2.438780    0.733832
      4          1           0       -4.563803    3.641057    1.841584
      5          6           0       -3.448001    2.065556    2.662756
      6          1           0       -2.770011    2.680810    3.265534
      7          6           0       -2.649653    0.849043    2.127638
      8          6           0       -4.648365    1.650984    3.511076
      9          1           0       -4.269766    1.031924    4.327659
     10          1           0       -5.083989    2.542109    3.979361
     11          8           0       -2.844097   -0.269247    2.578818
     12          6           0       -5.723837    0.871006    2.752210
     13          1           0       -5.316036   -0.056205    2.337798
     14          1           0       -6.134895    1.424617    1.899320
     15          6           0       -6.879398    0.517336    3.664035
     16          8           0       -6.931224    0.757636    4.848779
     17          8           0       -7.868313   -0.110357    2.986260
     18          7           0       -1.735894    1.148681    1.171323
     19          1           0       -1.617476    2.105431    0.856327
     20          6           0       -1.057038    0.145609    0.382283
     21          1           0       -1.216761   -0.813410    0.878901
     22          6           0        0.426640    0.507915    0.307813
     23          6           0       -1.618316    0.101910   -1.087548
     24          1           0       -1.386923   -0.880370   -1.515325
     25          1           0       -1.077460    0.841507   -1.689662
     26          8           0        0.791002    1.695419    0.309597
     27          6           0       -3.082694    0.405018   -1.145974
     28          6           0       -3.631178    1.573581   -1.600778
     29          1           0       -3.154578    2.432471   -2.051390
     30          6           0       -4.171066   -0.390055   -0.617467
     31          6           0       -5.361936    0.358426   -0.795530
     32          6           0       -4.244998   -1.652739   -0.006531
     33          1           0       -3.346663   -2.235302    0.171820
     34          7           0       -5.002313    1.598606   -1.330415
     35          1           0       -5.649470    2.163472   -1.865301
     36          6           0       -6.664346   -1.391816    0.154163
     37          1           0       -7.621009   -1.796310    0.466955
     38          6           0       -6.618285   -0.130166   -0.429264
     39          1           0       -7.522533    0.452156   -0.582023
     40          6           0       -5.489663   -2.140885    0.371512
     41          1           0       -5.562302   -3.115850    0.843390
     42          7           0        1.284950   -0.514653    0.168023
     43          1           0        0.934789   -1.450676   -0.017851
     44          6           0        2.682240   -0.315016   -0.206998
     45          1           0        3.200536    0.218414    0.596253
     46          6           0        2.745785    0.469079   -1.527285
     47          6           0        3.312945   -1.721234   -0.423385
     48          1           0        4.277649   -1.572915   -0.932267
     49          8           0        2.238284    0.000115   -2.552696
     50          6           0        3.541134   -2.466443    0.884450
     51          1           0        4.262005   -1.935136    1.514067
     52          1           0        3.930883   -3.464488    0.667687
     53          1           0        2.605982   -2.579250    1.442909
     54          8           0        2.435110   -2.504416   -1.222246
     55          1           0        2.288184   -2.000404   -2.047843
     56          7           0        3.388193    1.651825   -1.477360
     57          1           0        3.755088    1.986891   -0.594602
     58          6           0        3.574265    2.541718   -2.611502
     59          1           0        3.604962    1.941323   -3.525241
     60          6           0        4.909595    3.252930   -2.418467
     61          6           0        2.442152    3.595755   -2.704340
     62          1           0        2.755817    4.402863   -3.376034
     63          1           0        2.324858    4.036757   -1.706523
     64          8           0        5.487812    3.336002   -1.357772
     65          6           0        1.113823    2.998844   -3.198301
     66          1           0        1.144049    2.896048   -4.288503
     67          1           0        0.976146    1.986236   -2.808623
     68          6           0       -0.107758    3.840831   -2.822840
     69          1           0        0.040597    4.887580   -3.124177
     70          1           0       -0.983776    3.455709   -3.364010
     71          7           0       -0.339788    3.768980   -1.376589
     72          1           0        0.215633    3.096337   -0.843880
     73          7           0       -2.406344    4.860572   -1.474645
     74          1           0       -2.954734    5.536327   -0.958891
     75          1           0       -2.181450    5.157003   -2.414310
     76          7           0       -1.618825    4.143294    0.573996
     77          1           0       -0.765953    3.837863    1.043281
     78          6           0       -1.416718    4.260308   -0.727405
     79          8           0        5.330111    3.820853   -3.561797
     80          1           0       -8.564245   -0.319748    3.638365
     81          1           0        6.163378    4.292132   -3.367608
 ---------------------------------------------------------------------

 SCF Done:  E(RB3LYP) =  -2054.07659155     A.U. after    1 cycles

 Alpha  occ. eigenvalues --  -19.29315 -19.27475 -19.23826 -19.23481 -19.22783
 Alpha  occ. eigenvalues --  -19.22537 -19.21922 -19.21879 -14.54865 -14.48304
 Alpha  occ. eigenvalues --  -14.48024 -14.47228 -14.47162 -14.46675 -14.46422
 Alpha  occ. eigenvalues --  -14.42071 -10.42289 -10.41851 -10.40316 -10.40235
 Alpha  occ. eigenvalues --  -10.40224 -10.39010 -10.37165 -10.34357 -10.34102
 Alpha  occ. eigenvalues --  -10.33998 -10.33360 -10.33308 -10.31905 -10.31639
 Alpha  occ. eigenvalues --  -10.30333 -10.30027 -10.29535 -10.29331 -10.29144
 Alpha  occ. eigenvalues --  -10.28859 -10.28052 -10.27963 -10.27657 -10.27321
 Alpha  occ. eigenvalues --  -10.26856 -10.25718  -1.20325  -1.18357  -1.15488
 Alpha  occ. eigenvalues --   -1.14693  -1.13668  -1.11532  -1.11168  -1.10446
 Alpha  occ. eigenvalues --   -1.09854  -1.09497  -1.07699  -1.03776  -1.03362
 Alpha  occ. eigenvalues --   -1.03046  -1.01520  -0.97502  -0.93195  -0.91463
 Alpha  occ. eigenvalues --   -0.90605  -0.90462  -0.88004  -0.86200  -0.85145
 Alpha  occ. eigenvalues --   -0.83695  -0.82712  -0.81690  -0.80230  -0.78254
 Alpha  occ. eigenvalues --   -0.77375  -0.74812  -0.73745  -0.72456  -0.71439
 Alpha  occ. eigenvalues --   -0.71285  -0.70730  -0.70022  -0.69310  -0.68714
 Alpha  occ. eigenvalues --   -0.68545  -0.68299  -0.68246  -0.67365  -0.66910
 Alpha  occ. eigenvalues --   -0.65936  -0.64053  -0.63051  -0.62748  -0.62002
 Alpha  occ. eigenvalues --   -0.61397  -0.60332  -0.59747  -0.59357  -0.58755
 Alpha  occ. eigenvalues --   -0.58731  -0.58582  -0.58219  -0.57712  -0.57477
 Alpha  occ. eigenvalues --   -0.56721  -0.56503  -0.56439  -0.56064  -0.55795
 Alpha  occ. eigenvalues --   -0.55340  -0.55130  -0.54599  -0.54400  -0.53354
 Alpha  occ. eigenvalues --   -0.52585  -0.52191  -0.52082  -0.51955  -0.51518
 Alpha  occ. eigenvalues --   -0.51166  -0.51051  -0.50441  -0.50307  -0.49995
 Alpha  occ. eigenvalues --   -0.49496  -0.49444  -0.48759  -0.48597  -0.48323
 Alpha  occ. eigenvalues --   -0.47336  -0.46846  -0.46811  -0.46667  -0.46463
 Alpha  occ. eigenvalues --   -0.46236  -0.45584  -0.45364  -0.45109  -0.44899
 Alpha  occ. eigenvalues --   -0.44564  -0.44153  -0.42765  -0.42262  -0.42092
 Alpha  occ. eigenvalues --   -0.41643  -0.41380  -0.39717  -0.39294  -0.38370
 Alpha  occ. eigenvalues --   -0.37851  -0.37530  -0.37042  -0.36520  -0.36181
 Alpha  occ. eigenvalues --   -0.35957  -0.35595  -0.35457  -0.35076  -0.34495
 Alpha  occ. eigenvalues --   -0.31991  -0.30358
 Alpha virt. eigenvalues --   -0.11215  -0.09922  -0.09706  -0.08896  -0.08676
 Alpha virt. eigenvalues --   -0.07718  -0.07267  -0.07005  -0.05800  -0.04551
 Alpha virt. eigenvalues --   -0.04051  -0.02043  -0.01888  -0.01728  -0.01261

 Mulliken charges:
               1
     1  N   -0.810980
     2  H    0.431551
     3  H    0.429445
     4  H    0.385961
     5  C   -0.128263
     6  H    0.214542
     7  C    0.640844
     8  C   -0.270255
     9  H    0.216971
    10  H    0.163119
    11  O   -0.497538
    12  C   -0.384776
    13  H    0.239306
    14  H    0.149095
    15  C    0.586669
    16  O   -0.447768
    17  O   -0.567523
    18  N   -0.620439
    19  H    0.345376
    20  C   -0.069926
    21  H    0.201917
    22  C    0.653284
    23  C   -0.393254
    24  H    0.182593
    25  H    0.163282
    26  O   -0.579040
    27  C    0.107023
    28  C   -0.074729
    29  H    0.166873
    30  C    0.092525
    31  C    0.252912
    32  C   -0.181982
    33  H    0.140308
    34  N   -0.698304
    35  H    0.343782
    36  C   -0.131766
    37  H    0.153889
    38  C   -0.178749
    39  H    0.141584
    40  C   -0.148029
    41  H    0.151370
    42  N   -0.590377
    43  H    0.361669
    44  C   -0.060863
    45  H    0.170767
    46  C    0.647952
    47  C    0.092980
    48  H    0.153193
    49  O   -0.565057
    50  C   -0.451091
    51  H    0.157950
    52  H    0.187274
    53  H    0.155961
    54  O   -0.636101
    55  H    0.421855
    56  N   -0.587499
    57  H    0.359308
    58  C   -0.054137
    59  H    0.209570
    60  C    0.585403
    61  C   -0.274857
    62  H    0.177172
    63  H    0.161208
    64  O   -0.454482
    65  C   -0.328994
    66  H    0.174242
    67  H    0.197278
    68  C   -0.146877
    69  H    0.167446
    70  H    0.161937
    71  N   -0.632347
    72  H    0.405698
    73  N   -0.754390
    74  H    0.355252
    75  H    0.358741
    76  N   -0.802467
    77  H    0.325777
    78  C    0.686280
    79  O   -0.557474
    80  H    0.420973
    81  H    0.430225
 Sum of Mulliken charges =   1.00000

 Dipole moment (field-independent basis, Debye):
    X=             -9.0823    Y=             14.8572    Z=             -4.1552  Tot=             17.9023
 Quadrupole moment (field-independent basis, Debye-Ang):
   XX=           -133.7373   YY=           -173.9546   ZZ=           -230.6666
   XY=            -26.2080   XZ=            -11.8150   YZ=            -27.4479

 Normal termination of Gaussian 16 at Fri May 13 04:40:10 2022.
