 Gaussian 16, Revision C.01,
 Gaussian 16:  ES64L-G16RevC.01  3-Jul-2019

 ----------------------------------------------------------------------
 # B3LYP/6-31G* empiricaldispersion=gd3 guess=read geom=check nosymm in
 tegral(ultrafinegrid)
 ----------------------------------------------------------------------

 ------------------------------------------------------
 Candidate Structure: Conf:347 Charge calc in gas phase
 ------------------------------------------------------
 Structure from the checkpoint file:  "conf-347.chk"
 Charge =  1 Multiplicity = 1

                          Input orientation:
 ---------------------------------------------------------------------
 Center     Atomic      Atomic             Coordinates (Angstroms)
 Number     Number       Type             X           Y           Z
 ---------------------------------------------------------------------
      1          7           0       -1.974380    5.354097    1.375033
      2          1           0       -0.985580    5.217324    1.583235
      3          1           0       -2.071942    6.019422   -0.374679
      4          1           0       -2.344477    5.972163    2.095007
      5          6           0       -2.688021    4.063429    1.434385
      6          1           0       -2.773896    3.706468    2.474479
      7          6           0       -1.899622    2.997381    0.637228
      8          6           0       -4.113776    4.253082    0.863695
      9          1           0       -4.519481    5.186925    1.266460
     10          1           0       -4.058902    4.376768   -0.223758
     11          8           0       -1.205011    3.286544   -0.338228
     12          6           0       -5.071200    3.098877    1.184265
     13          1           0       -5.134243    2.938489    2.271141
     14          1           0       -4.723150    2.163402    0.744168
     15          6           0       -6.497479    3.294588    0.701798
     16          8           0       -7.255733    2.391222    0.412495
     17          8           0       -6.859256    4.592555    0.654222
     18          7           0       -2.118521    1.735024    1.071032
     19          1           0       -2.602282    1.630939    1.951044
     20          6           0       -1.579702    0.511416    0.492541
     21          1           0       -2.102224   -0.300782    1.010455
     22          6           0       -0.071639    0.386987    0.797509
     23          6           0       -1.881196    0.348809   -1.032872
     24          1           0       -1.663169   -0.691651   -1.299907
     25          1           0       -1.186333    0.972317   -1.600756
     26          8           0        0.569775    1.327453    1.270620
     27          6           0       -3.293983    0.714361   -1.377621
     28          6           0       -4.445574    0.105446   -0.929645
     29          1           0       -4.569074   -0.787450   -0.330712
     30          6           0       -3.714505    1.869232   -2.126644
     31          6           0       -5.135542    1.916919   -2.062672
     32          6           0       -3.040225    2.857315   -2.867517
     33          1           0       -1.964806    2.792536   -3.006617
     34          7           0       -5.551806    0.810345   -1.357491
     35          1           0       -6.484183    0.707166   -0.978360
     36          6           0       -5.178173    3.946337   -3.317387
     37          1           0       -5.721469    4.766134   -3.777720
     38          6           0       -5.876730    2.961317   -2.631928
     39          1           0       -6.958335    2.988608   -2.543167
     40          6           0       -3.771585    3.883556   -3.454052
     41          1           0       -3.263278    4.639925   -4.046883
     42          7           0        0.477786   -0.806619    0.479324
     43          1           0       -0.047228   -1.534971    0.005097
     44          6           0        1.922911   -1.050426    0.516681
     45          1           0        2.333897   -0.558135    1.403425
     46          6           0        2.512509   -0.436700   -0.772426
     47          6           0        2.159592   -2.575107    0.556381
     48          1           0        3.235140   -2.743355    0.406539
     49          8           0        2.834248   -1.117326   -1.746893
     50          6           0        1.716838   -3.204253    1.869670
     51          1           0        2.287376   -2.795407    2.710461
     52          1           0        1.875961   -4.284937    1.827382
     53          1           0        0.652003   -3.021866    2.050030
     54          8           0        1.409731   -3.181579   -0.495295
     55          1           0        1.834781   -2.870966   -1.319027
     56          7           0        2.540897    0.919204   -0.783143
     57          1           0        2.176339    1.402113    0.033360
     58          6           0        2.735929    1.651724   -2.017321
     59          1           0        2.237683    1.100406   -2.824370
     60          6           0        4.198264    1.756434   -2.462707
     61          6           0        2.109192    3.058168   -1.881732
     62          1           0        2.765576    3.681511   -1.257862
     63          1           0        1.167930    2.949725   -1.326709
     64          8           0        4.520777    2.190429   -3.547952
     65          6           0        1.866047    3.749975   -3.230390
     66          1           0        2.805474    3.830357   -3.783203
     67          1           0        1.195921    3.138467   -3.851140
     68          6           0        1.284034    5.155652   -3.073295
     69          1           0        1.962070    5.744007   -2.439961
     70          1           0        1.208515    5.653524   -4.046699
     71          7           0       -0.048453    5.098846   -2.452726
     72          1           0       -0.462518    4.186868   -2.287814
     73          7           0       -0.074539    7.264428   -1.578592
     74          1           0       -0.649427    8.059427   -1.341909
     75          1           0        0.893721    7.435090   -1.799018
     76          7           0       -1.958862    5.953325   -1.412083
     77          1           0       -2.394083    5.098839   -1.754863
     78          6           0       -0.676934    6.090142   -1.821411
     79          8           0        5.073014    1.350309   -1.526853
     80          1           0       -7.792787    4.619514    0.367454
     81          1           0        5.963290    1.437883   -1.920233
 ---------------------------------------------------------------------

 SCF Done:  E(RB3LYP) =  -2054.08443215     A.U. after    1 cycles

 Alpha  occ. eigenvalues --  -19.29192 -19.27756 -19.23335 -19.23326 -19.21937
 Alpha  occ. eigenvalues --  -19.21798 -19.21390 -19.20713 -14.50764 -14.50436
 Alpha  occ. eigenvalues --  -14.47654 -14.46334 -14.46028 -14.45973 -14.45482
 Alpha  occ. eigenvalues --  -14.44342 -10.45626 -10.41906 -10.40415 -10.40197
 Alpha  occ. eigenvalues --  -10.38947 -10.37362 -10.35319 -10.34730 -10.34702
 Alpha  occ. eigenvalues --  -10.33075 -10.31853 -10.31655 -10.30882 -10.30686
 Alpha  occ. eigenvalues --  -10.30163 -10.30130 -10.29889 -10.29853 -10.29798
 Alpha  occ. eigenvalues --  -10.28226 -10.27802 -10.27582 -10.27565 -10.27525
 Alpha  occ. eigenvalues --  -10.27443 -10.24691  -1.20052  -1.18693  -1.15133
 Alpha  occ. eigenvalues --   -1.14456  -1.13657  -1.12387  -1.10896  -1.09634
 Alpha  occ. eigenvalues --   -1.08945  -1.06661  -1.04544  -1.04060  -1.02316
 Alpha  occ. eigenvalues --   -1.02038  -1.01323  -1.01111  -0.92967  -0.91171
 Alpha  occ. eigenvalues --   -0.90837  -0.89826  -0.87171  -0.85685  -0.84436
 Alpha  occ. eigenvalues --   -0.82697  -0.82120  -0.80799  -0.79644  -0.77933
 Alpha  occ. eigenvalues --   -0.77061  -0.76721  -0.73487  -0.72781  -0.71525
 Alpha  occ. eigenvalues --   -0.71181  -0.70602  -0.70233  -0.69305  -0.68347
 Alpha  occ. eigenvalues --   -0.68023  -0.67673  -0.66916  -0.66133  -0.65097
 Alpha  occ. eigenvalues --   -0.64233  -0.63162  -0.62930  -0.62192  -0.61618
 Alpha  occ. eigenvalues --   -0.61051  -0.60420  -0.59878  -0.59759  -0.58794
 Alpha  occ. eigenvalues --   -0.58766  -0.58253  -0.57905  -0.57358  -0.57149
 Alpha  occ. eigenvalues --   -0.56969  -0.56646  -0.56150  -0.55655  -0.54904
 Alpha  occ. eigenvalues --   -0.54805  -0.54385  -0.53799  -0.53009  -0.52736
 Alpha  occ. eigenvalues --   -0.52555  -0.52224  -0.52008  -0.51382  -0.51061
 Alpha  occ. eigenvalues --   -0.50924  -0.50712  -0.50508  -0.50131  -0.49563
 Alpha  occ. eigenvalues --   -0.49222  -0.48885  -0.47954  -0.47862  -0.47559
 Alpha  occ. eigenvalues --   -0.47201  -0.46856  -0.46599  -0.46078  -0.46006
 Alpha  occ. eigenvalues --   -0.45736  -0.45695  -0.45420  -0.45078  -0.44385
 Alpha  occ. eigenvalues --   -0.44369  -0.43796  -0.42771  -0.42044  -0.41169
 Alpha  occ. eigenvalues --   -0.41013  -0.40680  -0.40151  -0.39621  -0.38048
 Alpha  occ. eigenvalues --   -0.37731  -0.37257  -0.36976  -0.36821  -0.36684
 Alpha  occ. eigenvalues --   -0.36306  -0.35135  -0.34836  -0.33446  -0.32790
 Alpha  occ. eigenvalues --   -0.31464  -0.29309
 Alpha virt. eigenvalues --   -0.11709  -0.10941  -0.09481  -0.08796  -0.08604
 Alpha virt. eigenvalues --   -0.07399  -0.06689  -0.06203  -0.05872  -0.04679
 Alpha virt. eigenvalues --   -0.03897  -0.03249  -0.02909  -0.01504  -0.01211

 Mulliken charges:
               1
     1  N   -0.767325
     2  H    0.335649
     3  H    0.403886
     4  H    0.333253
     5  C   -0.067531
     6  H    0.143577
     7  C    0.650475
     8  C   -0.271623
     9  H    0.176207
    10  H    0.178410
    11  O   -0.564348
    12  C   -0.392701
    13  H    0.178934
    14  H    0.204447
    15  C    0.613253
    16  O   -0.485901
    17  O   -0.555919
    18  N   -0.581933
    19  H    0.344410
    20  C   -0.063443
    21  H    0.171068
    22  C    0.644710
    23  C   -0.370416
    24  H    0.168693
    25  H    0.171088
    26  O   -0.546925
    27  C    0.084219
    28  C   -0.024549
    29  H    0.162675
    30  C    0.083405
    31  C    0.283930
    32  C   -0.225602
    33  H    0.120072
    34  N   -0.651811
    35  H    0.362976
    36  C   -0.150689
    37  H    0.146346
    38  C   -0.167680
    39  H    0.152357
    40  C   -0.169459
    41  H    0.134094
    42  N   -0.600592
    43  H    0.355639
    44  C   -0.085273
    45  H    0.185723
    46  C    0.631674
    47  C    0.110564
    48  H    0.155727
    49  O   -0.535684
    50  C   -0.448930
    51  H    0.152219
    52  H    0.180638
    53  H    0.145999
    54  O   -0.647734
    55  H    0.422646
    56  N   -0.629375
    57  H    0.376576
    58  C   -0.015813
    59  H    0.195727
    60  C    0.604540
    61  C   -0.338295
    62  H    0.156925
    63  H    0.187249
    64  O   -0.460616
    65  C   -0.323174
    66  H    0.216198
    67  H    0.162380
    68  C   -0.142721
    69  H    0.159003
    70  H    0.196048
    71  N   -0.608210
    72  H    0.402854
    73  N   -0.741861
    74  H    0.384681
    75  H    0.376160
    76  N   -0.777919
    77  H    0.369827
    78  C    0.737966
    79  O   -0.548254
    80  H    0.423633
    81  H    0.423578
 Sum of Mulliken charges =   1.00000

 Dipole moment (field-independent basis, Debye):
    X=             -7.1970    Y=             21.6964    Z=              0.4120  Tot=             22.8627
 Quadrupole moment (field-independent basis, Debye-Ang):
   XX=           -175.3848   YY=           -101.3747   ZZ=           -228.4447
   XY=            -22.9361   XZ=             -5.4094   YZ=            -22.1440

 Normal termination of Gaussian 16 at Fri May 13 04:40:11 2022.
