 Gaussian 16, Revision C.01,
 Gaussian 16:  ES64L-G16RevC.01  3-Jul-2019

 ----------------------------------------------------------------------
 # B3LYP/6-31G* empiricaldispersion=gd3 guess=read geom=check nosymm in
 tegral(ultrafinegrid)
 ----------------------------------------------------------------------

 ------------------------------------------------------
 Candidate Structure: Conf:879 Charge calc in gas phase
 ------------------------------------------------------
 Structure from the checkpoint file:  "conf-879.chk"
 Charge =  1 Multiplicity = 1

                          Input orientation:
 ---------------------------------------------------------------------
 Center     Atomic      Atomic             Coordinates (Angstroms)
 Number     Number       Type             X           Y           Z
 ---------------------------------------------------------------------
      1          7           0       -5.254357    3.168611    2.729523
      2          1           0       -6.055080    3.397025    2.134614
      3          1           0       -5.158266    2.105885    2.782911
      4          1           0       -5.404540    3.580559    3.653832
      5          6           0       -3.923140    3.550022    2.101975
      6          1           0       -4.099741    4.240475    1.278475
      7          6           0       -3.421546    2.174020    1.575399
      8          6           0       -3.038613    4.205345    3.182421
      9          1           0       -3.548579    5.119122    3.514674
     10          1           0       -2.983523    3.527110    4.044255
     11          8           0       -4.007392    1.158256    1.993708
     12          6           0       -1.600159    4.563796    2.763264
     13          1           0       -1.019638    3.647313    2.600575
     14          1           0       -1.120303    5.113870    3.575477
     15          6           0       -1.496120    5.354999    1.465535
     16          8           0       -2.062742    4.935344    0.439933
     17          8           0       -0.751461    6.412908    1.507380
     18          7           0       -2.417438    2.214566    0.713313
     19          1           0       -2.065575    3.145085    0.448234
     20          6           0       -1.848103    1.049020    0.055714
     21          1           0       -2.256329    0.162989    0.543097
     22          6           0       -0.323025    1.097909    0.215825
     23          6           0       -2.222176    1.045534   -1.457181
     24          1           0       -1.965754    2.027611   -1.872377
     25          1           0       -3.312599    0.940359   -1.520371
     26          8           0        0.282360    2.182133    0.166458
     27          6           0       -1.500951   -0.031795   -2.204324
     28          6           0       -0.523585    0.149175   -3.152964
     29          1           0       -0.173748    1.065984   -3.608489
     30          6           0       -1.558312   -1.448525   -1.938869
     31          6           0       -0.571060   -2.062669   -2.756667
     32          6           0       -2.308673   -2.250229   -1.058385
     33          1           0       -3.092075   -1.816341   -0.441287
     34          7           0        0.011834   -1.068768   -3.515873
     35          1           0        0.859021   -1.190108   -4.050246
     36          6           0       -1.046763   -4.196084   -1.808799
     37          1           0       -0.858073   -5.262506   -1.733664
     38          6           0       -0.303652   -3.434150   -2.703467
     39          1           0        0.458796   -3.883696   -3.333013
     40          6           0       -2.041948   -3.612119   -0.998552
     41          1           0       -2.607885   -4.241225   -0.318353
     42          7           0        0.261766   -0.100402    0.377524
     43          1           0       -0.283573   -0.950056    0.239542
     44          6           0        1.703785   -0.339408    0.356746
     45          1           0        2.188390    0.413372    0.987369
     46          6           0        2.241753   -0.213624   -1.085371
     47          6           0        1.961267   -1.761920    0.902451
     48          1           0        3.014007   -2.001698    0.700904
     49          8           0        2.527754   -1.186526   -1.783555
     50          6           0        1.680905   -1.870424    2.394481
     51          1           0        2.342351   -1.210999    2.966479
     52          1           0        1.842783   -2.901127    2.720410
     53          1           0        0.642124   -1.602642    2.614005
     54          8           0        1.099858   -2.679016    0.239052
     55          1           0        1.374968   -2.702294   -0.695886
     56          7           0        2.374789    1.065317   -1.506283
     57          1           0        1.960673    1.786229   -0.922771
     58          6           0        2.850077    1.396267   -2.831513
     59          1           0        2.292294    0.825427   -3.580130
     60          6           0        4.314000    1.032205   -3.088464
     61          6           0        2.647898    2.900121   -3.098897
     62          1           0        1.577916    3.114562   -2.979525
     63          1           0        2.900186    3.098219   -4.145139
     64          8           0        4.751286    0.916839   -4.209462
     65          6           0        3.499097    3.790482   -2.176250
     66          1           0        3.484334    3.412569   -1.146291
     67          1           0        4.546693    3.742515   -2.494304
     68          6           0        3.076733    5.259784   -2.149624
     69          1           0        3.805877    5.801840   -1.533054
     70          1           0        3.110610    5.698424   -3.155206
     71          7           0        1.730377    5.395679   -1.595789
     72          1           0        1.235333    4.551992   -1.339295
     73          7           0        1.907865    7.677495   -1.162027
     74          1           0        1.432640    8.522420   -0.877588
     75          1           0        2.891891    7.619148   -0.946319
     76          7           0       -0.142460    6.656606   -0.904371
     77          1           0       -0.668162    5.834280   -1.197668
     78          6           0        1.131735    6.557748   -1.208043
     79          8           0        5.059140    0.929445   -1.970094
     80          1           0       -0.511418    6.707060    0.468647
     81          1           0        5.962295    0.699823   -2.261698
 ---------------------------------------------------------------------

 SCF Done:  E(RB3LYP) =  -2054.06397581     A.U. after    1 cycles

 Alpha  occ. eigenvalues --  -19.27772 -19.26116 -19.25226 -19.22954 -19.22590
 Alpha  occ. eigenvalues --  -19.21637 -19.21281 -19.20918 -14.59236 -14.48194
 Alpha  occ. eigenvalues --  -14.45991 -14.45551 -14.45281 -14.44743 -14.44633
 Alpha  occ. eigenvalues --  -14.38443 -10.42698 -10.41322 -10.39954 -10.39702
 Alpha  occ. eigenvalues --  -10.39330 -10.39324 -10.37548 -10.34204 -10.34052
 Alpha  occ. eigenvalues --  -10.32967 -10.32432 -10.31969 -10.31658 -10.31143
 Alpha  occ. eigenvalues --  -10.29941 -10.29396 -10.29339 -10.29167 -10.28999
 Alpha  occ. eigenvalues --  -10.26345 -10.25984 -10.25926 -10.25875 -10.25362
 Alpha  occ. eigenvalues --  -10.25123 -10.24787  -1.18578  -1.18545  -1.17930
 Alpha  occ. eigenvalues --   -1.14078  -1.13004  -1.12549  -1.09535  -1.09115
 Alpha  occ. eigenvalues --   -1.09015  -1.08276  -1.05501  -1.05353  -1.02568
 Alpha  occ. eigenvalues --   -1.01693  -0.99147  -0.94609  -0.93867  -0.91276
 Alpha  occ. eigenvalues --   -0.90178  -0.89627  -0.86608  -0.85905  -0.84086
 Alpha  occ. eigenvalues --   -0.83610  -0.80742  -0.80042  -0.79081  -0.78171
 Alpha  occ. eigenvalues --   -0.76758  -0.75496  -0.73212  -0.72344  -0.71668
 Alpha  occ. eigenvalues --   -0.71509  -0.70983  -0.69849  -0.69542  -0.68727
 Alpha  occ. eigenvalues --   -0.67231  -0.67073  -0.66707  -0.66492  -0.65685
 Alpha  occ. eigenvalues --   -0.64866  -0.64060  -0.62920  -0.61967  -0.61337
 Alpha  occ. eigenvalues --   -0.60554  -0.60195  -0.59651  -0.59155  -0.58581
 Alpha  occ. eigenvalues --   -0.58435  -0.58110  -0.57337  -0.56994  -0.56507
 Alpha  occ. eigenvalues --   -0.56163  -0.55787  -0.55320  -0.55093  -0.54754
 Alpha  occ. eigenvalues --   -0.54594  -0.54361  -0.53669  -0.53252  -0.53048
 Alpha  occ. eigenvalues --   -0.52592  -0.52081  -0.51598  -0.51247  -0.50730
 Alpha  occ. eigenvalues --   -0.50309  -0.50117  -0.49857  -0.49554  -0.49320
 Alpha  occ. eigenvalues --   -0.49043  -0.48860  -0.48468  -0.48056  -0.47901
 Alpha  occ. eigenvalues --   -0.47485  -0.47080  -0.46110  -0.45746  -0.45576
 Alpha  occ. eigenvalues --   -0.45411  -0.45205  -0.44617  -0.44314  -0.43809
 Alpha  occ. eigenvalues --   -0.43554  -0.42486  -0.41058  -0.40783  -0.40519
 Alpha  occ. eigenvalues --   -0.40164  -0.39524  -0.39472  -0.39083  -0.37586
 Alpha  occ. eigenvalues --   -0.37185  -0.37006  -0.36802  -0.36208  -0.35614
 Alpha  occ. eigenvalues --   -0.34830  -0.34723  -0.33622  -0.33024  -0.32338
 Alpha  occ. eigenvalues --   -0.29504  -0.27904
 Alpha virt. eigenvalues --   -0.11498  -0.10719  -0.09078  -0.08671  -0.08456
 Alpha virt. eigenvalues --   -0.07269  -0.06702  -0.05692  -0.05563  -0.04864
 Alpha virt. eigenvalues --   -0.03026  -0.02538  -0.02079  -0.01882  -0.01234

 Mulliken charges:
               1
     1  N   -0.762122
     2  H    0.415410
     3  H    0.432750
     4  H    0.409175
     5  C   -0.107940
     6  H    0.242664
     7  C    0.621550
     8  C   -0.304529
     9  H    0.182217
    10  H    0.177133
    11  O   -0.553559
    12  C   -0.369871
    13  H    0.202194
    14  H    0.199802
    15  C    0.615593
    16  O   -0.549814
    17  O   -0.576606
    18  N   -0.601571
    19  H    0.410757
    20  C   -0.085202
    21  H    0.197305
    22  C    0.647339
    23  C   -0.345854
    24  H    0.156357
    25  H    0.168270
    26  O   -0.590141
    27  C    0.052571
    28  C   -0.000137
    29  H    0.153116
    30  C    0.057838
    31  C    0.317172
    32  C   -0.238279
    33  H    0.130420
    34  N   -0.669405
    35  H    0.349547
    36  C   -0.135449
    37  H    0.146730
    38  C   -0.187005
    39  H    0.148664
    40  C   -0.119383
    41  H    0.138705
    42  N   -0.594710
    43  H    0.383553
    44  C   -0.093617
    45  H    0.176015
    46  C    0.660929
    47  C    0.115064
    48  H    0.153814
    49  O   -0.551453
    50  C   -0.451274
    51  H    0.146943
    52  H    0.179593
    53  H    0.149881
    54  O   -0.643662
    55  H    0.427734
    56  N   -0.636238
    57  H    0.371721
    58  C   -0.009282
    59  H    0.173290
    60  C    0.605706
    61  C   -0.323307
    62  H    0.151199
    63  H    0.191187
    64  O   -0.457219
    65  C   -0.323649
    66  H    0.166414
    67  H    0.179948
    68  C   -0.109609
    69  H    0.150619
    70  H    0.179946
    71  N   -0.619843
    72  H    0.346917
    73  N   -0.738292
    74  H    0.365518
    75  H    0.348011
    76  N   -0.784681
    77  H    0.315936
    78  C    0.698142
    79  O   -0.562417
    80  H    0.461715
    81  H    0.423046
 Sum of Mulliken charges =   1.00000

 Dipole moment (field-independent basis, Debye):
    X=             -8.1439    Y=             16.8047    Z=              6.3705  Tot=             19.7308
 Quadrupole moment (field-independent basis, Debye-Ang):
   XX=           -134.3632   YY=           -159.4383   ZZ=           -209.5805
   XY=            -22.3766   XZ=            -48.8060   YZ=             24.3725

 Normal termination of Gaussian 16 at Fri May 13 04:40:21 2022.
