 Gaussian 16, Revision C.01,
 Gaussian 16:  ES64L-G16RevC.01  3-Jul-2019

 ----------------------------------------------------------------------
 # B3LYP/6-31G* empiricaldispersion=gd3 guess=read geom=check nosymm in
 tegral(ultrafinegrid)
 ----------------------------------------------------------------------

 ------------------------------------------------------
 Candidate Structure: Conf:370 Charge calc in gas phase
 ------------------------------------------------------
 Structure from the checkpoint file:  "conf-370.chk"
 Charge =  1 Multiplicity = 1

                          Input orientation:
 ---------------------------------------------------------------------
 Center     Atomic      Atomic             Coordinates (Angstroms)
 Number     Number       Type             X           Y           Z
 ---------------------------------------------------------------------
      1          7           0       -5.029896    3.174449    2.325044
      2          1           0       -5.283215    3.288739    1.314797
      3          1           0       -5.364794    2.224702    2.591044
      4          1           0       -5.475834    3.904147    2.886252
      5          6           0       -3.533864    3.108977    2.502175
      6          1           0       -3.092123    3.817891    1.797050
      7          6           0       -3.209284    1.647127    2.104108
      8          6           0       -3.163329    3.441701    3.953433
      9          1           0       -3.570476    4.425642    4.213290
     10          1           0       -3.631158    2.703528    4.617371
     11          8           0       -4.100874    0.800037    2.218723
     12          6           0       -1.642629    3.459672    4.180212
     13          1           0       -1.175225    4.185540    3.500247
     14          1           0       -1.191726    2.484735    3.987975
     15          6           0       -1.258296    3.853633    5.596305
     16          8           0       -0.428305    3.291668    6.266822
     17          8           0       -1.952986    4.941459    6.014355
     18          7           0       -1.968075    1.429253    1.670590
     19          1           0       -1.329323    2.207732    1.514285
     20          6           0       -1.558613    0.243285    0.927696
     21          1           0       -1.783608   -0.653397    1.511956
     22          6           0       -0.045221    0.401514    0.733048
     23          6           0       -2.280968    0.167119   -0.470277
     24          1           0       -3.258563   -0.297812   -0.314076
     25          1           0       -1.694064   -0.489880   -1.120639
     26          8           0        0.491583    1.506369    0.813554
     27          6           0       -2.442404    1.531953   -1.072667
     28          6           0       -1.436154    2.330643   -1.571761
     29          1           0       -0.403644    2.076419   -1.760135
     30          6           0       -3.616175    2.363877   -1.017953
     31          6           0       -3.229254    3.663625   -1.481088
     32          6           0       -4.956670    2.149613   -0.650876
     33          1           0       -5.287556    1.166116   -0.328867
     34          7           0       -1.900289    3.601707   -1.809972
     35          1           0       -1.283806    4.342226   -2.186362
     36          6           0       -5.441481    4.503971   -1.128731
     37          1           0       -6.166794    5.311087   -1.175353
     38          6           0       -4.129205    4.736362   -1.526862
     39          1           0       -3.814464    5.714695   -1.878963
     40          6           0       -5.858111    3.217694   -0.704877
     41          1           0       -6.908419    3.046576   -0.477671
     42          7           0        0.619784   -0.741163    0.448169
     43          1           0        0.085887   -1.574260    0.224433
     44          6           0        1.933344   -0.703238   -0.159394
     45          1           0        2.532975    0.042241    0.372931
     46          6           0        1.820558   -0.260374   -1.642944
     47          6           0        2.591767   -2.088157   -0.008878
     48          1           0        3.534294   -2.085296   -0.576653
     49          8           0        0.741304   -0.090943   -2.202068
     50          6           0        2.884704   -2.441080    1.448273
     51          1           0        3.596546   -1.733449    1.887441
     52          1           0        3.325662   -3.442548    1.513851
     53          1           0        1.966331   -2.424903    2.042220
     54          8           0        1.667907   -2.999366   -0.606126
     55          1           0        1.976506   -3.904485   -0.444513
     56          7           0        3.016423   -0.064598   -2.244324
     57          1           0        3.884415   -0.187403   -1.735121
     58          6           0        3.170110    0.190902   -3.667323
     59          1           0        2.663145   -0.596884   -4.238781
     60          6           0        4.663575    0.087337   -3.959581
     61          6           0        2.605304    1.554289   -4.132601
     62          1           0        1.515846    1.464637   -4.170348
     63          1           0        2.956274    1.719831   -5.157858
     64          8           0        5.523513   -0.029366   -3.110934
     65          6           0        2.987885    2.732393   -3.225497
     66          1           0        2.331843    2.743455   -2.347841
     67          1           0        4.012646    2.620942   -2.846448
     68          6           0        2.865402    4.073063   -3.981572
     69          1           0        3.769192    4.257480   -4.571319
     70          1           0        2.045026    4.029619   -4.707684
     71          7           0        2.642981    5.238421   -3.134625
     72          1           0        3.422676    5.475921   -2.532483
     73          7           0        1.425925    6.409076   -1.542097
     74          1           0        0.496871    6.736838   -1.307318
     75          1           0        2.072186    7.179594   -1.671971
     76          7           0        0.278207    4.944644   -2.927405
     77          1           0        0.406514    4.220145   -3.630366
     78          6           0        1.401240    5.481509   -2.576370
     79          8           0        4.916587    0.155942   -5.276761
     80          1           0       -1.641548    5.147637    6.916623
     81          1           0        5.883651    0.087852   -5.392818
 ---------------------------------------------------------------------

 SCF Done:  E(RB3LYP) =  -2054.05093270     A.U. after    2 cycles

 Alpha  occ. eigenvalues --  -19.28894 -19.28752 -19.24460 -19.23910 -19.23544
 Alpha  occ. eigenvalues --  -19.22896 -19.21556 -19.20326 -14.57184 -14.47375
 Alpha  occ. eigenvalues --  -14.45093 -14.44586 -14.44026 -14.43732 -14.42719
 Alpha  occ. eigenvalues --  -14.37614 -10.41460 -10.41409 -10.41404 -10.38669
 Alpha  occ. eigenvalues --  -10.38321 -10.37381 -10.37186 -10.33598 -10.33435
 Alpha  occ. eigenvalues --  -10.32973 -10.32835 -10.32249 -10.31142 -10.30673
 Alpha  occ. eigenvalues --  -10.30090 -10.28805 -10.27971 -10.27902 -10.27614
 Alpha  occ. eigenvalues --  -10.27563 -10.27466 -10.27357 -10.26959 -10.26942
 Alpha  occ. eigenvalues --  -10.26277 -10.25743  -1.19999  -1.19475  -1.16896
 Alpha  occ. eigenvalues --   -1.13699  -1.12174  -1.11544  -1.11264  -1.11018
 Alpha  occ. eigenvalues --   -1.10626  -1.06449  -1.05110  -1.04337  -1.01901
 Alpha  occ. eigenvalues --   -1.01432  -0.97364  -0.93466  -0.92956  -0.92440
 Alpha  occ. eigenvalues --   -0.89458  -0.88635  -0.86693  -0.85887  -0.83973
 Alpha  occ. eigenvalues --   -0.83190  -0.82003  -0.80411  -0.79070  -0.77303
 Alpha  occ. eigenvalues --   -0.76209  -0.75131  -0.71784  -0.71747  -0.70787
 Alpha  occ. eigenvalues --   -0.70544  -0.70398  -0.70320  -0.69033  -0.68873
 Alpha  occ. eigenvalues --   -0.67911  -0.67360  -0.66519  -0.65725  -0.64738
 Alpha  occ. eigenvalues --   -0.63660  -0.63394  -0.62189  -0.61772  -0.61310
 Alpha  occ. eigenvalues --   -0.60120  -0.59980  -0.59103  -0.58182  -0.57948
 Alpha  occ. eigenvalues --   -0.57754  -0.57499  -0.57250  -0.56272  -0.56230
 Alpha  occ. eigenvalues --   -0.55760  -0.55601  -0.55122  -0.54972  -0.54340
 Alpha  occ. eigenvalues --   -0.54160  -0.53828  -0.53525  -0.53056  -0.52446
 Alpha  occ. eigenvalues --   -0.51795  -0.51578  -0.51317  -0.51142  -0.50848
 Alpha  occ. eigenvalues --   -0.50286  -0.49887  -0.49552  -0.49420  -0.49250
 Alpha  occ. eigenvalues --   -0.48830  -0.48664  -0.48535  -0.48154  -0.47823
 Alpha  occ. eigenvalues --   -0.47512  -0.47109  -0.46534  -0.46400  -0.45977
 Alpha  occ. eigenvalues --   -0.45801  -0.45005  -0.44964  -0.43771  -0.43527
 Alpha  occ. eigenvalues --   -0.43261  -0.42417  -0.42160  -0.42117  -0.41731
 Alpha  occ. eigenvalues --   -0.40947  -0.40841  -0.38885  -0.37349  -0.37053
 Alpha  occ. eigenvalues --   -0.36539  -0.36413  -0.36230  -0.36191  -0.35692
 Alpha  occ. eigenvalues --   -0.35256  -0.34307  -0.33919  -0.33539  -0.31471
 Alpha  occ. eigenvalues --   -0.30969  -0.28216
 Alpha virt. eigenvalues --   -0.10875  -0.09923  -0.08505  -0.08496  -0.07761
 Alpha virt. eigenvalues --   -0.07466  -0.06676  -0.06253  -0.03431  -0.02946
 Alpha virt. eigenvalues --   -0.02035  -0.01835  -0.01462  -0.01361  -0.00971

 Mulliken charges:
               1
     1  N   -0.758471
     2  H    0.413473
     3  H    0.413739
     4  H    0.398346
     5  C   -0.123263
     6  H    0.214706
     7  C    0.668169
     8  C   -0.291654
     9  H    0.189006
    10  H    0.186539
    11  O   -0.543551
    12  C   -0.370351
    13  H    0.189362
    14  H    0.208896
    15  C    0.578684
    16  O   -0.429709
    17  O   -0.566429
    18  N   -0.604409
    19  H    0.369983
    20  C   -0.055246
    21  H    0.187001
    22  C    0.647982
    23  C   -0.385916
    24  H    0.175531
    25  H    0.200162
    26  O   -0.546367
    27  C    0.037524
    28  C    0.008132
    29  H    0.190588
    30  C    0.068061
    31  C    0.313563
    32  C   -0.251178
    33  H    0.156436
    34  N   -0.699753
    35  H    0.385806
    36  C   -0.151916
    37  H    0.145260
    38  C   -0.168856
    39  H    0.150194
    40  C   -0.236621
    41  H    0.146453
    42  N   -0.599948
    43  H    0.358599
    44  C   -0.085980
    45  H    0.194552
    46  C    0.653939
    47  C    0.120737
    48  H    0.139434
    49  O   -0.531377
    50  C   -0.466844
    51  H    0.162881
    52  H    0.157924
    53  H    0.170330
    54  O   -0.634643
    55  H    0.410855
    56  N   -0.629927
    57  H    0.358768
    58  C   -0.016905
    59  H    0.202038
    60  C    0.582358
    61  C   -0.299398
    62  H    0.184108
    63  H    0.172797
    64  O   -0.467773
    65  C   -0.279736
    66  H    0.173444
    67  H    0.147809
    68  C   -0.177218
    69  H    0.170613
    70  H    0.168417
    71  N   -0.584973
    72  H    0.330154
    73  N   -0.747272
    74  H    0.338009
    75  H    0.334457
    76  N   -0.712267
    77  H    0.300125
    78  C    0.643654
    79  O   -0.557932
    80  H    0.427141
    81  H    0.429141
 Sum of Mulliken charges =   1.00000

 Dipole moment (field-independent basis, Debye):
    X=             -4.1327    Y=             13.7019    Z=              2.5486  Tot=             14.5367
 Quadrupole moment (field-independent basis, Debye-Ang):
   XX=           -141.8471   YY=           -139.1575   ZZ=           -195.1236
   XY=            -42.5925   XZ=            -70.0941   YZ=             19.8357

 Normal termination of Gaussian 16 at Fri May 13 04:40:29 2022.
