 Gaussian 16, Revision C.01,
 Gaussian 16:  ES64L-G16RevC.01  3-Jul-2019

 ----------------------------------------------------------------------
 # B3LYP/6-31G* empiricaldispersion=gd3 guess=read geom=check nosymm in
 tegral(ultrafinegrid)
 ----------------------------------------------------------------------

 ----------------------------------------------------
 Candidate Structure: Conf:1 Charge calc in gas phase
 ----------------------------------------------------
 Structure from the checkpoint file:  "conf-1.chk"
 Charge =  1 Multiplicity = 1

                          Input orientation:
 ---------------------------------------------------------------------
 Center     Atomic      Atomic             Coordinates (Angstroms)
 Number     Number       Type             X           Y           Z
 ---------------------------------------------------------------------
      1          7           0        9.104958    0.277512   -5.542114
      2          1           0        8.709481   -0.024770   -6.435780
      3          1           0        8.852782    1.253933   -5.356771
      4          1           0       10.125157    0.259748   -5.645860
      5          6           0        8.714867   -0.615447   -4.416131
      6          1           0        9.199576   -1.586357   -4.563847
      7          6           0        7.219503   -0.925081   -4.349652
      8          6           0        9.163604   -0.035965   -3.072605
      9          1           0        8.528422    0.824914   -2.835076
     10          1           0        8.967416   -0.789290   -2.308114
     11          8           0        6.822329   -1.863615   -3.652595
     12          6           0       10.628184    0.404219   -2.978449
     13          1           0       10.779046    1.234394   -3.679270
     14          6           0       10.906546    0.930651   -1.571407
     15          1           0       10.237666    1.756932   -1.317211
     16          1           0       10.760187    0.137495   -0.832986
     17          1           0       11.934394    1.290937   -1.479634
     18          6           0       11.599247   -0.715846   -3.336853
     19          1           0       11.484254   -1.558566   -2.647175
     20          1           0       12.633089   -0.367974   -3.266699
     21          1           0       11.448236   -1.090734   -4.353323
     22          7           0        6.379348   -0.152479   -5.070900
     23          1           0        6.759567    0.646536   -5.549956
     24          6           0        4.942617   -0.269359   -4.938213
     25          1           0        4.632388   -0.193565   -3.896532
     26          1           0        4.465695    0.544059   -5.482837
     27          6           0        4.368603   -1.575074   -5.458967
     28          8           0        3.268642   -1.955796   -5.063311
     29          7           0        5.078225   -2.234789   -6.392928
     30          1           0        5.985617   -1.883511   -6.640389
     31          6           0        4.729105   -3.597221   -6.756054
     32          1           0        3.690019   -3.608471   -7.090659
     33          6           0        4.749239   -4.496850   -5.530986
     34          6           0        5.654232   -4.082248   -7.862398
     35          1           0        5.555155   -3.431818   -8.733635
     36          1           0        5.404730   -5.103060   -8.159814
     37          1           0        6.695023   -4.064595   -7.527792
     38          8           0        3.765351   -5.163358   -5.240582
     39          7           0        5.879750   -4.521603   -4.791108
     40          1           0        6.566250   -3.792133   -4.891698
     41          6           0        5.944750   -5.344979   -3.603233
     42          1           0        5.597015   -6.338450   -3.873196
     43          6           0        5.014695   -4.874908   -2.496039
     44          6           0        7.367139   -5.477892   -3.076230
     45          1           0        7.339390   -5.941068   -2.089585
     46          1           0        7.826228   -4.495157   -2.963908
     47          8           0        4.585135   -5.686152   -1.677809
     48          6           0        8.212306   -6.372352   -3.976376
     49          7           0        9.550523   -6.136384   -3.935989
     50          1           0       10.150026   -6.738337   -4.475910
     51          1           0        9.956502   -5.453346   -3.322141
     52          8           0        7.726823   -7.264648   -4.654077
     53          7           0        4.713221   -3.570457   -2.435724
     54          1           0        5.252114   -2.908612   -2.975790
     55          6           0        3.708655   -3.102575   -1.501356
     56          1           0        3.977777   -3.439242   -0.498104
     57          6           0        2.358410   -3.748396   -1.791110
     58          6           0        3.623620   -1.582071   -1.530572
     59          1           0        2.916430   -1.224194   -0.780146
     60          1           0        3.292644   -1.228742   -2.510713
     61          1           0        4.606590   -1.156387   -1.313768
     62          8           0        1.711352   -4.261365   -0.885586
     63          7           0        1.931896   -3.724399   -3.067934
     64          1           0        2.481701   -3.251377   -3.782401
     65          6           0        0.631605   -4.280372   -3.396553
     66          1           0       -0.088179   -3.892996   -2.668931
     67          6           0        0.612183   -5.795618   -3.212672
     68          6           0        0.153924   -3.833103   -4.793417
     69          1           0        0.963468   -4.050696   -5.498880
     70          8           0       -0.415751   -6.342722   -2.808751
     71          6           0       -0.087521   -2.317389   -4.757156
     72          1           0        0.767730   -1.833656   -4.280121
     73          1           0       -0.944110   -2.141693   -4.096150
     74          6           0       -1.109762   -4.572273   -5.236090
     75          1           0       -1.940494   -4.339134   -4.562600
     76          1           0       -0.965746   -5.653133   -5.248590
     77          1           0       -1.398685   -4.263227   -6.243264
     78          6           0       -0.345762   -1.675694   -6.115514
     79          1           0        0.476666   -1.865009   -6.813609
     80          1           0       -0.451096   -0.593427   -6.012771
     81          1           0       -1.262458   -2.052128   -6.574989
     82          7           0        1.720132   -6.484776   -3.518804
     83          1           0        2.542414   -5.988195   -3.834374
     84          6           0        1.835895   -7.894130   -3.181807
     85          1           0        1.009880   -8.424830   -3.659396
     86          6           0        1.652972   -8.120849   -1.684187
     87          6           0        3.167084   -8.457954   -3.672265
     88          1           0        3.324264   -9.450275   -3.239190
     89          1           0        3.968104   -7.817835   -3.294101
     90          8           0        0.864391   -8.960958   -1.266322
     91          6           0        3.266195   -8.565339   -5.197750
     92          1           0        2.903327   -7.629115   -5.626601
     93          6           0        4.724380   -8.762758   -5.614982
     94          1           0        5.106041   -9.706075   -5.210335
     95          1           0        4.810913   -8.812053   -6.704007
     96          1           0        5.383725   -7.965682   -5.261604
     97          6           0        2.400491   -9.706808   -5.732406
     98          1           0        2.404452   -9.717553   -6.825428
     99          1           0        2.786528  -10.669609   -5.383956
    100          1           0        1.362503   -9.623605   -5.400270
    101          7           0        2.373829   -7.334097   -0.868837
    102          1           0        3.048604   -6.683683   -1.253972
    103          6           0        2.289304   -7.470795    0.560870
    104          1           0        2.979194   -6.743533    0.992239
    105          1           0        2.581121   -8.469000    0.889423
    106          6           0        0.891935   -7.252898    1.121466
    107          8           0        0.465897   -7.982420    2.008621
    108          7           0        0.178023   -6.238478    0.609140
    109          1           0        0.605931   -5.617568   -0.068392
    110          6           0       -1.191028   -6.025195    1.039662
    111          1           0       -1.204662   -6.042103    2.133739
    112          6           0       -2.115905   -7.159782    0.621910
    113          6           0       -1.695148   -4.645944    0.568533
    114          1           0       -1.363691   -4.527133   -0.469402
    115          8           0       -3.065926   -7.474783    1.332785
    116          6           0       -3.216818   -4.533185    0.604430
    117          1           0       -3.587753   -4.699380    1.618124
    118          1           0       -3.523125   -3.532090    0.288433
    119          1           0       -3.691085   -5.261193   -0.055706
    120          6           0       -1.049972   -3.556297    1.426344
    121          1           0        0.037709   -3.650550    1.455019
    122          1           0       -1.427291   -3.626266    2.450206
    123          1           0       -1.297987   -2.562743    1.043807
    124          7           0       -1.881617   -7.746916   -0.563667
    125          1           0       -1.101828   -7.447430   -1.128918
    126          6           0       -2.703803   -8.846016   -1.024298
    127          1           0       -3.752315   -8.546399   -0.962301
    128          6           0       -2.532222  -10.060971   -0.119281
    129          6           0       -2.374799   -9.189953   -2.481673
    130          1           0       -3.028661   -9.999276   -2.811326
    131          1           0       -1.335359   -9.534618   -2.547811
    132          8           0       -3.493407  -10.721323    0.261070
    133          8           0       -2.610699   -8.096277   -3.340803
    134          1           0       -1.825820   -7.529942   -3.305415
    135          7           0       -1.277206  -10.374520    0.235244
    136          1           0       -0.513821   -9.804827   -0.107945
    137          6           0       -0.997139  -11.490801    1.114900
    138          1           0       -1.575544  -12.350483    0.771749
    139          6           0       -1.457603  -11.245748    2.556780
    140          6           0        0.491129  -11.817673    1.040006
    141          1           0        1.050659  -10.901773    1.258303
    142          1           0        0.712505  -12.090428    0.003769
    143          8           0       -1.849492  -12.171832    3.266064
    144          6           0        0.971758  -12.928564    1.970920
    145          1           0        0.842082  -12.555577    2.993377
    146          6           0        0.175833  -14.222610    1.798882
    147          1           0        0.508952  -14.969540    2.523733
    148          1           0        0.340856  -14.630920    0.797016
    149          1           0       -0.895038  -14.077438    1.937646
    150          6           0        2.459692  -13.180101    1.741303
    151          1           0        3.049329  -12.272580    1.896415
    152          1           0        2.837205  -13.948904    2.420383
    153          1           0        2.627083  -13.523664    0.717937
    154          7           0       -1.387119   -9.977493    2.994663
    155          1           0       -0.891736   -9.297818    2.441920
    156          6           0       -1.927090   -9.570129    4.276316
    157          1           0       -1.472314  -10.174505    5.068971
    158          6           0       -3.438584   -9.828795    4.370374
    159          6           0       -1.614720   -8.094543    4.513578
    160          1           0       -2.070213   -7.473515    3.739916
    161          1           0       -2.004006   -7.779441    5.483467
    162          1           0       -0.535800   -7.944252    4.499550
    163          8           0       -3.921987  -10.406958    5.334059
    164          7           0       -4.169446   -9.376535    3.322722
    165          1           0       -3.712422   -8.815046    2.610256
    166          6           0       -5.615974   -9.489987    3.309686
    167          1           0       -5.980665   -9.300690    4.320925
    168          6           0       -6.130665  -10.894169    2.975166
    169          6           0       -6.227436   -8.471063    2.350352
    170          1           0       -5.868059   -8.638086    1.332887
    171          1           0       -7.314519   -8.562259    2.356591
    172          1           0       -5.953736   -7.457210    2.652087
    173          8           0       -7.236739  -11.257648    3.369318
    174          7           0       -5.330885  -11.658718    2.212852
    175          1           0       -4.466227  -11.278432    1.870092
    176          6           0       -5.686972  -13.013981    1.841534
    177          1           0       -6.778709  -13.062647    1.806404
    178          6           0       -5.129082  -13.885339    2.963959
    179          6           0       -5.085879  -13.385327    0.490574
    180          1           0       -3.993213  -13.328641    0.560407
    181          1           0       -5.347924  -14.422177    0.265591
    182          8           0       -4.100989  -14.546603    2.837588
    183          8           0       -5.587357  -12.574491   -0.550666
    184          1           0       -5.062462  -11.765353   -0.532680
    185          7           0       -5.800399  -13.792156    4.130664
    186          1           0       -6.669088  -13.283316    4.262339
    187          6           0       -5.293124  -14.371155    5.339948
    188          1           0       -5.012699  -15.422001    5.192265
    189          6           0       -6.434067  -14.276239    6.386438
    190          6           0       -4.062314  -13.579069    5.802062
    191          1           0       -3.412195  -13.510064    4.932997
    192          1           0       -4.385161  -12.561948    6.049248
    193          8           0       -6.249669  -14.855485    7.471423
    194          6           0       -3.301013  -14.215665    6.953500
    195          1           0       -2.873763  -15.162651    6.609471
    196          1           0       -3.969769  -14.459119    7.780471
    197          6           0       -2.190192  -13.310137    7.449723
    198          1           0       -1.675633  -13.798943    8.283876
    199          1           0       -2.602850  -12.363567    7.820693
    200          7           0       -1.226642  -13.046437    6.359053
    201          1           0       -1.652965  -12.921558    5.444097
    202          7           0        0.259185  -11.937024    7.785810
    203          1           0        1.215446  -11.652643    7.931358
    204          1           0       -0.197133  -12.365835    8.575241
    205          7           0        0.568978  -11.893868    5.465687
    206          1           0        0.439458  -12.394755    4.595879
    207          1           0        1.502961  -11.547927    5.622835
    208          6           0       -0.130186  -12.310544    6.549323
    209          8           0       -7.439234  -13.619256    6.040371
 ---------------------------------------------------------------------

 SCF Done:  E(RB3LYP) =  -4860.61018431     A.U. after    3 cycles

 Alpha  occ. eigenvalues --  -19.30162 -19.26101 -19.23956 -19.22577 -19.21776
 Alpha  occ. eigenvalues --  -19.20777 -19.19468 -19.18722 -19.17612 -19.16453
 Alpha  occ. eigenvalues --  -19.15874 -19.15634 -19.15086 -19.11953 -19.11809
 Alpha  occ. eigenvalues --  -19.08936 -19.08786 -19.07247 -19.06175 -14.64793
 Alpha  occ. eigenvalues --  -14.55058 -14.50783 -14.48398 -14.47372 -14.46664
 Alpha  occ. eigenvalues --  -14.46611 -14.46113 -14.44597 -14.44398 -14.43352
 Alpha  occ. eigenvalues --  -14.42359 -14.41023 -14.39812 -14.39434 -14.38432
 Alpha  occ. eigenvalues --  -14.35623 -14.33438 -14.31268 -10.47448 -10.44162
 Alpha  occ. eigenvalues --  -10.43539 -10.42297 -10.40738 -10.39742 -10.39435
 Alpha  occ. eigenvalues --  -10.38754 -10.37522 -10.36217 -10.36117 -10.35965
 Alpha  occ. eigenvalues --  -10.35244 -10.34679 -10.34520 -10.34421 -10.33181
 Alpha  occ. eigenvalues --  -10.32674 -10.32295 -10.32288 -10.31713 -10.31689
 Alpha  occ. eigenvalues --  -10.31083 -10.30647 -10.30501 -10.29813 -10.29157
 Alpha  occ. eigenvalues --  -10.29125 -10.28948 -10.27531 -10.27500 -10.26632
 Alpha  occ. eigenvalues --  -10.26621 -10.26611 -10.26179 -10.26063 -10.25545
 Alpha  occ. eigenvalues --  -10.25404 -10.25375 -10.24836 -10.24715 -10.24463
 Alpha  occ. eigenvalues --  -10.24173 -10.24065 -10.23344 -10.23312 -10.23231
 Alpha  occ. eigenvalues --  -10.22778 -10.22703 -10.22389 -10.22256 -10.22184
 Alpha  occ. eigenvalues --  -10.21166 -10.21138 -10.21047 -10.20213 -10.20182
 Alpha  occ. eigenvalues --  -10.19298 -10.18425 -10.18101 -10.16277  -1.22651
 Alpha  occ. eigenvalues --   -1.20217  -1.18445  -1.16388  -1.14964  -1.13905
 Alpha  occ. eigenvalues --   -1.13090  -1.11841  -1.11230  -1.11026  -1.10911
 Alpha  occ. eigenvalues --   -1.09911  -1.08614  -1.07793  -1.07639  -1.06976
 Alpha  occ. eigenvalues --   -1.05434  -1.04534  -1.04002  -1.03653  -1.01638
 Alpha  occ. eigenvalues --   -1.01556  -1.01442  -1.00556  -1.00484  -1.00114
 Alpha  occ. eigenvalues --   -0.99843  -0.99638  -0.99473  -0.99303  -0.98905
 Alpha  occ. eigenvalues --   -0.98265  -0.97434  -0.96205  -0.95223  -0.94049
 Alpha  occ. eigenvalues --   -0.92579  -0.92096  -0.91267  -0.90282  -0.90279
 Alpha  occ. eigenvalues --   -0.89107  -0.88259  -0.88259  -0.87859  -0.87339
 Alpha  occ. eigenvalues --   -0.86436  -0.85814  -0.83857  -0.83111  -0.82300
 Alpha  occ. eigenvalues --   -0.82200  -0.81618  -0.81049  -0.80576  -0.80169
 Alpha  occ. eigenvalues --   -0.79187  -0.78863  -0.78305  -0.77968  -0.77881
 Alpha  occ. eigenvalues --   -0.77611  -0.77369  -0.76656  -0.75138  -0.74999
 Alpha  occ. eigenvalues --   -0.74866  -0.74095  -0.73939  -0.73499  -0.73360
 Alpha  occ. eigenvalues --   -0.72951  -0.72470  -0.72333  -0.72312  -0.72101
 Alpha  occ. eigenvalues --   -0.71020  -0.70794  -0.70459  -0.70283  -0.69883
 Alpha  occ. eigenvalues --   -0.68585  -0.68420  -0.68318  -0.67750  -0.67307
 Alpha  occ. eigenvalues --   -0.67268  -0.67006  -0.66990  -0.66396  -0.65701
 Alpha  occ. eigenvalues --   -0.65502  -0.64942  -0.64898  -0.64481  -0.64337
 Alpha  occ. eigenvalues --   -0.64115  -0.63592  -0.63362  -0.63126  -0.62434
 Alpha  occ. eigenvalues --   -0.62349  -0.62193  -0.61742  -0.61451  -0.61246
 Alpha  occ. eigenvalues --   -0.61163  -0.60956  -0.60263  -0.60220  -0.59863
 Alpha  occ. eigenvalues --   -0.59729  -0.59695  -0.59356  -0.59295  -0.58945
 Alpha  occ. eigenvalues --   -0.58750  -0.58510  -0.58406  -0.57966  -0.57417
 Alpha  occ. eigenvalues --   -0.57157  -0.56991  -0.56893  -0.56595  -0.55906
 Alpha  occ. eigenvalues --   -0.55482  -0.55419  -0.55163  -0.54970  -0.54869
 Alpha  occ. eigenvalues --   -0.54793  -0.54758  -0.54672  -0.54069  -0.53986
 Alpha  occ. eigenvalues --   -0.53638  -0.53495  -0.53338  -0.53146  -0.52880
 Alpha  occ. eigenvalues --   -0.52750  -0.52610  -0.52538  -0.52341  -0.52242
 Alpha  occ. eigenvalues --   -0.51755  -0.51574  -0.51510  -0.51454  -0.51384
 Alpha  occ. eigenvalues --   -0.51220  -0.51039  -0.50866  -0.50750  -0.50323
 Alpha  occ. eigenvalues --   -0.50262  -0.50168  -0.49861  -0.49732  -0.49384
 Alpha  occ. eigenvalues --   -0.49309  -0.49206  -0.49055  -0.48931  -0.48576
 Alpha  occ. eigenvalues --   -0.48511  -0.48436  -0.48222  -0.48114  -0.47990
 Alpha  occ. eigenvalues --   -0.47855  -0.47810  -0.47773  -0.47670  -0.47590
 Alpha  occ. eigenvalues --   -0.47552  -0.47427  -0.47275  -0.46983  -0.46509
 Alpha  occ. eigenvalues --   -0.46334  -0.45940  -0.45869  -0.45500  -0.45390
 Alpha  occ. eigenvalues --   -0.45349  -0.45277  -0.45159  -0.45040  -0.44980
 Alpha  occ. eigenvalues --   -0.44799  -0.44562  -0.44438  -0.44338  -0.44305
 Alpha  occ. eigenvalues --   -0.43975  -0.43942  -0.43885  -0.43625  -0.43375
 Alpha  occ. eigenvalues --   -0.43279  -0.43016  -0.42863  -0.42705  -0.42555
 Alpha  occ. eigenvalues --   -0.42481  -0.42222  -0.41864  -0.41611  -0.41522
 Alpha  occ. eigenvalues --   -0.41469  -0.41448  -0.40972  -0.40948  -0.40580
 Alpha  occ. eigenvalues --   -0.40531  -0.40195  -0.40043  -0.39705  -0.39639
 Alpha  occ. eigenvalues --   -0.39595  -0.39353  -0.39211  -0.39150  -0.39006
 Alpha  occ. eigenvalues --   -0.38747  -0.38645  -0.38575  -0.38485  -0.38439
 Alpha  occ. eigenvalues --   -0.38189  -0.38025  -0.37868  -0.37725  -0.37631
 Alpha  occ. eigenvalues --   -0.37506  -0.37494  -0.37492  -0.37347  -0.37316
 Alpha  occ. eigenvalues --   -0.37077  -0.36625  -0.36450  -0.36208  -0.35864
 Alpha  occ. eigenvalues --   -0.35834  -0.35577  -0.35544  -0.35280  -0.35170
 Alpha  occ. eigenvalues --   -0.34469  -0.34419  -0.34240  -0.33803  -0.33596
 Alpha  occ. eigenvalues --   -0.33480  -0.33322  -0.32699  -0.32348  -0.32210
 Alpha  occ. eigenvalues --   -0.31653  -0.31493  -0.31353  -0.30848  -0.30573
 Alpha  occ. eigenvalues --   -0.29786  -0.29315  -0.28925  -0.28171  -0.27491
 Alpha  occ. eigenvalues --   -0.26653  -0.25391  -0.25340  -0.24637  -0.22547
 Alpha  occ. eigenvalues --   -0.22146  -0.21382  -0.20942  -0.19844  -0.18605
 Alpha virt. eigenvalues --   -0.18157  -0.16752  -0.13027  -0.11189  -0.11002
 Alpha virt. eigenvalues --   -0.10480  -0.09209  -0.07894  -0.07573  -0.07537
 Alpha virt. eigenvalues --   -0.07073  -0.06744  -0.06035  -0.05088  -0.04717

 Mulliken charges:
               1
     1  N   -0.638732
     2  H    0.309014
     3  H    0.325135
     4  H    0.375182
     5  C   -0.141930
     6  H    0.222416
     7  C    0.607904
     8  C   -0.281302
     9  H    0.164940
    10  H    0.201773
    11  O   -0.525452
    12  C   -0.104341
    13  H    0.112541
    14  C   -0.447885
    15  H    0.163523
    16  H    0.164980
    17  H    0.180488
    18  C   -0.455378
    19  H    0.166845
    20  H    0.193734
    21  H    0.112859
    22  N   -0.596683
    23  H    0.297758
    24  C   -0.246339
    25  H    0.223146
    26  H    0.220924
    27  C    0.633123
    28  O   -0.516468
    29  N   -0.588669
    30  H    0.311299
    31  C   -0.048042
    32  H    0.215792
    33  C    0.641323
    34  C   -0.483088
    35  H    0.180077
    36  H    0.213886
    37  H    0.140547
    38  O   -0.515074
    39  N   -0.614297
    40  H    0.326341
    41  C   -0.052787
    42  H    0.245483
    43  C    0.633932
    44  C   -0.418119
    45  H    0.224294
    46  H    0.140831
    47  O   -0.557024
    48  C    0.608424
    49  N   -0.755119
    50  H    0.360131
    51  H    0.334351
    52  O   -0.477382
    53  N   -0.652505
    54  H    0.387887
    55  C   -0.017780
    56  H    0.187195
    57  C    0.619727
    58  C   -0.514581
    59  H    0.197776
    60  H    0.172495
    61  H    0.150808
    62  O   -0.540303
    63  N   -0.661225
    64  H    0.409651
    65  C   -0.025181
    66  H    0.186306
    67  C    0.644121
    68  C   -0.125150
    69  H    0.137259
    70  O   -0.579080
    71  C   -0.254076
    72  H    0.134290
    73  H    0.142091
    74  C   -0.458880
    75  H    0.165420
    76  H    0.168862
    77  H    0.156560
    78  C   -0.449941
    79  H    0.133211
    80  H    0.145577
    81  H    0.163615
    82  N   -0.642254
    83  H    0.400055
    84  C   -0.049064
    85  H    0.188367
    86  C    0.620387
    87  C   -0.319795
    88  H    0.162095
    89  H    0.146825
    90  O   -0.549290
    91  C   -0.078901
    92  H    0.141191
    93  C   -0.472858
    94  H    0.146358
    95  H    0.138152
    96  H    0.169260
    97  C   -0.451390
    98  H    0.150048
    99  H    0.148133
   100  H    0.154682
   101  N   -0.625039
   102  H    0.414972
   103  C   -0.227871
   104  H    0.176408
   105  H    0.185153
   106  C    0.614593
   107  O   -0.552496
   108  N   -0.653144
   109  H    0.415343
   110  C   -0.018850
   111  H    0.176647
   112  C    0.639658
   113  C   -0.124734
   114  H    0.143088
   115  O   -0.563863
   116  C   -0.450677
   117  H    0.164468
   118  H    0.140454
   119  H    0.173357
   120  C   -0.448382
   121  H    0.148617
   122  H    0.151893
   123  H    0.141853
   124  N   -0.650367
   125  H    0.395417
   126  C   -0.037910
   127  H    0.195032
   128  C    0.624309
   129  C   -0.097555
   130  H    0.171868
   131  H    0.144816
   132  O   -0.554673
   133  O   -0.646928
   134  H    0.432693
   135  N   -0.659704
   136  H    0.409394
   137  C   -0.041631
   138  H    0.207191
   139  C    0.628416
   140  C   -0.298974
   141  H    0.143764
   142  H    0.155835
   143  O   -0.557914
   144  C   -0.079792
   145  H    0.072384
   146  C   -0.465414
   147  H    0.136710
   148  H    0.142868
   149  H    0.218531
   150  C   -0.440206
   151  H    0.128009
   152  H    0.142082
   153  H    0.153847
   154  N   -0.643389
   155  H    0.409301
   156  C   -0.032573
   157  H    0.143145
   158  C    0.622507
   159  C   -0.501708
   160  H    0.181969
   161  H    0.163217
   162  H    0.153767
   163  O   -0.528780
   164  N   -0.666487
   165  H    0.406901
   166  C   -0.026385
   167  H    0.183895
   168  C    0.630162
   169  C   -0.475780
   170  H    0.158266
   171  H    0.180490
   172  H    0.147129
   173  O   -0.541179
   174  N   -0.627945
   175  H    0.389682
   176  C   -0.073711
   177  H    0.183593
   178  C    0.642755
   179  C   -0.054653
   180  H    0.136110
   181  H    0.146982
   182  O   -0.561668
   183  O   -0.647941
   184  H    0.411521
   185  N   -0.621126
   186  H    0.391615
   187  C   -0.049613
   188  H    0.144262
   189  C    0.594964
   190  C   -0.332200
   191  H    0.175743
   192  H    0.195988
   193  O   -0.514979
   194  C   -0.297897
   195  H    0.144418
   196  H    0.204669
   197  C   -0.177239
   198  H    0.146658
   199  H    0.197708
   200  N   -0.595536
   201  H    0.424116
   202  N   -0.739133
   203  H    0.359790
   204  H    0.386313
   205  N   -0.765879
   206  H    0.423896
   207  H    0.347500
   208  C    0.758700
   209  O   -0.520510
 Sum of Mulliken charges =   1.00000

 Dipole moment (field-independent basis, Debye):
    X=             78.6699    Y=             16.6682    Z=            -29.6376  Tot=             85.7040
 Quadrupole moment (field-independent basis, Debye-Ang):
   XX=           -312.5080   YY=           -882.6920   ZZ=           -403.6998
   XY=           -409.2038   XZ=            -99.3168   YZ=             42.5913

 Normal termination of Gaussian 16 at Thu Aug 11 11:49:43 2022.
