 Gaussian 16, Revision C.01,
 Gaussian 16:  ES64L-G16RevC.01  3-Jul-2019

 ----------------------------------------------------------------------
 # B3LYP/6-31G* empiricaldispersion=gd3 guess=read geom=check nosymm in
 tegral(ultrafinegrid)
 ----------------------------------------------------------------------

 ------------------------------------------------------
 Candidate Structure: Conf:497 Charge calc in gas phase
 ------------------------------------------------------
 Structure from the checkpoint file:  "conf-497.chk"
 Charge =  1 Multiplicity = 1

                          Input orientation:
 ---------------------------------------------------------------------
 Center     Atomic      Atomic             Coordinates (Angstroms)
 Number     Number       Type             X           Y           Z
 ---------------------------------------------------------------------
      1          7           0       -4.154829    1.625138    2.216573
      2          1           0       -5.038202    1.572490    1.714465
      3          1           0       -4.370381    1.947322    3.155850
      4          6           0       -3.499864    0.314016    2.249567
      5          1           0       -4.176425   -0.551216    2.255983
      6          1           0       -2.889871    0.235686    3.156968
      7          6           0       -2.543014    0.118419    1.075118
      8          8           0       -2.061466   -0.988612    0.807795
      9          7           0       -2.246175    1.244911    0.386126
     10          1           0       -2.686565    2.099221    0.720765
     11          6           0       -1.415852    1.221156   -0.810824
     12          1           0       -1.647174    0.282856   -1.329995
     13          6           0        0.081707    1.166729   -0.418481
     14          6           0       -1.701178    2.417580   -1.721606
     15          1           0       -2.786557    2.564107   -1.781606
     16          1           0       -1.270233    3.312510   -1.260006
     17          8           0        0.839745    2.148898   -0.592481
     18          6           0       -1.132323    2.227689   -3.145322
     19          1           0       -0.151127    1.742449   -3.047025
     20          6           0       -2.024048    1.317919   -4.001751
     21          1           0       -2.999386    1.786684   -4.179136
     22          1           0       -1.565973    1.122348   -4.978777
     23          1           0       -2.202497    0.348660   -3.523504
     24          6           0       -0.912162    3.584894   -3.827978
     25          1           0       -1.842888    4.162495   -3.870079
     26          1           0       -0.169481    4.182878   -3.285562
     27          1           0       -0.579191    3.449112   -4.867848
     28          7           0        0.478373    0.009872    0.119581
     29          1           0       -0.255691   -0.687359    0.278172
     30          6           0        1.838329   -0.270069    0.606251
     31          1           0        2.191127    0.634689    1.117105
     32          6           0        2.722254   -0.498151   -0.648686
     33          6           0        1.841419   -1.424978    1.629900
     34          1           0        1.266717   -1.046977    2.487799
     35          8           0        2.944522   -1.589732   -1.146844
     36          6           0        1.164398   -2.717519    1.141519
     37          1           0        1.650514   -3.097488    0.240902
     38          1           0        1.240011   -3.479415    1.924604
     39          1           0        0.095616   -2.581529    0.940253
     40          6           0        3.280433   -1.690445    2.098462
     41          1           0        3.879742   -2.117185    1.288177
     42          1           0        3.280143   -2.402973    2.929042
     43          1           0        3.770723   -0.772805    2.446833
     44          7           0        3.154496    0.689366   -1.184621
     45          1           0        2.891996    1.512384   -0.659698
     46          6           0        3.597519    0.891325   -2.554756
     47          1           0        4.670963    0.705961   -2.663010
     48          6           0        3.375385    2.332188   -2.983340
     49          6           0        2.834213   -0.013021   -3.586394
     50          1           0        3.221944   -1.022105   -3.450143
     51          1           0        1.780051   -0.051666   -3.285437
     52          8           0        4.132386    2.847882   -3.805079
     53          6           0        2.950462    0.428238   -5.063215
     54          1           0        2.964116   -0.467676   -5.690679
     55          1           0        3.913522    0.923066   -5.227253
     56          6           0        1.777310    1.335188   -5.535699
     57          1           0        1.052117    0.723069   -6.081874
     58          1           0        1.222688    1.726146   -4.676247
     59          6           0        2.141951    2.517031   -6.446043
     60          1           0        3.030470    2.317528   -7.050047
     61          1           0        1.319413    2.780135   -7.115339
     62          7           0        2.441731    3.767170   -5.637705
     63          1           0        2.708961    4.554853   -6.235425
     64          1           0        1.620601    4.046135   -5.088047
     65          8           0        2.276574    2.986596   -2.625501
     66          1           0        1.711433    2.565577   -1.904832
     67          1           0        3.216290    3.586067   -4.928489
 ---------------------------------------------------------------------

 SCF Done:  E(RB3LYP) =  -1396.74212871     A.U. after    3 cycles

 Alpha  occ. eigenvalues --  -19.31823 -19.27508 -19.24072 -19.21387 -19.21074
 Alpha  occ. eigenvalues --  -14.58385 -14.46768 -14.46215 -14.45539 -14.41973
 Alpha  occ. eigenvalues --  -10.45545 -10.40309 -10.38947 -10.38611 -10.37935
 Alpha  occ. eigenvalues --  -10.35797 -10.33875 -10.32932 -10.32753 -10.31105
 Alpha  occ. eigenvalues --  -10.30645 -10.30449 -10.30239 -10.29089 -10.28972
 Alpha  occ. eigenvalues --  -10.27701 -10.27615 -10.24570 -10.23838  -1.23393
 Alpha  occ. eigenvalues --   -1.15539  -1.14571  -1.13332  -1.12935  -1.12750
 Alpha  occ. eigenvalues --   -1.03683  -1.03122  -1.02237  -0.97945  -0.93424
 Alpha  occ. eigenvalues --   -0.91994  -0.89893  -0.88387  -0.85527  -0.84013
 Alpha  occ. eigenvalues --   -0.80123  -0.79260  -0.78880  -0.77414  -0.76053
 Alpha  occ. eigenvalues --   -0.75086  -0.74162  -0.73323  -0.71844  -0.70574
 Alpha  occ. eigenvalues --   -0.69757  -0.68571  -0.67402  -0.67222  -0.66164
 Alpha  occ. eigenvalues --   -0.64803  -0.63315  -0.62711  -0.61243  -0.60596
 Alpha  occ. eigenvalues --   -0.59869  -0.59428  -0.59088  -0.58395  -0.57855
 Alpha  occ. eigenvalues --   -0.56839  -0.56766  -0.56079  -0.55630  -0.54688
 Alpha  occ. eigenvalues --   -0.54317  -0.54159  -0.53087  -0.52638  -0.52044
 Alpha  occ. eigenvalues --   -0.51831  -0.51115  -0.50640  -0.50508  -0.50033
 Alpha  occ. eigenvalues --   -0.49468  -0.49296  -0.49051  -0.48190  -0.47675
 Alpha  occ. eigenvalues --   -0.47537  -0.46889  -0.46690  -0.46536  -0.45534
 Alpha  occ. eigenvalues --   -0.45334  -0.45069  -0.44610  -0.44461  -0.43809
 Alpha  occ. eigenvalues --   -0.43315  -0.43099  -0.41684  -0.41335  -0.41150
 Alpha  occ. eigenvalues --   -0.40987  -0.39124  -0.38351  -0.36371  -0.35764
 Alpha  occ. eigenvalues --   -0.34560  -0.33595  -0.33370
 Alpha virt. eigenvalues --   -0.13523  -0.10643  -0.09697  -0.07741  -0.06881
 Alpha virt. eigenvalues --   -0.05658  -0.03963  -0.03235  -0.02181  -0.01214
 Alpha virt. eigenvalues --   -0.00968  -0.00560   0.00100   0.00919   0.01742

 Mulliken charges:
               1
     1  N   -0.748202
     2  H    0.324609
     3  H    0.331989
     4  C   -0.236992
     5  H    0.186993
     6  H    0.193576
     7  C    0.602896
     8  O   -0.545611
     9  N   -0.598880
    10  H    0.368383
    11  C   -0.048659
    12  H    0.184705
    13  C    0.639593
    14  C   -0.287546
    15  H    0.155955
    16  H    0.167990
    17  O   -0.609992
    18  C   -0.084757
    19  H    0.116122
    20  C   -0.455891
    21  H    0.163162
    22  H    0.139780
    23  H    0.163414
    24  C   -0.472163
    25  H    0.175425
    26  H    0.158250
    27  H    0.111040
    28  N   -0.618992
    29  H    0.413119
    30  C   -0.056907
    31  H    0.169870
    32  C    0.629050
    33  C   -0.098529
    34  H    0.142891
    35  O   -0.499878
    36  C   -0.491143
    37  H    0.190318
    38  H    0.159336
    39  H    0.166795
    40  C   -0.466604
    41  H    0.177604
    42  H    0.165118
    43  H    0.141986
    44  N   -0.644717
    45  H    0.350134
    46  C    0.013525
    47  H    0.205410
    48  C    0.590566
    49  C   -0.312064
    50  H    0.225644
    51  H    0.157527
    52  O   -0.511751
    53  C   -0.302332
    54  H    0.180455
    55  H    0.178025
    56  C   -0.322755
    57  H    0.194551
    58  H    0.176324
    59  C   -0.192209
    60  H    0.219569
    61  H    0.207606
    62  N   -0.770092
    63  H    0.406659
    64  H    0.410552
    65  O   -0.619778
    66  H    0.493971
    67  H    0.445957
 Sum of Mulliken charges =   1.00000

 Dipole moment (field-independent basis, Debye):
    X=              1.7226    Y=             12.9618    Z=            -15.8550  Tot=             20.5513
 Quadrupole moment (field-independent basis, Debye-Ang):
   XX=           -133.5448   YY=           -139.1970   ZZ=            -43.9200
   XY=             10.5869   XZ=            -45.4496   YZ=            -60.9457

 Normal termination of Gaussian 16 at Thu Jun  2 03:47:21 2022.
