 Gaussian 16, Revision C.01,
 Gaussian 16:  ES64L-G16RevC.01  3-Jul-2019

 ----------------------------------------------------------------------
 # B3LYP/6-31G* empiricaldispersion=gd3 guess=read geom=check nosymm in
 tegral(ultrafinegrid)
 ----------------------------------------------------------------------

 ------------------------------------------------------
 Candidate Structure: Conf:304 Charge calc in gas phase
 ------------------------------------------------------
 Structure from the checkpoint file:  "conf-304.chk"
 Charge =  1 Multiplicity = 1

                          Input orientation:
 ---------------------------------------------------------------------
 Center     Atomic      Atomic             Coordinates (Angstroms)
 Number     Number       Type             X           Y           Z
 ---------------------------------------------------------------------
      1          7           0       -4.288562   -0.692105    1.363730
      2          1           0       -5.055408   -0.562703    0.708334
      3          1           0       -4.686630   -1.084197    2.211961
      4          6           0       -3.262216   -1.572831    0.802964
      5          1           0       -3.621603   -2.303132    0.065518
      6          1           0       -2.793607   -2.154076    1.605400
      7          6           0       -2.137405   -0.787425    0.133143
      8          8           0       -1.264651   -1.371765   -0.538236
      9          7           0       -2.135582    0.533698    0.371167
     10          1           0       -2.894815    0.861564    0.967693
     11          6           0       -1.221932    1.470811   -0.280857
     12          1           0       -1.019407    1.057417   -1.273939
     13          6           0        0.161195    1.526750    0.403557
     14          6           0       -1.879602    2.850183   -0.428597
     15          1           0       -2.931010    2.677460   -0.694894
     16          1           0       -1.870241    3.361404    0.541538
     17          8           0        0.772701    2.590231    0.563244
     18          6           0       -1.268051    3.778867   -1.500005
     19          1           0       -0.238616    4.004751   -1.196542
     20          6           0       -1.234290    3.137580   -2.896463
     21          1           0       -2.243516    2.846810   -3.214746
     22          1           0       -0.854980    3.851931   -3.636733
     23          1           0       -0.601587    2.243092   -2.940923
     24          6           0       -2.046966    5.101940   -1.530029
     25          1           0       -3.087653    4.934495   -1.834271
     26          1           0       -2.058632    5.583784   -0.545706
     27          1           0       -1.603622    5.804219   -2.244869
     28          7           0        0.679230    0.324855    0.761480
     29          1           0        0.187661   -0.510089    0.442141
     30          6           0        2.090538    0.154487    1.123190
     31          1           0        2.418986    1.083050    1.596759
     32          6           0        2.809455    0.039951   -0.201133
     33          6           0        2.303457   -1.038524    2.071353
     34          1           0        1.941060   -1.939021    1.556570
     35          8           0        2.863108   -1.189010   -0.784606
     36          6           0        3.799770   -1.219544    2.364590
     37          1           0        4.215373   -0.326727    2.848454
     38          1           0        3.952772   -2.065361    3.041606
     39          1           0        4.375028   -1.419671    1.454177
     40          6           0        1.499154   -0.844346    3.362974
     41          1           0        1.841464    0.045387    3.905962
     42          1           0        1.628572   -1.708488    4.022007
     43          1           0        0.429741   -0.725272    3.162522
     44          7           0        3.218487    1.029395   -0.900617
     45          1           0        3.092993    2.715493   -0.712617
     46          6           0        3.500746    0.522205   -2.245778
     47          1           0        2.651795    0.809548   -2.877976
     48          6           0        3.361773   -0.987224   -2.098691
     49          6           0        4.801182    1.044953   -2.860503
     50          1           0        5.655894    0.528765   -2.408899
     51          1           0        4.802191    0.784326   -3.924713
     52          8           0        3.576686   -1.886448   -2.846456
     53          6           0        5.004920    2.561358   -2.671228
     54          1           0        5.943882    2.823208   -3.171460
     55          1           0        5.183004    2.762587   -1.606899
     56          6           0        3.933355    3.536038   -3.216909
     57          1           0        4.379273    4.539108   -3.218403
     58          1           0        3.717955    3.305077   -4.267534
     59          6           0        2.574992    3.631980   -2.497477
     60          1           0        2.038603    4.530914   -2.811268
     61          1           0        1.925002    2.776971   -2.690777
     62          7           0        2.724980    3.675882   -1.002614
     63          1           0        3.333219    4.433462   -0.683682
     64          1           0        1.815801    3.715247   -0.510302
     65          8           0        0.518125   -0.243276   -2.471559
     66          1           0        0.378013   -0.683171   -3.323955
     67          1           0       -0.057422   -0.739693   -1.850333
 ---------------------------------------------------------------------

 SCF Done:  E(RB3LYP) =  -1396.73664073     A.U. after    1 cycles

 Alpha  occ. eigenvalues --  -19.32291 -19.26015 -19.24280 -19.24225 -19.23253
 Alpha  occ. eigenvalues --  -14.54884 -14.47367 -14.47044 -14.45722 -14.43107
 Alpha  occ. eigenvalues --  -10.43278 -10.41358 -10.40861 -10.39813 -10.36985
 Alpha  occ. eigenvalues --  -10.35157 -10.34758 -10.34130 -10.32546 -10.32030
 Alpha  occ. eigenvalues --  -10.30890 -10.30595 -10.29694 -10.28926 -10.28841
 Alpha  occ. eigenvalues --  -10.26830 -10.26777 -10.26633 -10.26183  -1.24018
 Alpha  occ. eigenvalues --   -1.16066  -1.15697  -1.14558  -1.10483  -1.09841
 Alpha  occ. eigenvalues --   -1.05072  -1.04142  -1.03455  -0.99130  -0.93064
 Alpha  occ. eigenvalues --   -0.91627  -0.90937  -0.88438  -0.85877  -0.84573
 Alpha  occ. eigenvalues --   -0.81201  -0.79961  -0.78223  -0.77580  -0.77063
 Alpha  occ. eigenvalues --   -0.74880  -0.73593  -0.71678  -0.70132  -0.69703
 Alpha  occ. eigenvalues --   -0.69527  -0.69326  -0.67411  -0.66348  -0.65560
 Alpha  occ. eigenvalues --   -0.63942  -0.62878  -0.62690  -0.62094  -0.60829
 Alpha  occ. eigenvalues --   -0.60455  -0.59905  -0.58774  -0.58042  -0.57771
 Alpha  occ. eigenvalues --   -0.56556  -0.56331  -0.55493  -0.55187  -0.54796
 Alpha  occ. eigenvalues --   -0.53951  -0.53540  -0.53179  -0.52765  -0.52624
 Alpha  occ. eigenvalues --   -0.51904  -0.51479  -0.51315  -0.50841  -0.50493
 Alpha  occ. eigenvalues --   -0.50099  -0.48998  -0.48330  -0.48198  -0.47944
 Alpha  occ. eigenvalues --   -0.47694  -0.47249  -0.46973  -0.46464  -0.46226
 Alpha  occ. eigenvalues --   -0.45858  -0.45703  -0.45083  -0.44280  -0.43526
 Alpha  occ. eigenvalues --   -0.43399  -0.43026  -0.42737  -0.42520  -0.42131
 Alpha  occ. eigenvalues --   -0.40258  -0.39579  -0.39290  -0.38322  -0.37913
 Alpha  occ. eigenvalues --   -0.37317  -0.35543  -0.34982
 Alpha virt. eigenvalues --   -0.13901  -0.10576  -0.09331  -0.08469  -0.06788
 Alpha virt. eigenvalues --   -0.04689  -0.02391  -0.02294  -0.01733  -0.00790
 Alpha virt. eigenvalues --   -0.00153   0.00793   0.00962   0.01378   0.02240

 Mulliken charges:
               1
     1  N   -0.748588
     2  H    0.329474
     3  H    0.336229
     4  C   -0.238314
     5  H    0.190886
     6  H    0.196556
     7  C    0.599045
     8  O   -0.570791
     9  N   -0.583936
    10  H    0.375166
    11  C   -0.088150
    12  H    0.212920
    13  C    0.652601
    14  C   -0.278768
    15  H    0.150452
    16  H    0.160137
    17  O   -0.574370
    18  C   -0.083973
    19  H    0.108920
    20  C   -0.477101
    21  H    0.157219
    22  H    0.146708
    23  H    0.158959
    24  C   -0.446286
    25  H    0.156110
    26  H    0.154038
    27  H    0.148686
    28  N   -0.621607
    29  H    0.383491
    30  C   -0.032420
    31  H    0.184116
    32  C    0.623678
    33  C   -0.105543
    34  H    0.161194
    35  O   -0.476504
    36  C   -0.463754
    37  H    0.151246
    38  H    0.176186
    39  H    0.159511
    40  C   -0.449630
    41  H    0.153601
    42  H    0.169502
    43  H    0.151009
    44  N   -0.561082
    45  H    0.431492
    46  C   -0.086312
    47  H    0.217955
    48  C    0.624875
    49  C   -0.263124
    50  H    0.174195
    51  H    0.178831
    52  O   -0.404766
    53  C   -0.288541
    54  H    0.182662
    55  H    0.143212
    56  C   -0.294930
    57  H    0.170362
    58  H    0.183776
    59  C   -0.199403
    60  H    0.204357
    61  H    0.214684
    62  N   -0.786349
    63  H    0.385071
    64  H    0.452813
    65  O   -0.832059
    66  H    0.407456
    67  H    0.436920
 Sum of Mulliken charges =   1.00000

 Dipole moment (field-independent basis, Debye):
    X=              3.7828    Y=              9.8554    Z=             -2.7919  Tot=             10.9194
 Quadrupole moment (field-independent basis, Debye-Ang):
   XX=           -104.9842   YY=           -132.7517   ZZ=           -148.3199
   XY=             38.9525   XZ=            -16.6194   YZ=            -29.1175

 Normal termination of Gaussian 16 at Thu Jun  2 03:46:54 2022.
