 Gaussian 16, Revision C.01,
 Gaussian 16:  ES64L-G16RevC.01  3-Jul-2019

 ----------------------------------------------------------------------
 # B3LYP/6-31G* empiricaldispersion=gd3 guess=read geom=check nosymm in
 tegral(ultrafinegrid)
 ----------------------------------------------------------------------

 -----------------------------------------------------
 Candidate Structure: Conf:34 Charge calc in gas phase
 -----------------------------------------------------
 Structure from the checkpoint file:  "conf-34.chk"
 Charge =  1 Multiplicity = 1

                          Input orientation:
 ---------------------------------------------------------------------
 Center     Atomic      Atomic             Coordinates (Angstroms)
 Number     Number       Type             X           Y           Z
 ---------------------------------------------------------------------
      1          7           0       -3.808394   -0.427449    3.292797
      2          1           0       -4.733950   -0.694885    3.613517
      3          1           0       -3.284820   -0.128005    4.111048
      4          6           0       -3.137206   -1.538067    2.611501
      5          1           0       -3.878291   -2.247097    2.225517
      6          1           0       -2.456647   -2.121434    3.245273
      7          6           0       -2.335959   -1.071634    1.395737
      8          8           0       -1.589924   -1.848748    0.779857
      9          7           0       -2.517270    0.219797    1.055253
     10          1           0       -3.173853    0.725486    1.648357
     11          6           0       -2.057512    0.790698   -0.208024
     12          1           0       -2.155839    0.006652   -0.970306
     13          6           0       -0.555657    1.131867   -0.136586
     14          6           0       -2.891614    2.014820   -0.593742
     15          1           0       -2.717187    2.805095    0.146734
     16          1           0       -2.495015    2.401201   -1.540663
     17          8           0       -0.122957    2.288723   -0.246236
     18          6           0       -4.403101    1.751757   -0.744126
     19          1           0       -4.800937    1.427172    0.228640
     20          6           0       -5.111894    3.060437   -1.122257
     21          1           0       -4.769972    3.420010   -2.101170
     22          1           0       -6.195818    2.915472   -1.181083
     23          1           0       -4.916456    3.850408   -0.387840
     24          6           0       -4.706050    0.648848   -1.768423
     25          1           0       -4.275274    0.896107   -2.747592
     26          1           0       -4.311020   -0.326116   -1.460205
     27          1           0       -5.786710    0.533352   -1.902883
     28          7           0        0.264472    0.060354    0.021998
     29          1           0       -0.187004   -0.855618    0.157309
     30          6           0        1.682166    0.237874    0.330054
     31          1           0        1.779706    1.147290    0.938695
     32          6           0        2.379306    0.537153   -0.997937
     33          6           0        2.297547   -0.943435    1.106838
     34          1           0        2.299506   -1.821749    0.449325
     35          8           0        3.088408   -0.408746   -1.545805
     36          6           0        3.746523   -0.612671    1.502800
     37          1           0        3.777394    0.249029    2.181097
     38          1           0        4.191297   -1.462556    2.028530
     39          1           0        4.382543   -0.395484    0.639017
     40          6           0        1.460456   -1.260114    2.357131
     41          1           0        1.346492   -0.368860    2.987125
     42          1           0        1.970798   -2.024078    2.951675
     43          1           0        0.467400   -1.642878    2.109362
     44          7           0        2.174525    1.708066   -1.548117
     45          1           0        1.482251    2.283494   -1.027535
     46          6           0        2.456204    2.113729   -2.947650
     47          1           0        2.175249    1.276690   -3.600086
     48          6           0        3.964799    2.351683   -3.109379
     49          6           0        1.639099    3.359402   -3.295966
     50          1           0        0.606880    3.195206   -2.961342
     51          1           0        2.039512    4.206350   -2.726400
     52          8           0        4.525926    3.405610   -3.184916
     53          6           0        1.671843    3.665870   -4.797565
     54          1           0        1.246297    2.817111   -5.353198
     55          1           0        2.703072    3.787574   -5.142957
     56          6           0        0.896000    4.940450   -5.148437
     57          1           0       -0.158376    4.837493   -4.857390
     58          1           0        1.298561    5.781746   -4.565006
     59          6           0        0.973591    5.281933   -6.641930
     60          1           0        0.561340    4.446714   -7.223071
     61          1           0        0.325793    6.153282   -6.840047
     62          7           0        2.370179    5.464715   -7.055371
     63          1           0        2.425676    5.556556   -8.067807
     64          1           0        2.729341    6.339185   -6.673391
     65          8           0        4.615861    1.141239   -3.137714
     66          1           0        3.643277   -0.089003   -2.302317
     67          1           0        5.579165    1.295531   -3.209073
 ---------------------------------------------------------------------

 SCF Done:  E(RB3LYP) =  -1396.71303582     A.U. after    1 cycles

 Alpha  occ. eigenvalues --  -19.36717 -19.35268 -19.28829 -19.25192 -19.22193
 Alpha  occ. eigenvalues --  -14.54319 -14.48186 -14.46220 -14.42753 -14.38275
 Alpha  occ. eigenvalues --  -10.48308 -10.46717 -10.41309 -10.39187 -10.38852
 Alpha  occ. eigenvalues --  -10.37775 -10.34218 -10.31996 -10.31484 -10.30743
 Alpha  occ. eigenvalues --  -10.28339 -10.28111 -10.28015 -10.27656 -10.27621
 Alpha  occ. eigenvalues --  -10.27591 -10.26491 -10.25455 -10.24981  -1.27179
 Alpha  occ. eigenvalues --   -1.24995  -1.16806  -1.16697  -1.13729  -1.11651
 Alpha  occ. eigenvalues --   -1.05295  -1.03217  -0.98709  -0.95302  -0.94740
 Alpha  occ. eigenvalues --   -0.92387  -0.90102  -0.87370  -0.85600  -0.84084
 Alpha  occ. eigenvalues --   -0.81024  -0.79753  -0.79301  -0.78742  -0.76687
 Alpha  occ. eigenvalues --   -0.76280  -0.74431  -0.72990  -0.71576  -0.70043
 Alpha  occ. eigenvalues --   -0.69242  -0.67893  -0.67053  -0.66510  -0.65504
 Alpha  occ. eigenvalues --   -0.65197  -0.63849  -0.63128  -0.62340  -0.60926
 Alpha  occ. eigenvalues --   -0.60247  -0.60154  -0.58479  -0.57915  -0.57273
 Alpha  occ. eigenvalues --   -0.56835  -0.56478  -0.55415  -0.55045  -0.54733
 Alpha  occ. eigenvalues --   -0.54280  -0.53612  -0.53591  -0.53263  -0.52785
 Alpha  occ. eigenvalues --   -0.52031  -0.52024  -0.51197  -0.50506  -0.50079
 Alpha  occ. eigenvalues --   -0.49774  -0.49525  -0.48537  -0.48356  -0.47373
 Alpha  occ. eigenvalues --   -0.47185  -0.47048  -0.46750  -0.46340  -0.45864
 Alpha  occ. eigenvalues --   -0.45545  -0.45092  -0.44740  -0.44590  -0.44461
 Alpha  occ. eigenvalues --   -0.42977  -0.42024  -0.41570  -0.41397  -0.41288
 Alpha  occ. eigenvalues --   -0.41095  -0.40899  -0.39644  -0.38835  -0.37537
 Alpha  occ. eigenvalues --   -0.35655  -0.34312  -0.30571
 Alpha virt. eigenvalues --   -0.17687  -0.14158  -0.11001  -0.08108  -0.07079
 Alpha virt. eigenvalues --   -0.03406  -0.02214  -0.01749  -0.00736   0.00057
 Alpha virt. eigenvalues --    0.00380   0.01077   0.01398   0.01739   0.02428

 Mulliken charges:
               1
     1  N   -0.751085
     2  H    0.335803
     3  H    0.327934
     4  C   -0.238914
     5  H    0.201518
     6  H    0.183812
     7  C    0.610503
     8  O   -0.558615
     9  N   -0.591982
    10  H    0.380388
    11  C   -0.063407
    12  H    0.189199
    13  C    0.638747
    14  C   -0.281135
    15  H    0.162208
    16  H    0.149433
    17  O   -0.554552
    18  C   -0.083743
    19  H    0.130771
    20  C   -0.444495
    21  H    0.146171
    22  H    0.159446
    23  H    0.150040
    24  C   -0.455337
    25  H    0.143748
    26  H    0.146720
    27  H    0.163988
    28  N   -0.635374
    29  H    0.406766
    30  C   -0.040137
    31  H    0.201192
    32  C    0.631428
    33  C   -0.111659
    34  H    0.169676
    35  O   -0.552954
    36  C   -0.464950
    37  H    0.160323
    38  H    0.182432
    39  H    0.146589
    40  C   -0.478327
    41  H    0.149717
    42  H    0.174113
    43  H    0.181440
    44  N   -0.584318
    45  H    0.432922
    46  C   -0.077215
    47  H    0.206898
    48  C    0.634150
    49  C   -0.307366
    50  H    0.168898
    51  H    0.185260
    52  O   -0.387263
    53  C   -0.273302
    54  H    0.134917
    55  H    0.192093
    56  C   -0.261979
    57  H    0.137282
    58  H    0.141558
    59  C   -0.142836
    60  H    0.143833
    61  H    0.134375
    62  N   -0.720754
    63  H    0.311144
    64  H    0.301917
    65  O   -0.618467
    66  H    0.479280
    67  H    0.451533
 Sum of Mulliken charges =   1.00000

 Dipole moment (field-independent basis, Debye):
    X=              3.5668    Y=              4.8205    Z=             -4.0887  Tot=              7.2579
 Quadrupole moment (field-independent basis, Debye-Ang):
   XX=           -108.1702   YY=           -154.7954   ZZ=           -111.2133
   XY=              5.4467   XZ=            -32.7339   YZ=            -34.1901

 Normal termination of Gaussian 16 at Thu Jun  2 03:46:50 2022.
