 Gaussian 16, Revision C.01,
 Gaussian 16:  ES64L-G16RevC.01  3-Jul-2019

 ----------------------------------------------------------------------
 # B3LYP/6-31G* empiricaldispersion=gd3 guess=read geom=check nosymm in
 tegral(ultrafinegrid)
 ----------------------------------------------------------------------

 ------------------------------------------------------
 Candidate Structure: Conf:123 Charge calc in gas phase
 ------------------------------------------------------
 Structure from the checkpoint file:  "conf-123.chk"
 Charge =  1 Multiplicity = 1

                          Input orientation:
 ---------------------------------------------------------------------
 Center     Atomic      Atomic             Coordinates (Angstroms)
 Number     Number       Type             X           Y           Z
 ---------------------------------------------------------------------
      1          7           0       -2.639818    1.983745    4.316124
      2          1           0       -2.818356    1.033791    4.636887
      3          1           0       -1.640850    2.131915    4.446066
      4          6           0       -2.974552    2.087163    2.912456
      5          1           0       -2.763645    3.105440    2.558252
      6          1           0       -4.056717    1.942302    2.788420
      7          6           0       -2.265996    1.081041    1.992725
      8          8           0       -1.601037    0.142031    2.446173
      9          7           0       -2.422291    1.273724    0.654514
     10          1           0       -2.976376    2.060428    0.340552
     11          6           0       -2.078644    0.258792   -0.348017
     12          1           0       -2.276803   -0.718737    0.108118
     13          6           0       -0.570319    0.291072   -0.656664
     14          6           0       -2.911159    0.433293   -1.620409
     15          1           0       -2.648463    1.393434   -2.083460
     16          1           0       -2.588118   -0.336186   -2.331551
     17          8           0       -0.097112    0.537357   -1.772269
     18          6           0       -4.437141    0.337168   -1.423782
     19          1           0       -4.758904    1.149882   -0.754700
     20          6           0       -5.138626    0.545734   -2.773798
     21          1           0       -4.873669   -0.253888   -3.476990
     22          1           0       -6.227054    0.536983   -2.654291
     23          1           0       -4.857049    1.501652   -3.230722
     24          6           0       -4.861635   -0.992550   -0.784431
     25          1           0       -4.513372   -1.842607   -1.385242
     26          1           0       -4.467855   -1.111550    0.231648
     27          1           0       -5.952705   -1.058017   -0.719381
     28          7           0        0.239989   -0.017481    0.385101
     29          1           0       -0.182578   -0.151530    1.311571
     30          6           0        1.670325    0.129585    0.222388
     31          1           0        1.931806    1.198593    0.184176
     32          6           0        2.051436   -0.442076   -1.130053
     33          6           0        2.457209   -0.508934    1.403297
     34          1           0        2.122344    0.063448    2.279476
     35          8           0        1.690219   -1.667489   -1.373953
     36          6           0        2.131830   -1.988678    1.646283
     37          1           0        2.506822   -2.621923    0.836636
     38          1           0        2.609944   -2.314853    2.575024
     39          1           0        1.056748   -2.165602    1.741891
     40          6           0        3.965319   -0.279760    1.232588
     41          1           0        4.364540   -0.849113    0.383576
     42          1           0        4.499326   -0.614129    2.126389
     43          1           0        4.207151    0.779291    1.080529
     44          7           0        2.828288    0.236027   -1.953517
     45          1           0        3.061211    1.176768   -1.655276
     46          6           0        2.913574    0.010204   -3.416947
     47          1           0        1.945256   -0.408888   -3.722328
     48          6           0        3.997057   -1.026993   -3.728796
     49          6           0        3.145759    1.338682   -4.137988
     50          1           0        4.092738    1.774921   -3.792952
     51          1           0        3.297238    1.105149   -5.197104
     52          8           0        4.980770   -0.864745   -4.391359
     53          6           0        1.980417    2.324752   -3.974983
     54          1           0        1.827044    2.574769   -2.914870
     55          1           0        1.047491    1.839645   -4.292050
     56          6           0        2.190971    3.619721   -4.768311
     57          1           0        3.129995    4.100070   -4.456022
     58          1           0        2.303932    3.383142   -5.835991
     59          6           0        1.028526    4.614236   -4.588351
     60          1           0        0.090598    4.129879   -4.891747
     61          1           0        0.918846    4.849316   -3.520387
     62          7           0        1.136503    5.874744   -5.314697
     63          1           0        1.989407    6.366276   -5.052293
     64          1           0        1.198242    5.703962   -6.317060
     65          8           0        3.663235   -2.221623   -3.140810
     66          1           0        2.198907   -2.073169   -2.118665
     67          1           0        4.349624   -2.888029   -3.342602
 ---------------------------------------------------------------------

 SCF Done:  E(RB3LYP) =  -1396.69437620     A.U. after    1 cycles

 Alpha  occ. eigenvalues --  -19.36735 -19.35695 -19.29338 -19.25196 -19.23202
 Alpha  occ. eigenvalues --  -14.55394 -14.48176 -14.47533 -14.39877 -14.38488
 Alpha  occ. eigenvalues --  -10.49356 -10.47233 -10.41179 -10.39949 -10.39473
 Alpha  occ. eigenvalues --  -10.38696 -10.34719 -10.33002 -10.32081 -10.31357
 Alpha  occ. eigenvalues --  -10.29893 -10.29760 -10.28831 -10.28635 -10.28571
 Alpha  occ. eigenvalues --  -10.28215 -10.27501 -10.25757 -10.25370  -1.27625
 Alpha  occ. eigenvalues --   -1.25488  -1.17265  -1.16838  -1.14638  -1.12606
 Alpha  occ. eigenvalues --   -1.05674  -1.03716  -0.97061  -0.95974  -0.95418
 Alpha  occ. eigenvalues --   -0.93145  -0.90689  -0.88660  -0.86718  -0.84680
 Alpha  occ. eigenvalues --   -0.81754  -0.80409  -0.80170  -0.78559  -0.76703
 Alpha  occ. eigenvalues --   -0.76589  -0.75403  -0.74624  -0.73053  -0.71366
 Alpha  occ. eigenvalues --   -0.69806  -0.68792  -0.68627  -0.66878  -0.65856
 Alpha  occ. eigenvalues --   -0.65475  -0.64068  -0.63541  -0.62084  -0.61510
 Alpha  occ. eigenvalues --   -0.60588  -0.59500  -0.58897  -0.58719  -0.58516
 Alpha  occ. eigenvalues --   -0.57592  -0.57432  -0.56251  -0.55634  -0.55524
 Alpha  occ. eigenvalues --   -0.54987  -0.54476  -0.53984  -0.53494  -0.53074
 Alpha  occ. eigenvalues --   -0.52058  -0.51780  -0.51611  -0.51134  -0.50521
 Alpha  occ. eigenvalues --   -0.50125  -0.49816  -0.49790  -0.48664  -0.48186
 Alpha  occ. eigenvalues --   -0.47805  -0.47651  -0.47334  -0.46570  -0.46425
 Alpha  occ. eigenvalues --   -0.46202  -0.46035  -0.45708  -0.45391  -0.45100
 Alpha  occ. eigenvalues --   -0.45033  -0.43941  -0.42218  -0.41969  -0.41716
 Alpha  occ. eigenvalues --   -0.41544  -0.41399  -0.39946  -0.38691  -0.37198
 Alpha  occ. eigenvalues --   -0.36223  -0.32486  -0.30555
 Alpha virt. eigenvalues --   -0.17967  -0.14679  -0.11195  -0.08731  -0.08205
 Alpha virt. eigenvalues --   -0.06778  -0.03028  -0.02611  -0.02316  -0.00726
 Alpha virt. eigenvalues --   -0.00243   0.00102   0.00390   0.00576   0.00786

 Mulliken charges:
               1
     1  N   -0.670449
     2  H    0.318915
     3  H    0.305776
     4  C   -0.250737
     5  H    0.174243
     6  H    0.191966
     7  C    0.584295
     8  O   -0.542310
     9  N   -0.595780
    10  H    0.348826
    11  C   -0.074137
    12  H    0.197160
    13  C    0.659950
    14  C   -0.287365
    15  H    0.154753
    16  H    0.160571
    17  O   -0.549895
    18  C   -0.080580
    19  H    0.118790
    20  C   -0.444740
    21  H    0.149741
    22  H    0.162318
    23  H    0.148311
    24  C   -0.455550
    25  H    0.148884
    26  H    0.146581
    27  H    0.166549
    28  N   -0.646175
    29  H    0.403433
    30  C    0.014031
    31  H    0.167368
    32  C    0.659083
    33  C   -0.128454
    34  H    0.176335
    35  O   -0.550413
    36  C   -0.451238
    37  H    0.153072
    38  H    0.178352
    39  H    0.175243
    40  C   -0.467680
    41  H    0.146726
    42  H    0.192085
    43  H    0.151878
    44  N   -0.559917
    45  H    0.380090
    46  C   -0.102179
    47  H    0.224096
    48  C    0.643725
    49  C   -0.312380
    50  H    0.173263
    51  H    0.197082
    52  O   -0.389602
    53  C   -0.272815
    54  H    0.127655
    55  H    0.164897
    56  C   -0.269743
    57  H    0.134670
    58  H    0.142862
    59  C   -0.138827
    60  H    0.147556
    61  H    0.138591
    62  N   -0.697923
    63  H    0.299885
    64  H    0.302195
    65  O   -0.622975
    66  H    0.477057
    67  H    0.453004
 Sum of Mulliken charges =   1.00000

 Dipole moment (field-independent basis, Debye):
    X=              7.3031    Y=             -0.1779    Z=             -6.8669  Tot=             10.0261
 Quadrupole moment (field-independent basis, Debye-Ang):
   XX=           -123.1947   YY=           -158.7138   ZZ=           -143.4050
   XY=             -3.6322   XZ=            -15.3167   YZ=              1.0026

 Normal termination of Gaussian 16 at Thu Jun  2 03:46:51 2022.
