 Gaussian 16, Revision C.01,
 Gaussian 16:  ES64L-G16RevC.01  3-Jul-2019

 ----------------------------------------------------------------------
 # B3LYP/6-31G* empiricaldispersion=gd3 guess=read geom=check nosymm in
 tegral(ultrafinegrid)
 ----------------------------------------------------------------------

 ------------------------------------------------------
 Candidate Structure: Conf:549 Charge calc in gas phase
 ------------------------------------------------------
 Structure from the checkpoint file:  "conf-549.chk"
 Charge =  1 Multiplicity = 1

                          Input orientation:
 ---------------------------------------------------------------------
 Center     Atomic      Atomic             Coordinates (Angstroms)
 Number     Number       Type             X           Y           Z
 ---------------------------------------------------------------------
      1          7           0       -1.873336   -3.886114    2.581793
      2          1           0       -1.571474   -4.405340    1.759969
      3          1           0       -1.026885   -3.534657    3.024596
      4          6           0       -2.729531   -2.791751    2.182366
      5          1           0       -3.015585   -2.206901    3.065956
      6          1           0       -3.664705   -3.198349    1.771500
      7          6           0       -2.148413   -1.858499    1.112231
      8          8           0       -1.195603   -2.222487    0.396992
      9          7           0       -2.709931   -0.635823    0.989295
     10          1           0       -3.453054   -0.388690    1.631369
     11          6           0       -2.481016    0.282043   -0.131851
     12          1           0       -2.372811   -0.327734   -1.038170
     13          6           0       -1.146776    1.047035   -0.067311
     14          6           0       -3.669338    1.239104   -0.291310
     15          1           0       -3.753930    1.851122    0.617854
     16          1           0       -3.420738    1.933614   -1.099471
     17          8           0       -0.999418    2.126588   -0.645361
     18          6           0       -5.018406    0.556380   -0.593235
     19          1           0       -5.279746   -0.104560    0.247579
     20          6           0       -6.115418    1.625742   -0.700011
     21          1           0       -5.917941    2.302232   -1.540828
     22          1           0       -7.095060    1.165207   -0.864620
     23          1           0       -6.176748    2.232315    0.210898
     24          6           0       -4.963840   -0.301416   -1.865432
     25          1           0       -4.649125    0.300592   -2.727488
     26          1           0       -4.271620   -1.146744   -1.771297
     27          1           0       -5.951180   -0.716294   -2.092885
     28          7           0       -0.116826    0.420310    0.574652
     29          1           0       -0.217635   -0.576586    0.751303
     30          6           0        1.244168    0.945889    0.504238
     31          1           0        1.176399    2.034127    0.599943
     32          6           0        1.704010    0.677995   -0.915400
     33          6           0        2.153012    0.397356    1.625246
     34          1           0        1.688058    0.776584    2.544486
     35          8           0        2.445392   -0.357786   -1.246069
     36          6           0        2.208120   -1.137532    1.719755
     37          1           0        2.706767   -1.581565    0.854565
     38          1           0        2.775324   -1.418695    2.612416
     39          1           0        1.217533   -1.597700    1.811958
     40          6           0        3.559929    1.004717    1.510072
     41          1           0        4.083464    0.635569    0.620636
     42          1           0        4.160836    0.724834    2.380075
     43          1           0        3.528374    2.099665    1.466148
     44          7           0        1.293971    1.378656   -1.937200
     45          1           0        0.546132    2.067721   -1.800593
     46          6           0        1.669953    0.753870   -3.206523
     47          1           0        0.758537    0.431918   -3.719521
     48          6           0        2.410525   -0.475221   -2.708951
     49          6           0        2.539765    1.647052   -4.106302
     50          1           0        3.442178    1.938306   -3.554771
     51          1           0        2.863993    1.030292   -4.952731
     52          8           0        2.953329   -1.365251   -3.258882
     53          6           0        1.787693    2.891251   -4.591572
     54          1           0        1.436559    3.473603   -3.729221
     55          1           0        0.898607    2.582014   -5.161314
     56          6           0        2.673523    3.800766   -5.449751
     57          1           0        3.555098    4.092346   -4.864699
     58          1           0        3.030022    3.250390   -6.331271
     59          6           0        1.951646    5.077001   -5.904314
     60          1           0        2.664819    5.691226   -6.464175
     61          1           0        1.147328    4.810406   -6.610954
     62          7           0        1.473965    5.851687   -4.747496
     63          1           0        1.470389    6.844687   -4.966401
     64          1           0        0.507847    5.612908   -4.535693
     65          8           0       -0.245346   -1.263702   -2.092535
     66          1           0       -0.370643   -1.952406   -2.763120
     67          1           0       -0.529643   -1.689930   -1.255578
 ---------------------------------------------------------------------

 SCF Done:  E(RB3LYP) =  -1396.69530334     A.U. after    2 cycles

 Alpha  occ. eigenvalues --  -19.37715 -19.31127 -19.26160 -19.25923 -19.25700
 Alpha  occ. eigenvalues --  -14.55128 -14.49807 -14.49566 -14.41359 -14.39144
 Alpha  occ. eigenvalues --  -10.48522 -10.48092 -10.42613 -10.41738 -10.39733
 Alpha  occ. eigenvalues --  -10.38938 -10.35917 -10.32992 -10.32480 -10.32137
 Alpha  occ. eigenvalues --  -10.29443 -10.29282 -10.29042 -10.28910 -10.28839
 Alpha  occ. eigenvalues --  -10.28740 -10.26906 -10.26727 -10.25976  -1.29869
 Alpha  occ. eigenvalues --   -1.21638  -1.17912  -1.16828  -1.12187  -1.11733
 Alpha  occ. eigenvalues --   -1.07023  -1.05603  -0.98582  -0.96152  -0.95655
 Alpha  occ. eigenvalues --   -0.93056  -0.91710  -0.88563  -0.87017  -0.84588
 Alpha  occ. eigenvalues --   -0.81155  -0.80229  -0.80001  -0.79639  -0.77510
 Alpha  occ. eigenvalues --   -0.77033  -0.75795  -0.73351  -0.72104  -0.71702
 Alpha  occ. eigenvalues --   -0.71140  -0.68013  -0.66896  -0.66744  -0.66063
 Alpha  occ. eigenvalues --   -0.65163  -0.64636  -0.63241  -0.62012  -0.61434
 Alpha  occ. eigenvalues --   -0.60613  -0.59991  -0.59898  -0.59306  -0.57968
 Alpha  occ. eigenvalues --   -0.57454  -0.57126  -0.56118  -0.55967  -0.55569
 Alpha  occ. eigenvalues --   -0.55238  -0.54797  -0.54481  -0.53619  -0.53385
 Alpha  occ. eigenvalues --   -0.53137  -0.52768  -0.52071  -0.51822  -0.50561
 Alpha  occ. eigenvalues --   -0.50044  -0.49612  -0.49375  -0.49174  -0.48660
 Alpha  occ. eigenvalues --   -0.48541  -0.47494  -0.47186  -0.47059  -0.46496
 Alpha  occ. eigenvalues --   -0.46061  -0.45751  -0.45476  -0.45127  -0.44308
 Alpha  occ. eigenvalues --   -0.43397  -0.43152  -0.42734  -0.42456  -0.42410
 Alpha  occ. eigenvalues --   -0.41926  -0.41586  -0.41122  -0.40505  -0.39404
 Alpha  occ. eigenvalues --   -0.37578  -0.33879  -0.31492
 Alpha virt. eigenvalues --   -0.19455  -0.14173  -0.12067  -0.10885  -0.05973
 Alpha virt. eigenvalues --   -0.04210  -0.03358  -0.02822  -0.02390  -0.01379
 Alpha virt. eigenvalues --   -0.00629  -0.00164   0.00125   0.00803   0.01586

 Mulliken charges:
               1
     1  N   -0.671410
     2  H    0.321187
     3  H    0.309011
     4  C   -0.252280
     5  H    0.176552
     6  H    0.201759
     7  C    0.585341
     8  O   -0.566325
     9  N   -0.585532
    10  H    0.356626
    11  C   -0.078290
    12  H    0.207987
    13  C    0.654701
    14  C   -0.298391
    15  H    0.152162
    16  H    0.182063
    17  O   -0.545202
    18  C   -0.080097
    19  H    0.118108
    20  C   -0.445285
    21  H    0.153146
    22  H    0.163380
    23  H    0.151845
    24  C   -0.453964
    25  H    0.150397
    26  H    0.137238
    27  H    0.169235
    28  N   -0.634169
    29  H    0.396262
    30  C   -0.061946
    31  H    0.213607
    32  C    0.694601
    33  C   -0.103563
    34  H    0.171005
    35  O   -0.453727
    36  C   -0.486087
    37  H    0.184159
    38  H    0.180870
    39  H    0.151643
    40  C   -0.472806
    41  H    0.162623
    42  H    0.186360
    43  H    0.162237
    44  N   -0.569882
    45  H    0.421682
    46  C   -0.064420
    47  H    0.242514
    48  C    0.635215
    49  C   -0.265483
    50  H    0.169226
    51  H    0.193773
    52  O   -0.360333
    53  C   -0.286322
    54  H    0.153829
    55  H    0.142418
    56  C   -0.234324
    57  H    0.151607
    58  H    0.141590
    59  C   -0.160153
    60  H    0.159657
    61  H    0.131477
    62  N   -0.723154
    63  H    0.316228
    64  H    0.297763
    65  O   -0.848351
    66  H    0.410995
    67  H    0.439416
 Sum of Mulliken charges =   1.00000

 Dipole moment (field-independent basis, Debye):
    X=             -1.2071    Y=              3.9861    Z=             -5.3068  Tot=              6.7460
 Quadrupole moment (field-independent basis, Debye-Ang):
   XX=           -136.0664   YY=           -156.0793   ZZ=           -126.2815
   XY=              9.9516   XZ=             -6.1412   YZ=            -21.9622

 Normal termination of Gaussian 16 at Thu Jun  2 03:47:05 2022.
