 Gaussian 16, Revision C.01,
 Gaussian 16:  ES64L-G16RevC.01  3-Jul-2019

 ----------------------------------------------------------------------
 # B3LYP/6-31G* empiricaldispersion=gd3 guess=read geom=check nosymm in
 tegral(ultrafinegrid)
 ----------------------------------------------------------------------

 ------------------------------------------------------
 Candidate Structure: Conf:950 Charge calc in gas phase
 ------------------------------------------------------
 Structure from the checkpoint file:  "conf-950.chk"
 Charge =  1 Multiplicity = 1

                          Input orientation:
 ---------------------------------------------------------------------
 Center     Atomic      Atomic             Coordinates (Angstroms)
 Number     Number       Type             X           Y           Z
 ---------------------------------------------------------------------
      1          7           0       -1.612604   -3.986063    1.898166
      2          1           0       -1.221325   -4.374016    1.042403
      3          1           0       -0.819423   -3.690616    2.463289
      4          6           0       -2.458412   -2.857493    1.584276
      5          1           0       -2.860005   -2.428782    2.511928
      6          1           0       -3.328958   -3.207734    1.011872
      7          6           0       -1.798676   -1.744322    0.758382
      8          8           0       -0.708583   -1.928695    0.184417
      9          7           0       -2.449975   -0.561109    0.689444
     10          1           0       -3.316626   -0.456109    1.203674
     11          6           0       -2.108129    0.501202   -0.266084
     12          1           0       -1.724316   -0.001057   -1.160943
     13          6           0       -0.929989    1.374998    0.193245
     14          6           0       -3.366075    1.302088   -0.639904
     15          1           0       -4.159322    0.562074   -0.816149
     16          1           0       -3.677106    1.910400    0.219332
     17          8           0       -0.820296    2.560371   -0.129448
     18          6           0       -3.266314    2.201387   -1.892906
     19          1           0       -2.591432    3.029399   -1.658479
     20          6           0       -2.707730    1.451483   -3.111937
     21          1           0       -3.300019    0.553073   -3.331269
     22          1           0       -2.742867    2.090733   -4.000778
     23          1           0       -1.664536    1.141681   -2.971217
     24          6           0       -4.654944    2.781168   -2.200009
     25          1           0       -5.363837    1.987679   -2.469441
     26          1           0       -5.064720    3.320283   -1.337997
     27          1           0       -4.606265    3.482392   -3.039850
     28          7           0        0.052395    0.738235    0.900669
     29          1           0        0.052688   -0.281050    0.909970
     30          6           0        1.317790    1.412637    1.182774
     31          1           0        1.091461    2.448785    1.453163
     32          6           0        2.025644    1.431466   -0.153868
     33          6           0        2.121469    0.731214    2.304502
     34          1           0        2.352709   -0.291437    1.975986
     35          8           0        2.899023    0.505155   -0.484608
     36          6           0        3.441399    1.480870    2.541908
     37          1           0        3.253552    2.515523    2.853709
     38          1           0        4.009881    0.992977    3.338799
     39          1           0        4.078928    1.496193    1.651295
     40          6           0        1.280344    0.667812    3.586875
     41          1           0        1.026515    1.675232    3.937807
     42          1           0        1.848319    0.170826    4.378866
     43          1           0        0.346617    0.116170    3.441616
     44          7           0        1.725484    2.248861   -1.126950
     45          1           0        0.901988    2.851359   -1.033822
     46          6           0        2.359266    1.842886   -2.384214
     47          1           0        1.577095    1.532477   -3.084045
     48          6           0        3.123944    0.609270   -1.931168
     49          6           0        3.273930    2.914029   -2.998033
     50          1           0        4.039322    3.187217   -2.263542
     51          1           0        3.790974    2.445694   -3.844088
     52          8           0        3.839741   -0.140687   -2.491285
     53          6           0        2.487023    4.147508   -3.464452
     54          1           0        1.976250    4.605642   -2.604530
     55          1           0        1.701158    3.824087   -4.160617
     56          6           0        3.369961    5.208611   -4.142359
     57          1           0        3.903492    4.756392   -4.990740
     58          1           0        2.716422    5.982583   -4.565773
     59          6           0        4.383844    5.886063   -3.199010
     60          1           0        3.846761    6.293483   -2.330641
     61          1           0        5.087665    5.142328   -2.803056
     62          7           0        5.176287    6.963664   -3.781173
     63          1           0        5.721357    6.619842   -4.570090
     64          1           0        4.568635    7.695432   -4.146141
     65          8           0        0.546761   -0.506096   -1.950452
     66          1           0        0.588893   -1.071581   -2.736868
     67          1           0        0.179466   -1.090450   -1.252480
 ---------------------------------------------------------------------

 SCF Done:  E(RB3LYP) =  -1396.69306466     A.U. after    2 cycles

 Alpha  occ. eigenvalues --  -19.38125 -19.31482 -19.26833 -19.26247 -19.25765
 Alpha  occ. eigenvalues --  -14.55663 -14.50201 -14.49602 -14.41371 -14.38646
 Alpha  occ. eigenvalues --  -10.48949 -10.48500 -10.42909 -10.41797 -10.40242
 Alpha  occ. eigenvalues --  -10.39182 -10.36013 -10.33057 -10.32707 -10.32696
 Alpha  occ. eigenvalues --  -10.30314 -10.29776 -10.29209 -10.29165 -10.28945
 Alpha  occ. eigenvalues --  -10.28250 -10.27693 -10.26678 -10.25672  -1.30296
 Alpha  occ. eigenvalues --   -1.22022  -1.18227  -1.16914  -1.12660  -1.12327
 Alpha  occ. eigenvalues --   -1.07321  -1.05629  -0.98631  -0.96483  -0.95706
 Alpha  occ. eigenvalues --   -0.93560  -0.91599  -0.89183  -0.86927  -0.84985
 Alpha  occ. eigenvalues --   -0.81325  -0.80229  -0.79949  -0.79719  -0.77568
 Alpha  occ. eigenvalues --   -0.77436  -0.75915  -0.73868  -0.72689  -0.71754
 Alpha  occ. eigenvalues --   -0.70634  -0.69185  -0.68048  -0.66532  -0.65761
 Alpha  occ. eigenvalues --   -0.65403  -0.64917  -0.63843  -0.63202  -0.62160
 Alpha  occ. eigenvalues --   -0.60831  -0.60480  -0.60148  -0.59817  -0.58344
 Alpha  occ. eigenvalues --   -0.57326  -0.56972  -0.56395  -0.55901  -0.55837
 Alpha  occ. eigenvalues --   -0.55301  -0.55007  -0.54794  -0.53380  -0.53152
 Alpha  occ. eigenvalues --   -0.52885  -0.52250  -0.51996  -0.51723  -0.51087
 Alpha  occ. eigenvalues --   -0.51007  -0.50250  -0.49687  -0.49473  -0.49214
 Alpha  occ. eigenvalues --   -0.48528  -0.47243  -0.46994  -0.46931  -0.46753
 Alpha  occ. eigenvalues --   -0.46485  -0.46141  -0.46023  -0.45706  -0.45199
 Alpha  occ. eigenvalues --   -0.44753  -0.43439  -0.42961  -0.42790  -0.42440
 Alpha  occ. eigenvalues --   -0.42193  -0.42061  -0.40651  -0.40447  -0.39393
 Alpha  occ. eigenvalues --   -0.37674  -0.33933  -0.30705
 Alpha virt. eigenvalues --   -0.19831  -0.14560  -0.12461  -0.10910  -0.06713
 Alpha virt. eigenvalues --   -0.03754  -0.03608  -0.02964  -0.02312  -0.02083
 Alpha virt. eigenvalues --   -0.01165  -0.00205   0.00054   0.00276   0.00329

 Mulliken charges:
               1
     1  N   -0.668302
     2  H    0.320338
     3  H    0.308327
     4  C   -0.253053
     5  H    0.179485
     6  H    0.200222
     7  C    0.581998
     8  O   -0.564600
     9  N   -0.589900
    10  H    0.355775
    11  C   -0.080015
    12  H    0.211406
    13  C    0.655679
    14  C   -0.294117
    15  H    0.151387
    16  H    0.158764
    17  O   -0.538498
    18  C   -0.078313
    19  H    0.161220
    20  C   -0.468123
    21  H    0.148731
    22  H    0.160198
    23  H    0.132445
    24  C   -0.449642
    25  H    0.148757
    26  H    0.153056
    27  H    0.158782
    28  N   -0.621146
    29  H    0.382390
    30  C   -0.041291
    31  H    0.210363
    32  C    0.690951
    33  C   -0.116828
    34  H    0.164958
    35  O   -0.450360
    36  C   -0.469895
    37  H    0.163940
    38  H    0.187983
    39  H    0.158639
    40  C   -0.451985
    41  H    0.163967
    42  H    0.180518
    43  H    0.153274
    44  N   -0.578089
    45  H    0.419060
    46  C   -0.065194
    47  H    0.244903
    48  C    0.637743
    49  C   -0.267793
    50  H    0.173395
    51  H    0.194943
    52  O   -0.359059
    53  C   -0.284236
    54  H    0.140532
    55  H    0.153021
    56  C   -0.271346
    57  H    0.142807
    58  H    0.150130
    59  C   -0.143259
    60  H    0.143038
    61  H    0.141991
    62  N   -0.697179
    63  H    0.302827
    64  H    0.303191
    65  O   -0.842083
    66  H    0.413808
    67  H    0.439365
 Sum of Mulliken charges =   1.00000

 Dipole moment (field-independent basis, Debye):
    X=              1.2720    Y=              5.9863    Z=             -3.3264  Tot=              6.9655
 Quadrupole moment (field-independent basis, Debye-Ang):
   XX=           -146.3765   YY=           -155.9231   ZZ=           -133.4352
   XY=             14.2514   XZ=             -9.0015   YZ=            -20.2880

 Normal termination of Gaussian 16 at Thu Jun  2 03:55:08 2022.
