 Gaussian 16, Revision C.01,
 Gaussian 16:  ES64L-G16RevC.01  3-Jul-2019

 ----------------------------------------------------------------------
 # B3LYP/6-31G* empiricaldispersion=gd3 guess=read geom=check nosymm in
 tegral(ultrafinegrid)
 ----------------------------------------------------------------------

 ------------------------------------------------------
 Candidate Structure: Conf:684 Charge calc in gas phase
 ------------------------------------------------------
 Structure from the checkpoint file:  "conf-684.chk"
 Charge =  1 Multiplicity = 1

                          Input orientation:
 ---------------------------------------------------------------------
 Center     Atomic      Atomic             Coordinates (Angstroms)
 Number     Number       Type             X           Y           Z
 ---------------------------------------------------------------------
      1          7           0       -2.375594    4.749065   -0.306074
      2          1           0       -2.637782    4.873557   -1.291407
      3          1           0       -2.219305    5.671441    0.090521
      4          6           0       -3.421230    4.041834    0.437412
      5          1           0       -4.448010    4.239022    0.095547
      6          1           0       -3.391030    4.331301    1.493854
      7          6           0       -3.237124    2.520125    0.417740
      8          8           0       -4.039855    1.752126    0.933183
      9          7           0       -2.102074    2.119755   -0.229959
     10          1           0       -1.446399    2.878453   -0.415004
     11          6           0       -1.630951    0.756842   -0.188218
     12          1           0       -2.071779    0.264496    0.689420
     13          6           0       -0.111501    0.799380   -0.030890
     14          6           0       -2.012109   -0.048369   -1.463270
     15          1           0       -1.518797    0.427538   -2.320619
     16          1           0       -1.606725   -1.069475   -1.397804
     17          8           0        0.515338    1.869225    0.014636
     18          6           0       -3.523701   -0.155501   -1.736585
     19          1           0       -3.950631    0.852643   -1.669575
     20          6           0       -3.744559   -0.678456   -3.163872
     21          1           0       -3.317245   -1.682288   -3.287860
     22          1           0       -4.813732   -0.746244   -3.390639
     23          1           0       -3.283180   -0.021242   -3.911999
     24          6           0       -4.231036   -1.043102   -0.704208
     25          1           0       -3.803004   -2.055197   -0.699512
     26          1           0       -4.167552   -0.615549    0.299345
     27          1           0       -5.294485   -1.136898   -0.948615
     28          7           0        0.559681   -0.386968   -0.019375
     29          1           0        0.049465   -1.257517   -0.082392
     30          6           0        2.008819   -0.440127    0.183997
     31          1           0        2.263312    0.367707    0.881977
     32          6           0        2.665493   -0.072384   -1.153702
     33          6           0        2.492139   -1.777690    0.781504
     34          1           0        2.340412   -2.564971    0.031293
     35          8           0        3.276885   -1.010080   -1.822698
     36          6           0        3.990654   -1.696361    1.119972
     37          1           0        4.174455   -0.930776    1.883572
     38          1           0        4.331029   -2.653872    1.524395
     39          1           0        4.610205   -1.472134    0.247062
     40          6           0        1.685993   -2.121284    2.045227
     41          1           0        1.771151   -1.323919    2.792896
     42          1           0        2.078155   -3.040429    2.490058
     43          1           0        0.621947   -2.283756    1.848154
     44          7           0        2.530933    1.154191   -1.589502
     45          1           0        1.955469    1.747043   -0.957510
     46          6           0        2.770867    1.673274   -2.958790
     47          1           0        2.472957    0.886178   -3.665725
     48          6           0        4.269933    1.917591   -3.168915
     49          6           0        1.916402    2.926475   -3.179864
     50          1           0        2.069367    3.611684   -2.336239
     51          1           0        2.302908    3.445150   -4.062350
     52          8           0        4.805579    2.960749   -3.403899
     53          6           0        0.427806    2.590119   -3.357078
     54          1           0        0.114316    1.882296   -2.582041
     55          1           0        0.291717    2.077075   -4.319659
     56          6           0       -0.484369    3.819703   -3.278406
     57          1           0       -0.429614    4.256124   -2.273408
     58          1           0       -0.134586    4.588596   -3.982539
     59          6           0       -1.945349    3.470826   -3.583836
     60          1           0       -2.017355    3.071788   -4.610865
     61          1           0       -2.274374    2.675281   -2.904905
     62          7           0       -2.816908    4.630021   -3.342737
     63          1           0       -2.565234    5.395254   -3.967856
     64          1           0       -3.782348    4.390795   -3.563681
     65          8           0        4.935742    0.719756   -3.072154
     66          1           0        5.892954    0.867531   -3.207870
     67          1           0        3.871536   -0.640167   -2.522548
 ---------------------------------------------------------------------

 SCF Done:  E(RB3LYP) =  -1396.70753067     A.U. after    3 cycles

 Alpha  occ. eigenvalues --  -19.38313 -19.36369 -19.30055 -19.26820 -19.18487
 Alpha  occ. eigenvalues --  -14.55895 -14.51359 -14.43182 -14.41235 -14.38635
 Alpha  occ. eigenvalues --  -10.49977 -10.47981 -10.43258 -10.40847 -10.39807
 Alpha  occ. eigenvalues --  -10.35588 -10.34160 -10.33308 -10.32507 -10.30393
 Alpha  occ. eigenvalues --  -10.30207 -10.29640 -10.29472 -10.29105 -10.28792
 Alpha  occ. eigenvalues --  -10.28237 -10.27042 -10.25167 -10.23876  -1.28733
 Alpha  occ. eigenvalues --   -1.26181  -1.18810  -1.17968  -1.13244  -1.10491
 Alpha  occ. eigenvalues --   -1.07669  -1.00898  -0.97704  -0.96656  -0.95100
 Alpha  occ. eigenvalues --   -0.94122  -0.89748  -0.89457  -0.86735  -0.84442
 Alpha  occ. eigenvalues --   -0.82683  -0.80640  -0.80245  -0.77816  -0.76904
 Alpha  occ. eigenvalues --   -0.75498  -0.75345  -0.74786  -0.73924  -0.72716
 Alpha  occ. eigenvalues --   -0.70263  -0.69415  -0.68405  -0.66940  -0.66145
 Alpha  occ. eigenvalues --   -0.65421  -0.64460  -0.64253  -0.63264  -0.61145
 Alpha  occ. eigenvalues --   -0.60038  -0.59423  -0.58945  -0.58863  -0.57981
 Alpha  occ. eigenvalues --   -0.57522  -0.57153  -0.56723  -0.56169  -0.55398
 Alpha  occ. eigenvalues --   -0.55137  -0.54557  -0.54082  -0.53721  -0.53165
 Alpha  occ. eigenvalues --   -0.52603  -0.52417  -0.51554  -0.51059  -0.50557
 Alpha  occ. eigenvalues --   -0.50178  -0.49871  -0.49122  -0.48613  -0.48149
 Alpha  occ. eigenvalues --   -0.47898  -0.47545  -0.47477  -0.47005  -0.46387
 Alpha  occ. eigenvalues --   -0.46266  -0.46111  -0.45795  -0.45321  -0.44588
 Alpha  occ. eigenvalues --   -0.44109  -0.43544  -0.42777  -0.42414  -0.42161
 Alpha  occ. eigenvalues --   -0.40980  -0.40407  -0.40264  -0.39497  -0.34006
 Alpha  occ. eigenvalues --   -0.33793  -0.33014  -0.30620
 Alpha virt. eigenvalues --   -0.19573  -0.15239  -0.12432  -0.08389  -0.05809
 Alpha virt. eigenvalues --   -0.04929  -0.04480  -0.02994  -0.02417  -0.01818
 Alpha virt. eigenvalues --   -0.00993  -0.00711   0.00186   0.00541   0.01243

 Mulliken charges:
               1
     1  N   -0.797964
     2  H    0.374167
     3  H    0.313565
     4  C   -0.237907
     5  H    0.171583
     6  H    0.185098
     7  C    0.583535
     8  O   -0.512445
     9  N   -0.612622
    10  H    0.387286
    11  C   -0.055896
    12  H    0.203970
    13  C    0.639105
    14  C   -0.271350
    15  H    0.139260
    16  H    0.115518
    17  O   -0.555877
    18  C   -0.070515
    19  H    0.154552
    20  C   -0.449492
    21  H    0.140678
    22  H    0.164221
    23  H    0.132940
    24  C   -0.464025
    25  H    0.123312
    26  H    0.189214
    27  H    0.160938
    28  N   -0.616052
    29  H    0.364001
    30  C   -0.040632
    31  H    0.217177
    32  C    0.632791
    33  C   -0.121708
    34  H    0.164109
    35  O   -0.551085
    36  C   -0.465855
    37  H    0.165798
    38  H    0.187539
    39  H    0.151868
    40  C   -0.456293
    41  H    0.168924
    42  H    0.185730
    43  H    0.152913
    44  N   -0.571563
    45  H    0.438566
    46  C   -0.101240
    47  H    0.210279
    48  C    0.637910
    49  C   -0.304919
    50  H    0.185602
    51  H    0.200209
    52  O   -0.381825
    53  C   -0.287890
    54  H    0.137955
    55  H    0.149976
    56  C   -0.276054
    57  H    0.175627
    58  H    0.145163
    59  C   -0.150786
    60  H    0.132121
    61  H    0.163325
    62  N   -0.738692
    63  H    0.314411
    64  H    0.320638
    65  O   -0.622883
    66  H    0.455004
    67  H    0.478993
 Sum of Mulliken charges =   1.00000

 Dipole moment (field-independent basis, Debye):
    X=             10.0562    Y=              2.8835    Z=             -9.9870  Tot=             14.4631
 Quadrupole moment (field-independent basis, Debye-Ang):
   XX=           -124.8790   YY=           -142.8380   ZZ=           -135.5204
   XY=            -16.6900   XZ=             -5.9390   YZ=            -21.8894

 Normal termination of Gaussian 16 at Thu Jun  2 03:47:19 2022.
