 Gaussian 16, Revision C.01,
 Gaussian 16:  ES64L-G16RevC.01  3-Jul-2019

 ----------------------------------------------------------------------
 # B3LYP/6-31G* empiricaldispersion=gd3 guess=read geom=check nosymm in
 tegral(ultrafinegrid)
 ----------------------------------------------------------------------

 ------------------------------------------------------
 Candidate Structure: Conf:472 Charge calc in gas phase
 ------------------------------------------------------
 Structure from the checkpoint file:  "conf-472.chk"
 Charge =  1 Multiplicity = 1

                          Input orientation:
 ---------------------------------------------------------------------
 Center     Atomic      Atomic             Coordinates (Angstroms)
 Number     Number       Type             X           Y           Z
 ---------------------------------------------------------------------
      1          7           0       -2.858133   -0.332136    3.842552
      2          1           0       -3.634549   -0.801554    4.298001
      3          1           0       -2.380995    0.217082    4.552001
      4          6           0       -1.949960   -1.286681    3.205098
      5          1           0       -2.452221   -2.247368    3.042834
      6          1           0       -1.043452   -1.511436    3.781556
      7          6           0       -1.497439   -0.814589    1.824830
      8          8           0       -0.603192   -1.428477    1.203296
      9          7           0       -2.106922    0.285147    1.362026
     10          1           0       -2.806462    0.671533    1.997809
     11          6           0       -2.001125    0.767933   -0.015639
     12          1           0       -1.924398   -0.120972   -0.653915
     13          6           0       -0.691819    1.519670   -0.307614
     14          6           0       -3.267779    1.552705   -0.394449
     15          1           0       -4.115382    0.964199   -0.016640
     16          1           0       -3.275326    2.507871    0.145887
     17          8           0       -0.616528    2.403631   -1.166178
     18          6           0       -3.499021    1.812354   -1.899812
     19          1           0       -2.744485    2.528315   -2.237575
     20          6           0       -3.366066    0.535900   -2.744434
     21          1           0       -4.041466   -0.251334   -2.383623
     22          1           0       -3.629513    0.739888   -3.787991
     23          1           0       -2.345291    0.133080   -2.736006
     24          6           0       -4.885167    2.446407   -2.087864
     25          1           0       -5.681055    1.752287   -1.788508
     26          1           0       -4.993020    3.359326   -1.490694
     27          1           0       -5.052815    2.711883   -3.137160
     28          7           0        0.416535    1.072383    0.356424
     29          1           0        0.347797    0.167780    0.823114
     30          6           0        1.749929    1.523311   -0.033080
     31          1           0        1.678790    2.592021   -0.257847
     32          6           0        2.020973    0.831964   -1.354188
     33          6           0        2.806534    1.309064    1.071080
     34          1           0        2.460167    1.953883    1.889162
     35          8           0        2.727995   -0.274342   -1.452081
     36          6           0        2.899923   -0.129798    1.607950
     37          1           0        3.300401   -0.818265    0.859584
     38          1           0        3.574938   -0.144753    2.469273
     39          1           0        1.935863   -0.524076    1.947853
     40          6           0        4.174467    1.824373    0.596436
     41          1           0        4.577945    1.201676   -0.210689
     42          1           0        4.893395    1.793420    1.420148
     43          1           0        4.119199    2.860391    0.241932
     44          7           0        1.461923    1.198274   -2.476436
     45          1           0        0.725544    1.913746   -2.451660
     46          6           0        1.667944    0.204637   -3.532100
     47          1           0        0.700728   -0.237899   -3.788113
     48          6           0        2.492422   -0.832522   -2.784407
     49          6           0        2.399350    0.742078   -4.775887
     50          1           0        2.496805   -0.101488   -5.469367
     51          1           0        1.744144    1.477092   -5.258595
     52          8           0        2.970244   -1.860996   -3.106779
     53          6           0        3.773739    1.353082   -4.481172
     54          1           0        4.419260    0.591871   -4.020176
     55          1           0        3.669940    2.168190   -3.750590
     56          6           0        4.457102    1.892264   -5.743104
     57          1           0        4.557251    1.080667   -6.478185
     58          1           0        3.815856    2.656734   -6.204675
     59          6           0        5.847867    2.500661   -5.466142
     60          1           0        6.223958    2.947502   -6.393683
     61          1           0        5.744113    3.326271   -4.748849
     62          7           0        6.878143    1.597576   -4.960317
     63          1           0        6.620328    1.196765   -4.061580
     64          1           0        7.029211    0.822262   -5.603013
     65          8           0       -0.006336   -1.364285   -1.584193
     66          1           0       -0.227754   -2.218756   -1.984946
     67          1           0       -0.174456   -1.497614   -0.624931
 ---------------------------------------------------------------------

 SCF Done:  E(RB3LYP) =  -1396.70171682     A.U. after    2 cycles

 Alpha  occ. eigenvalues --  -19.37758 -19.31157 -19.26188 -19.25704 -19.24573
 Alpha  occ. eigenvalues --  -14.55162 -14.49364 -14.48040 -14.43945 -14.38768
 Alpha  occ. eigenvalues --  -10.48531 -10.48178 -10.42314 -10.40939 -10.39895
 Alpha  occ. eigenvalues --  -10.38717 -10.35250 -10.33529 -10.32489 -10.32268
 Alpha  occ. eigenvalues --  -10.29880 -10.29001 -10.28863 -10.28589 -10.28342
 Alpha  occ. eigenvalues --  -10.27657 -10.27396 -10.26200 -10.25183  -1.29963
 Alpha  occ. eigenvalues --   -1.21683  -1.17602  -1.15786  -1.12195  -1.11671
 Alpha  occ. eigenvalues --   -1.06610  -1.04917  -1.00005  -0.96149  -0.95512
 Alpha  occ. eigenvalues --   -0.92970  -0.90878  -0.88633  -0.86330  -0.84392
 Alpha  occ. eigenvalues --   -0.81211  -0.80730  -0.79869  -0.79554  -0.77540
 Alpha  occ. eigenvalues --   -0.77023  -0.75392  -0.73368  -0.71587  -0.71042
 Alpha  occ. eigenvalues --   -0.70332  -0.68209  -0.67656  -0.66075  -0.65574
 Alpha  occ. eigenvalues --   -0.64777  -0.64460  -0.63141  -0.61981  -0.61448
 Alpha  occ. eigenvalues --   -0.60915  -0.59951  -0.59782  -0.59027  -0.58137
 Alpha  occ. eigenvalues --   -0.57443  -0.56879  -0.56591  -0.56461  -0.55344
 Alpha  occ. eigenvalues --   -0.54907  -0.54403  -0.54333  -0.53673  -0.53077
 Alpha  occ. eigenvalues --   -0.52941  -0.51975  -0.51555  -0.51468  -0.50944
 Alpha  occ. eigenvalues --   -0.50503  -0.49969  -0.49334  -0.49056  -0.48973
 Alpha  occ. eigenvalues --   -0.47995  -0.47327  -0.46570  -0.46483  -0.46194
 Alpha  occ. eigenvalues --   -0.45985  -0.45581  -0.45474  -0.45150  -0.44772
 Alpha  occ. eigenvalues --   -0.43762  -0.42995  -0.42360  -0.42059  -0.42042
 Alpha  occ. eigenvalues --   -0.41811  -0.41532  -0.40213  -0.39729  -0.39149
 Alpha  occ. eigenvalues --   -0.36931  -0.35883  -0.30658
 Alpha virt. eigenvalues --   -0.19505  -0.14201  -0.11851  -0.10047  -0.06257
 Alpha virt. eigenvalues --   -0.03465  -0.03168  -0.02332  -0.01661  -0.01434
 Alpha virt. eigenvalues --   -0.00201   0.00404   0.00771   0.01144   0.01680

 Mulliken charges:
               1
     1  N   -0.749585
     2  H    0.339803
     3  H    0.332690
     4  C   -0.239227
     5  H    0.203922
     6  H    0.189118
     7  C    0.601102
     8  O   -0.581709
     9  N   -0.585904
    10  H    0.381412
    11  C   -0.078597
    12  H    0.209356
    13  C    0.650258
    14  C   -0.290625
    15  H    0.152314
    16  H    0.159241
    17  O   -0.541205
    18  C   -0.078036
    19  H    0.160375
    20  C   -0.466307
    21  H    0.147837
    22  H    0.159239
    23  H    0.130528
    24  C   -0.449135
    25  H    0.147371
    26  H    0.152329
    27  H    0.157405
    28  N   -0.631969
    29  H    0.402196
    30  C   -0.059666
    31  H    0.211866
    32  C    0.691159
    33  C   -0.102774
    34  H    0.170189
    35  O   -0.453251
    36  C   -0.487262
    37  H    0.181302
    38  H    0.178152
    39  H    0.161998
    40  C   -0.471963
    41  H    0.158831
    42  H    0.186335
    43  H    0.160492
    44  N   -0.569287
    45  H    0.419450
    46  C   -0.064286
    47  H    0.247323
    48  C    0.640428
    49  C   -0.270907
    50  H    0.194493
    51  H    0.179376
    52  O   -0.366011
    53  C   -0.289986
    54  H    0.142374
    55  H    0.139784
    56  C   -0.266614
    57  H    0.143712
    58  H    0.143100
    59  C   -0.147899
    60  H    0.165350
    61  H    0.144080
    62  N   -0.698337
    63  H    0.293551
    64  H    0.303628
    65  O   -0.845008
    66  H    0.412393
    67  H    0.439690
 Sum of Mulliken charges =   1.00000

 Dipole moment (field-independent basis, Debye):
    X=              0.2446    Y=              2.1858    Z=             -2.2757  Tot=              3.1649
 Quadrupole moment (field-independent basis, Debye-Ang):
   XX=           -147.8480   YY=           -169.0374   ZZ=           -107.7797
   XY=              9.2774   XZ=            -23.2108   YZ=             -6.7375

 Normal termination of Gaussian 16 at Thu Jun  2 03:47:05 2022.
