 Gaussian 16, Revision C.01,
 Gaussian 16:  ES64L-G16RevC.01  3-Jul-2019

 ----------------------------------------------------------------------
 # B3LYP/6-31G* empiricaldispersion=gd3 guess=read geom=check nosymm in
 tegral(ultrafinegrid)
 ----------------------------------------------------------------------

 ------------------------------------------------------
 Candidate Structure: Conf:981 Charge calc in gas phase
 ------------------------------------------------------
 Structure from the checkpoint file:  "conf-981.chk"
 Charge =  1 Multiplicity = 1

                          Input orientation:
 ---------------------------------------------------------------------
 Center     Atomic      Atomic             Coordinates (Angstroms)
 Number     Number       Type             X           Y           Z
 ---------------------------------------------------------------------
      1          7           0       -1.904943    3.033730    3.446263
      2          1           0       -2.302784    3.827038    3.943729
      3          1           0       -1.553019    2.383276    4.146042
      4          6           0       -2.938146    2.373796    2.657726
      5          1           0       -3.342688    3.082787    1.925943
      6          1           0       -3.800022    1.975347    3.226932
      7          6           0       -2.310236    1.182566    1.956637
      8          8           0       -1.544223    0.416819    2.558337
      9          7           0       -2.624049    0.976927    0.648336
     10          1           0       -3.214912    1.638316    0.161567
     11          6           0       -2.251657   -0.252810   -0.050606
     12          1           0       -2.304922   -1.061929    0.687671
     13          6           0       -0.776832   -0.191378   -0.471560
     14          6           0       -3.194748   -0.562071   -1.217261
     15          1           0       -3.110717    0.228864   -1.972891
     16          1           0       -2.836143   -1.480507   -1.696826
     17          8           0       -0.544983   -0.213347   -1.747964
     18          6           0       -4.670868   -0.751922   -0.810239
     19          1           0       -5.053622    0.203862   -0.423048
     20          6           0       -5.488135   -1.113799   -2.059316
     21          1           0       -5.162517   -2.078404   -2.469054
     22          1           0       -6.552538   -1.195333   -1.817394
     23          1           0       -5.378513   -0.359785   -2.847103
     24          6           0       -4.846942   -1.812032    0.286545
     25          1           0       -4.409656   -2.770567   -0.021909
     26          1           0       -4.385660   -1.515971    1.236248
     27          1           0       -5.909536   -1.983041    0.485875
     28          7           0        0.120947   -0.137633    0.479113
     29          1           0       -0.306362   -0.080077    1.425907
     30          6           0        1.581480    0.102674    0.382814
     31          1           0        1.728044    1.079561   -0.090829
     32          6           0        2.294136   -0.898565   -0.539817
     33          6           0        2.169945    0.141486    1.818852
     34          1           0        1.548707    0.859641    2.373449
     35          8           0        3.325963   -0.585265   -1.108949
     36          6           0        2.077526   -1.225655    2.513294
     37          1           0        2.702981   -1.969604    2.006277
     38          1           0        2.433401   -1.143415    3.544185
     39          1           0        1.050496   -1.609890    2.558800
     40          6           0        3.610337    0.669770    1.797802
     41          1           0        4.273698    0.000641    1.242553
     42          1           0        3.983966    0.753645    2.822746
     43          1           0        3.668353    1.659616    1.333161
     44          7           0        1.651840   -2.083409   -0.758663
     45          1           0        0.926786   -2.388334   -0.125121
     46          6           0        2.090887   -3.000932   -1.799902
     47          1           0        3.089833   -3.390541   -1.579353
     48          6           0        2.236103   -2.291102   -3.145950
     49          6           0        1.093672   -4.173821   -1.934136
     50          1           0        1.445826   -4.806492   -2.755752
     51          1           0        1.159700   -4.781954   -1.022535
     52          8           0        2.919246   -2.685456   -4.047881
     53          6           0       -0.364185   -3.753174   -2.180925
     54          1           0       -0.416339   -3.070087   -3.038750
     55          1           0       -0.743375   -3.181444   -1.318889
     56          6           0       -1.292967   -4.946422   -2.424078
     57          1           0       -0.991295   -5.481599   -3.331850
     58          1           0       -1.201173   -5.661828   -1.593593
     59          6           0       -2.759461   -4.527343   -2.570735
     60          1           0       -3.067715   -3.988500   -1.649294
     61          1           0       -2.844488   -3.803939   -3.393337
     62          7           0       -3.589659   -5.680081   -2.903499
     63          1           0       -3.636387   -6.324715   -2.116253
     64          1           0       -4.545406   -5.393402   -3.102911
     65          8           0        1.426154   -1.178931   -3.276353
     66          1           0        0.366879   -0.447352   -2.077871
     67          1           0        1.599897   -0.803855   -4.161704
 ---------------------------------------------------------------------

 SCF Done:  E(RB3LYP) =  -1396.69594455     A.U. after    3 cycles

 Alpha  occ. eigenvalues --  -19.36875 -19.33173 -19.26500 -19.26080 -19.24755
 Alpha  occ. eigenvalues --  -14.54591 -14.51362 -14.49668 -14.42138 -14.39518
 Alpha  occ. eigenvalues --  -10.49013 -10.44299 -10.43163 -10.42157 -10.39438
 Alpha  occ. eigenvalues --  -10.37981 -10.36383 -10.34007 -10.32286 -10.31988
 Alpha  occ. eigenvalues --  -10.31078 -10.30897 -10.30170 -10.30024 -10.29097
 Alpha  occ. eigenvalues --  -10.28295 -10.27772 -10.27645 -10.27545  -1.27036
 Alpha  occ. eigenvalues --   -1.22893  -1.18389  -1.17099  -1.14202  -1.12056
 Alpha  occ. eigenvalues --   -1.07475  -1.06112  -0.99313  -0.96628  -0.95515
 Alpha  occ. eigenvalues --   -0.93647  -0.91836  -0.89531  -0.87052  -0.84809
 Alpha  occ. eigenvalues --   -0.82596  -0.80924  -0.80093  -0.79411  -0.79161
 Alpha  occ. eigenvalues --   -0.77106  -0.76129  -0.74679  -0.73195  -0.72189
 Alpha  occ. eigenvalues --   -0.70953  -0.69448  -0.68716  -0.68137  -0.67559
 Alpha  occ. eigenvalues --   -0.65729  -0.64455  -0.63970  -0.62528  -0.61137
 Alpha  occ. eigenvalues --   -0.60640  -0.59326  -0.59037  -0.58854  -0.58305
 Alpha  occ. eigenvalues --   -0.58035  -0.57656  -0.57204  -0.56893  -0.55726
 Alpha  occ. eigenvalues --   -0.55537  -0.54788  -0.54443  -0.54324  -0.53919
 Alpha  occ. eigenvalues --   -0.53218  -0.52871  -0.52714  -0.52215  -0.51295
 Alpha  occ. eigenvalues --   -0.50761  -0.50398  -0.50228  -0.49960  -0.49599
 Alpha  occ. eigenvalues --   -0.48962  -0.48898  -0.48074  -0.47971  -0.46749
 Alpha  occ. eigenvalues --   -0.46331  -0.45782  -0.45163  -0.44975  -0.44758
 Alpha  occ. eigenvalues --   -0.44577  -0.44360  -0.44123  -0.43747  -0.43277
 Alpha  occ. eigenvalues --   -0.42866  -0.40942  -0.40638  -0.40437  -0.38520
 Alpha  occ. eigenvalues --   -0.37879  -0.34483  -0.31665
 Alpha virt. eigenvalues --   -0.18463  -0.12185  -0.12097  -0.10799  -0.07641
 Alpha virt. eigenvalues --   -0.05618  -0.05245  -0.04061  -0.02609  -0.01399
 Alpha virt. eigenvalues --   -0.01284  -0.00987  -0.00309   0.00386   0.00834

 Mulliken charges:
               1
     1  N   -0.714000
     2  H    0.326034
     3  H    0.326055
     4  C   -0.225899
     5  H    0.165304
     6  H    0.178818
     7  C    0.646413
     8  O   -0.546696
     9  N   -0.598024
    10  H    0.359501
    11  C   -0.080282
    12  H    0.213624
    13  C    0.631803
    14  C   -0.301831
    15  H    0.166513
    16  H    0.175097
    17  O   -0.571858
    18  C   -0.078787
    19  H    0.128909
    20  C   -0.451339
    21  H    0.152426
    22  H    0.169822
    23  H    0.155927
    24  C   -0.472951
    25  H    0.158338
    26  H    0.147683
    27  H    0.176029
    28  N   -0.625379
    29  H    0.443805
    30  C   -0.036735
    31  H    0.213361
    32  C    0.591990
    33  C   -0.135173
    34  H    0.171684
    35  O   -0.483797
    36  C   -0.475585
    37  H    0.165804
    38  H    0.190068
    39  H    0.143723
    40  C   -0.454695
    41  H    0.185628
    42  H    0.172715
    43  H    0.164525
    44  N   -0.645108
    45  H    0.346980
    46  C   -0.003540
    47  H    0.218236
    48  C    0.634005
    49  C   -0.324454
    50  H    0.199812
    51  H    0.168634
    52  O   -0.417738
    53  C   -0.280822
    54  H    0.154048
    55  H    0.096986
    56  C   -0.251970
    57  H    0.175720
    58  H    0.138843
    59  C   -0.145561
    60  H    0.103477
    61  H    0.144162
    62  N   -0.708641
    63  H    0.303176
    64  H    0.308021
    65  O   -0.628614
    66  H    0.502659
    67  H    0.443121
 Sum of Mulliken charges =   1.00000

 Dipole moment (field-independent basis, Debye):
    X=             -8.1599    Y=             -1.8180    Z=              1.3656  Tot=              8.4707
 Quadrupole moment (field-independent basis, Debye-Ang):
   XX=           -138.3350   YY=           -148.2342   ZZ=           -157.3930
   XY=             -3.6996   XZ=              4.4170   YZ=              4.2597

 Normal termination of Gaussian 16 at Thu Jun  2 03:55:22 2022.
