 Gaussian 16, Revision C.01,
 Gaussian 16:  ES64L-G16RevC.01  3-Jul-2019

 ----------------------------------------------------------------------
 # B3LYP/6-31G* empiricaldispersion=gd3 guess=read geom=check nosymm in
 tegral(ultrafinegrid)
 ----------------------------------------------------------------------

 ------------------------------------------------------
 Candidate Structure: Conf:796 Charge calc in gas phase
 ------------------------------------------------------
 Structure from the checkpoint file:  "conf-796.chk"
 Charge =  1 Multiplicity = 1

                          Input orientation:
 ---------------------------------------------------------------------
 Center     Atomic      Atomic             Coordinates (Angstroms)
 Number     Number       Type             X           Y           Z
 ---------------------------------------------------------------------
      1          7           0       -3.963138    2.254979    2.043469
      2          1           0       -4.949395    2.333852    2.272158
      3          1           0       -3.479079    2.987845    2.555495
      4          6           0       -3.438993    0.932160    2.391833
      5          1           0       -4.249387    0.194375    2.381447
      6          1           0       -2.975437    0.864634    3.384941
      7          6           0       -2.408616    0.434073    1.378407
      8          8           0       -1.732284   -0.583711    1.596667
      9          7           0       -2.314055    1.168378    0.251270
     10          1           0       -2.940474    1.971090    0.204024
     11          6           0       -1.551809    0.734000   -0.917782
     12          1           0       -1.675561   -0.353334   -0.989806
     13          6           0       -0.051368    0.994144   -0.687358
     14          6           0       -2.081579    1.407051   -2.188201
     15          1           0       -3.156360    1.186491   -2.237890
     16          1           0       -1.975446    2.493648   -2.082395
     17          8           0        0.585066    1.869335   -1.297382
     18          6           0       -1.418755    0.965829   -3.511147
     19          1           0       -0.389840    1.344991   -3.505749
     20          6           0       -1.372028   -0.560959   -3.674463
     21          1           0       -2.372151   -1.001293   -3.573323
     22          1           0       -0.996531   -0.825210   -4.668706
     23          1           0       -0.720184   -1.044862   -2.934559
     24          6           0       -2.148519    1.610591   -4.698527
     25          1           0       -3.186113    1.257432   -4.756879
     26          1           0       -2.172662    2.702887   -4.603592
     27          1           0       -1.652289    1.354863   -5.641735
     28          7           0        0.535307    0.157451    0.203321
     29          1           0       -0.113322   -0.424675    0.750693
     30          6           0        1.880949    0.383980    0.732863
     31          1           0        2.033299    1.471389    0.820004
     32          6           0        2.919860   -0.059355   -0.301990
     33          6           0        2.067004   -0.255642    2.128613
     34          1           0        3.128965   -0.131659    2.372852
     35          8           0        3.863216   -0.880964    0.068410
     36          6           0        1.238164    0.514044    3.170022
     37          1           0        0.165770    0.384139    2.992769
     38          1           0        1.456405    0.129136    4.170803
     39          1           0        1.470262    1.585459    3.163950
     40          6           0        1.730892   -1.756991    2.163227
     41          1           0        0.656597   -1.933176    2.040482
     42          1           0        2.010672   -2.166821    3.138459
     43          1           0        2.269945   -2.323884    1.398574
     44          7           0        2.819220    0.415260   -1.515855
     45          1           0        2.059110    1.127460   -1.624343
     46          6           0        3.456991   -0.088933   -2.753431
     47          1           0        3.512540   -1.182772   -2.676230
     48          6           0        4.892308    0.438019   -2.849075
     49          6           0        2.575332    0.317847   -3.934036
     50          1           0        1.555730   -0.010000   -3.697975
     51          1           0        2.558898    1.411575   -3.991128
     52          8           0        5.327133    1.217727   -3.646572
     53          6           0        3.002169   -0.286457   -5.280700
     54          1           0        3.293134   -1.336486   -5.137345
     55          1           0        3.887995    0.239738   -5.652639
     56          6           0        1.862731   -0.232357   -6.310559
     57          1           0        2.203818   -0.708733   -7.239334
     58          1           0        1.012909   -0.826720   -5.951313
     59          6           0        1.361348    1.180642   -6.626970
     60          1           0        1.047310    1.682797   -5.703013
     61          1           0        2.196791    1.774684   -7.041353
     62          7           0        0.178983    1.107771   -7.489876
     63          1           0       -0.153458    2.045614   -7.706865
     64          1           0        0.423314    0.680757   -8.383046
     65          8           0        5.644406   -0.127489   -1.847930
     66          1           0        4.618880   -0.892157   -0.571971
     67          1           0        6.556340    0.223076   -1.889626
 ---------------------------------------------------------------------

 SCF Done:  E(RB3LYP) =  -1396.71593597     A.U. after    2 cycles

 Alpha  occ. eigenvalues --  -19.37050 -19.35492 -19.29201 -19.25376 -19.22295
 Alpha  occ. eigenvalues --  -14.54216 -14.48249 -14.46323 -14.42639 -14.39067
 Alpha  occ. eigenvalues --  -10.48553 -10.47058 -10.41476 -10.39622 -10.38924
 Alpha  occ. eigenvalues --  -10.38109 -10.34228 -10.31955 -10.31543 -10.31298
 Alpha  occ. eigenvalues --  -10.28879 -10.28837 -10.28067 -10.27675 -10.27618
 Alpha  occ. eigenvalues --  -10.27474 -10.26966 -10.25991 -10.24291  -1.27427
 Alpha  occ. eigenvalues --   -1.25277  -1.17106  -1.17025  -1.13783  -1.11753
 Alpha  occ. eigenvalues --   -1.05470  -1.03207  -0.98645  -0.95958  -0.95169
 Alpha  occ. eigenvalues --   -0.92446  -0.90137  -0.88093  -0.85545  -0.84288
 Alpha  occ. eigenvalues --   -0.81348  -0.79797  -0.79258  -0.78607  -0.76696
 Alpha  occ. eigenvalues --   -0.76498  -0.74646  -0.73501  -0.72298  -0.70669
 Alpha  occ. eigenvalues --   -0.69632  -0.68116  -0.67269  -0.66273  -0.65977
 Alpha  occ. eigenvalues --   -0.64747  -0.63639  -0.63545  -0.62616  -0.60900
 Alpha  occ. eigenvalues --   -0.60325  -0.60109  -0.58549  -0.57774  -0.57557
 Alpha  occ. eigenvalues --   -0.57168  -0.56948  -0.56061  -0.55534  -0.54794
 Alpha  occ. eigenvalues --   -0.54511  -0.54319  -0.54001  -0.53696  -0.53079
 Alpha  occ. eigenvalues --   -0.52425  -0.51937  -0.51162  -0.51024  -0.50060
 Alpha  occ. eigenvalues --   -0.49830  -0.49351  -0.48533  -0.48279  -0.47841
 Alpha  occ. eigenvalues --   -0.47583  -0.47263  -0.47131  -0.46578  -0.46017
 Alpha  occ. eigenvalues --   -0.45746  -0.45191  -0.44835  -0.44450  -0.44195
 Alpha  occ. eigenvalues --   -0.43821  -0.42301  -0.41805  -0.41624  -0.41470
 Alpha  occ. eigenvalues --   -0.41346  -0.41044  -0.39436  -0.38857  -0.37435
 Alpha  occ. eigenvalues --   -0.35736  -0.34311  -0.31292
 Alpha virt. eigenvalues --   -0.18085  -0.14443  -0.11507  -0.08092  -0.07293
 Alpha virt. eigenvalues --   -0.04117  -0.02307  -0.01938  -0.01832  -0.00262
 Alpha virt. eigenvalues --   -0.00197   0.00219   0.01456   0.02144   0.02433

 Mulliken charges:
               1
     1  N   -0.748057
     2  H    0.335771
     3  H    0.326980
     4  C   -0.237809
     5  H    0.201795
     6  H    0.182389
     7  C    0.610330
     8  O   -0.560597
     9  N   -0.597411
    10  H    0.375726
    11  C   -0.055580
    12  H    0.191208
    13  C    0.640721
    14  C   -0.282947
    15  H    0.155285
    16  H    0.160369
    17  O   -0.558994
    18  C   -0.093311
    19  H    0.141247
    20  C   -0.469382
    21  H    0.156899
    22  H    0.177464
    23  H    0.118534
    24  C   -0.475597
    25  H    0.146788
    26  H    0.142971
    27  H    0.190521
    28  N   -0.635798
    29  H    0.417477
    30  C   -0.058923
    31  H    0.213679
    32  C    0.630626
    33  C   -0.114652
    34  H    0.162323
    35  O   -0.552211
    36  C   -0.471458
    37  H    0.175186
    38  H    0.175637
    39  H    0.150793
    40  C   -0.479817
    41  H    0.185743
    42  H    0.178655
    43  H    0.155977
    44  N   -0.591162
    45  H    0.444643
    46  C   -0.089600
    47  H    0.208267
    48  C    0.643848
    49  C   -0.314692
    50  H    0.180702
    51  H    0.188642
    52  O   -0.391038
    53  C   -0.285637
    54  H    0.142261
    55  H    0.178083
    56  C   -0.273099
    57  H    0.150749
    58  H    0.158407
    59  C   -0.140502
    60  H    0.142792
    61  H    0.130706
    62  N   -0.719688
    63  H    0.310698
    64  H    0.307244
    65  O   -0.620203
    66  H    0.477765
    67  H    0.452266
 Sum of Mulliken charges =   1.00000

 Dipole moment (field-independent basis, Debye):
    X=              7.5411    Y=              2.5298    Z=             -3.9294  Tot=              8.8718
 Quadrupole moment (field-independent basis, Debye-Ang):
   XX=            -93.1871   YY=           -168.7573   ZZ=           -118.6866
   XY=            -17.2165   XZ=            -27.4379   YZ=              6.2092

 Normal termination of Gaussian 16 at Thu Jun  2 03:55:12 2022.
