 Gaussian 16, Revision C.01,
 Gaussian 16:  ES64L-G16RevC.01  3-Jul-2019

 ----------------------------------------------------------------------
 # B3LYP/6-31G* empiricaldispersion=gd3 guess=read geom=check nosymm in
 tegral(ultrafinegrid)
 ----------------------------------------------------------------------

 ------------------------------------------------------
 Candidate Structure: Conf:879 Charge calc in gas phase
 ------------------------------------------------------
 Structure from the checkpoint file:  "conf-879.chk"
 Charge =  1 Multiplicity = 1

                          Input orientation:
 ---------------------------------------------------------------------
 Center     Atomic      Atomic             Coordinates (Angstroms)
 Number     Number       Type             X           Y           Z
 ---------------------------------------------------------------------
      1          7           0       -3.725240    0.476072    3.213012
      2          1           0       -4.697742    0.384653    3.490595
      3          1           0       -3.195801    0.694863    4.052814
      4          6           0       -3.232870   -0.751552    2.581476
      5          1           0       -4.070264   -1.319878    2.160957
      6          1           0       -2.705719   -1.437655    3.256909
      7          6           0       -2.297540   -0.463282    1.406707
      8          8           0       -1.670905   -1.373728    0.844408
      9          7           0       -2.232541    0.832552    1.035810
     10          1           0       -2.822962    1.455909    1.585028
     11          6           0       -1.639344    1.284987   -0.220665
     12          1           0       -1.854473    0.516257   -0.975167
     13          6           0       -0.102765    1.352051   -0.114817
     14          6           0       -2.228048    2.630236   -0.653541
     15          1           0       -1.942158    3.391392    0.083580
     16          1           0       -1.736671    2.921141   -1.589989
     17          8           0        0.541729    2.396555   -0.303087
     18          6           0       -3.755824    2.640753   -0.858025
     19          1           0       -4.240661    2.411009    0.102189
     20          6           0       -4.201414    4.048764   -1.278833
     21          1           0       -3.763305    4.322959   -2.246964
     22          1           0       -5.290578    4.100760   -1.379760
     23          1           0       -3.894543    4.803767   -0.545563
     24          6           0       -4.214902    1.591869   -1.880871
     25          1           0       -3.712316    1.740745   -2.845541
     26          1           0       -4.012325    0.567677   -1.546760
     27          1           0       -5.293239    1.669142   -2.055020
     28          7           0        0.499834    0.170847    0.157829
     29          1           0       -0.120605   -0.636030    0.319595
     30          6           0        1.903816    0.092113    0.554376
     31          1           0        2.147867    1.028528    1.076520
     32          6           0        2.774128    0.128818   -0.706247
     33          6           0        2.148312   -1.076442    1.538194
     34          1           0        1.471268   -0.842778    2.371395
     35          8           0        3.523000   -0.899109   -0.996091
     36          6           0        1.754128   -2.461940    0.999559
     37          1           0        2.355285   -2.748395    0.132584
     38          1           0        1.922802   -3.209296    1.781446
     39          1           0        0.694341   -2.518949    0.730994
     40          6           0        3.582753   -1.054418    2.089962
     41          1           0        4.313371   -1.351674    1.332237
     42          1           0        3.666934   -1.759673    2.922096
     43          1           0        3.857721   -0.062307    2.468141
     44          7           0        2.711477    1.202396   -1.451391
     45          1           0        2.066162    1.930161   -1.078257
     46          6           0        3.180853    1.380285   -2.846825
     47          1           0        2.986454    0.436024   -3.375238
     48          6           0        4.696404    1.603430   -2.915877
     49          6           0        2.386908    2.523106   -3.490202
     50          1           0        2.686959    2.580964   -4.540904
     51          1           0        1.333863    2.215288   -3.481191
     52          8           0        5.266461    2.508316   -3.452328
     53          6           0        2.561320    3.883491   -2.780973
     54          1           0        3.357312    4.451035   -3.272313
     55          1           0        2.895099    3.752101   -1.744527
     56          6           0        1.266973    4.705542   -2.727354
     57          1           0        1.003906    5.083570   -3.723381
     58          1           0        0.441456    4.054170   -2.405444
     59          6           0        1.364419    5.875131   -1.739677
     60          1           0        2.178111    6.546513   -2.042749
     61          1           0        0.431458    6.462240   -1.796988
     62          7           0        1.673585    5.371108   -0.394524
     63          1           0        1.767889    6.147474    0.257007
     64          1           0        0.904550    4.791270   -0.061567
     65          8           0        5.345657    0.552385   -2.313959
     66          1           0        4.238229   -0.663721   -1.639784
     67          1           0        6.311643    0.685583   -2.385678
 ---------------------------------------------------------------------

 SCF Done:  E(RB3LYP) =  -1396.71231072     A.U. after    1 cycles

 Alpha  occ. eigenvalues --  -19.36624 -19.35213 -19.28791 -19.25473 -19.22472
 Alpha  occ. eigenvalues --  -14.54189 -14.48178 -14.46455 -14.43006 -14.38372
 Alpha  occ. eigenvalues --  -10.48300 -10.46742 -10.41539 -10.39442 -10.39144
 Alpha  occ. eigenvalues --  -10.37963 -10.34573 -10.32232 -10.31619 -10.30929
 Alpha  occ. eigenvalues --  -10.28451 -10.28144 -10.28127 -10.27980 -10.27442
 Alpha  occ. eigenvalues --  -10.27338 -10.26404 -10.25709 -10.25284  -1.27130
 Alpha  occ. eigenvalues --   -1.24974  -1.17012  -1.16714  -1.14028  -1.11591
 Alpha  occ. eigenvalues --   -1.05441  -1.03457  -0.98950  -0.95365  -0.94782
 Alpha  occ. eigenvalues --   -0.92243  -0.90421  -0.87098  -0.85808  -0.84173
 Alpha  occ. eigenvalues --   -0.80909  -0.79877  -0.79429  -0.79098  -0.76569
 Alpha  occ. eigenvalues --   -0.76191  -0.74634  -0.73858  -0.72295  -0.70268
 Alpha  occ. eigenvalues --   -0.69522  -0.68428  -0.67191  -0.66247  -0.65491
 Alpha  occ. eigenvalues --   -0.64389  -0.64069  -0.63090  -0.61945  -0.61046
 Alpha  occ. eigenvalues --   -0.60482  -0.59756  -0.58251  -0.58067  -0.57588
 Alpha  occ. eigenvalues --   -0.57072  -0.56538  -0.55518  -0.55401  -0.54849
 Alpha  occ. eigenvalues --   -0.54541  -0.54169  -0.53797  -0.53240  -0.52579
 Alpha  occ. eigenvalues --   -0.52309  -0.51967  -0.51682  -0.51209  -0.50205
 Alpha  occ. eigenvalues --   -0.49774  -0.49581  -0.48821  -0.48386  -0.47746
 Alpha  occ. eigenvalues --   -0.47527  -0.47050  -0.46643  -0.46399  -0.46039
 Alpha  occ. eigenvalues --   -0.45502  -0.45274  -0.45073  -0.44585  -0.43964
 Alpha  occ. eigenvalues --   -0.42889  -0.41955  -0.41607  -0.41577  -0.41409
 Alpha  occ. eigenvalues --   -0.41256  -0.40854  -0.39920  -0.38945  -0.37812
 Alpha  occ. eigenvalues --   -0.35961  -0.34574  -0.30721
 Alpha virt. eigenvalues --   -0.17855  -0.14004  -0.11304  -0.08380  -0.07081
 Alpha virt. eigenvalues --   -0.03840  -0.02337  -0.02184  -0.01714   0.00426
 Alpha virt. eigenvalues --    0.00738   0.00984   0.01322   0.01801   0.02181

 Mulliken charges:
               1
     1  N   -0.751460
     2  H    0.336271
     3  H    0.327850
     4  C   -0.237044
     5  H    0.202128
     6  H    0.183497
     7  C    0.602089
     8  O   -0.556395
     9  N   -0.595510
    10  H    0.380357
    11  C   -0.063560
    12  H    0.191845
    13  C    0.633606
    14  C   -0.289283
    15  H    0.153995
    16  H    0.159246
    17  O   -0.552447
    18  C   -0.083879
    19  H    0.131378
    20  C   -0.444948
    21  H    0.147846
    22  H    0.161021
    23  H    0.147939
    24  C   -0.455691
    25  H    0.145467
    26  H    0.146625
    27  H    0.165145
    28  N   -0.641729
    29  H    0.419525
    30  C   -0.068448
    31  H    0.212544
    32  C    0.646023
    33  C   -0.104908
    34  H    0.162740
    35  O   -0.555848
    36  C   -0.488637
    37  H    0.167626
    38  H    0.174607
    39  H    0.186832
    40  C   -0.469275
    41  H    0.162047
    42  H    0.179646
    43  H    0.154458
    44  N   -0.583310
    45  H    0.454029
    46  C   -0.115207
    47  H    0.212040
    48  C    0.647488
    49  C   -0.294215
    50  H    0.191472
    51  H    0.162036
    52  O   -0.385496
    53  C   -0.291669
    54  H    0.177413
    55  H    0.171760
    56  C   -0.281169
    57  H    0.148342
    58  H    0.140594
    59  C   -0.139624
    60  H    0.150369
    61  H    0.128398
    62  N   -0.738955
    63  H    0.306617
    64  H    0.310770
    65  O   -0.624750
    66  H    0.476671
    67  H    0.453107
 Sum of Mulliken charges =   1.00000

 Dipole moment (field-independent basis, Debye):
    X=              4.9026    Y=              3.6852    Z=             -0.7128  Tot=              6.1745
 Quadrupole moment (field-independent basis, Debye-Ang):
   XX=            -99.6383   YY=           -160.0534   ZZ=           -136.5936
   XY=             -9.5965   XZ=            -29.9142   YZ=             -5.7740

 Normal termination of Gaussian 16 at Thu Jun  2 03:55:01 2022.
