 Gaussian 16, Revision C.01,
 Gaussian 16:  ES64L-G16RevC.01  3-Jul-2019

 ----------------------------------------------------------------------
 # B3LYP/6-31G* empiricaldispersion=gd3 guess=read geom=check nosymm in
 tegral(ultrafinegrid)
 ----------------------------------------------------------------------

 ------------------------------------------------------
 Candidate Structure: Conf:669 Charge calc in gas phase
 ------------------------------------------------------
 Structure from the checkpoint file:  "conf-669.chk"
 Charge =  1 Multiplicity = 1

                          Input orientation:
 ---------------------------------------------------------------------
 Center     Atomic      Atomic             Coordinates (Angstroms)
 Number     Number       Type             X           Y           Z
 ---------------------------------------------------------------------
      1          7           0       -2.894500   -0.576092    3.666338
      2          1           0       -3.466425   -0.590291    4.507699
      3          1           0       -2.872371   -1.524416    3.295854
      4          6           0       -3.496008    0.299875    2.667130
      5          1           0       -3.466875    1.335210    3.027813
      6          1           0       -4.550740    0.078574    2.414704
      7          6           0       -2.708285    0.159465    1.372441
      8          8           0       -2.303496   -0.945998    0.991393
      9          7           0       -2.486399    1.288603    0.653984
     10          1           0       -2.760096    2.186395    1.030926
     11          6           0       -1.866396    1.261588   -0.674458
     12          1           0       -2.182165    0.318638   -1.132519
     13          6           0       -0.328350    1.210540   -0.530898
     14          6           0       -2.339899    2.454597   -1.510368
     15          1           0       -3.430266    2.524253   -1.399295
     16          1           0       -1.904350    3.368344   -1.087909
     17          8           0        0.404438    2.137545   -0.910849
     18          6           0       -1.997009    2.378931   -3.011814
     19          1           0       -0.909973    2.261463   -3.097301
     20          6           0       -2.681843    1.194043   -3.708102
     21          1           0       -3.773380    1.300621   -3.667600
     22          1           0       -2.384163    1.127743   -4.759194
     23          1           0       -2.424330    0.231715   -3.251442
     24          6           0       -2.378563    3.699010   -3.696501
     25          1           0       -3.457379    3.883616   -3.617114
     26          1           0       -1.857178    4.550172   -3.243579
     27          1           0       -2.125255    3.674380   -4.762247
     28          7           0        0.154465    0.079591    0.035282
     29          1           0       -0.531270   -0.613800    0.345648
     30          6           0        1.542409   -0.032600    0.500787
     31          1           0        1.860119    0.969453    0.818874
     32          6           0        2.405919   -0.431364   -0.711432
     33          6           0        1.691049   -1.009274    1.681955
     34          1           0        1.427133   -2.011239    1.318843
     35          8           0        2.854602   -1.541654   -0.932399
     36          6           0        3.152016   -1.035595    2.161246
     37          1           0        3.464879   -0.042947    2.510596
     38          1           0        3.253852   -1.726311    3.003839
     39          1           0        3.838521   -1.365774    1.377303
     40          6           0        0.758437   -0.620905    2.840449
     41          1           0        0.947660    0.410706    3.163857
     42          1           0        0.947552   -1.273288    3.698895
     43          1           0       -0.302533   -0.711591    2.599301
     44          7           0        2.602251    0.628769   -1.600939
     45          1           0        1.979140    1.444079   -1.477277
     46          6           0        3.127705    0.329355   -2.896923
     47          1           0        3.320458   -0.748836   -2.958936
     48          6           0        4.461401    0.985379   -2.937294
     49          6           0        2.264036    0.802023   -4.100784
     50          1           0        2.143383    1.890214   -4.049433
     51          1           0        2.800517    0.554909   -5.021978
     52          8           0        5.305929    1.714734   -2.727125
     53          6           0        0.893349    0.111746   -4.060463
     54          1           0        0.304564    0.501164   -4.897100
     55          1           0        0.363746    0.408229   -3.149514
     56          6           0        0.935683   -1.416690   -4.159541
     57          1           0        1.540888   -1.714687   -5.029347
     58          1           0        1.412022   -1.858905   -3.273850
     59          6           0       -0.472300   -2.015680   -4.292711
     60          1           0       -0.395888   -3.115309   -4.264587
     61          1           0       -1.063374   -1.721669   -3.415896
     62          7           0       -1.147352   -1.489893   -5.484458
     63          1           0       -0.764798   -1.927622   -6.321731
     64          1           0       -2.135546   -1.732230   -5.464224
     65          8           0        5.226578   -0.368528   -4.593120
     66          1           0        5.584292   -1.233776   -4.330664
     67          1           0        5.927936    0.048122   -5.122043
 ---------------------------------------------------------------------

 SCF Done:  E(RB3LYP) =  -1396.65239174     A.U. after    3 cycles

 Alpha  occ. eigenvalues --  -19.44280 -19.33356 -19.25454 -19.23464 -19.21717
 Alpha  occ. eigenvalues --  -14.49705 -14.46632 -14.46474 -14.40005 -14.39353
 Alpha  occ. eigenvalues --  -10.54251 -10.42838 -10.41792 -10.39709 -10.38623
 Alpha  occ. eigenvalues --  -10.34093 -10.33762 -10.33371 -10.30642 -10.29904
 Alpha  occ. eigenvalues --  -10.29368 -10.28465 -10.28350 -10.27528 -10.27149
 Alpha  occ. eigenvalues --  -10.25591 -10.25018 -10.24803 -10.24770  -1.34815
 Alpha  occ. eigenvalues --   -1.18579  -1.17490  -1.14852  -1.13418  -1.07925
 Alpha  occ. eigenvalues --   -1.03374  -1.02429  -0.96899  -0.96254  -0.94885
 Alpha  occ. eigenvalues --   -0.90231  -0.89494  -0.88776  -0.84587  -0.82306
 Alpha  occ. eigenvalues --   -0.81117  -0.77793  -0.76475  -0.75957  -0.74606
 Alpha  occ. eigenvalues --   -0.73946  -0.73505  -0.72205  -0.70432  -0.69382
 Alpha  occ. eigenvalues --   -0.68910  -0.68401  -0.67834  -0.66961  -0.66204
 Alpha  occ. eigenvalues --   -0.65510  -0.64127  -0.62759  -0.62339  -0.61130
 Alpha  occ. eigenvalues --   -0.60720  -0.58940  -0.58562  -0.58334  -0.57248
 Alpha  occ. eigenvalues --   -0.56353  -0.55665  -0.55410  -0.54807  -0.54454
 Alpha  occ. eigenvalues --   -0.53542  -0.53143  -0.52907  -0.52560  -0.52303
 Alpha  occ. eigenvalues --   -0.51399  -0.50995  -0.50290  -0.49736  -0.49147
 Alpha  occ. eigenvalues --   -0.48890  -0.48511  -0.48279  -0.47525  -0.47206
 Alpha  occ. eigenvalues --   -0.47015  -0.46526  -0.46189  -0.45860  -0.45681
 Alpha  occ. eigenvalues --   -0.44719  -0.44366  -0.43835  -0.43184  -0.42981
 Alpha  occ. eigenvalues --   -0.42030  -0.41721  -0.41224  -0.40879  -0.40612
 Alpha  occ. eigenvalues --   -0.40310  -0.39556  -0.38243  -0.36125  -0.35570
 Alpha  occ. eigenvalues --   -0.34949  -0.32284  -0.31549
 Alpha virt. eigenvalues --   -0.21813  -0.21016  -0.11148  -0.09598  -0.09547
 Alpha virt. eigenvalues --   -0.07269  -0.05214  -0.02649  -0.01473  -0.00993
 Alpha virt. eigenvalues --   -0.00524   0.00216   0.00370   0.01327   0.01655

 Mulliken charges:
               1
     1  N   -0.713878
     2  H    0.317013
     3  H    0.324594
     4  C   -0.222325
     5  H    0.157483
     6  H    0.167595
     7  C    0.639553
     8  O   -0.549808
     9  N   -0.602805
    10  H    0.345811
    11  C   -0.064037
    12  H    0.189799
    13  C    0.643770
    14  C   -0.278174
    15  H    0.148782
    16  H    0.157839
    17  O   -0.564316
    18  C   -0.090459
    19  H    0.136012
    20  C   -0.461448
    21  H    0.149387
    22  H    0.170487
    23  H    0.136679
    24  C   -0.447853
    25  H    0.150931
    26  H    0.149952
    27  H    0.149784
    28  N   -0.631054
    29  H    0.398390
    30  C   -0.044466
    31  H    0.179918
    32  C    0.628340
    33  C   -0.105788
    34  H    0.159836
    35  O   -0.485940
    36  C   -0.466852
    37  H    0.145591
    38  H    0.169919
    39  H    0.161778
    40  C   -0.471701
    41  H    0.143192
    42  H    0.164699
    43  H    0.182605
    44  N   -0.631988
    45  H    0.406899
    46  C   -0.060358
    47  H    0.260633
    48  C    0.619990
    49  C   -0.300048
    50  H    0.181904
    51  H    0.193050
    52  O   -0.194764
    53  C   -0.273288
    54  H    0.206339
    55  H    0.157521
    56  C   -0.290807
    57  H    0.136554
    58  H    0.155240
    59  C   -0.146241
    60  H    0.141884
    61  H    0.146630
    62  N   -0.720848
    63  H    0.305390
    64  H    0.316512
    65  O   -0.764259
    66  H    0.443046
    67  H    0.442174
 Sum of Mulliken charges =   1.00000

 Dipole moment (field-independent basis, Debye):
    X=              9.2445    Y=              1.7541    Z=            -12.0020  Tot=             15.2508
 Quadrupole moment (field-independent basis, Debye-Ang):
   XX=            -74.6397   YY=           -165.3410   ZZ=            -96.6469
   XY=             -2.8474   XZ=            -64.4623   YZ=              5.4834

 Normal termination of Gaussian 16 at Thu Jun  2 03:47:17 2022.
