 Gaussian 16, Revision C.01,
 Gaussian 16:  ES64L-G16RevC.01  3-Jul-2019

 ----------------------------------------------------------------------
 # B3LYP/6-31G* empiricaldispersion=gd3 guess=read geom=check nosymm in
 tegral(ultrafinegrid)
 ----------------------------------------------------------------------

 ------------------------------------------------------
 Candidate Structure: Conf:962 Charge calc in gas phase
 ------------------------------------------------------
 Structure from the checkpoint file:  "conf-962.chk"
 Charge =  1 Multiplicity = 1

                          Input orientation:
 ---------------------------------------------------------------------
 Center     Atomic      Atomic             Coordinates (Angstroms)
 Number     Number       Type             X           Y           Z
 ---------------------------------------------------------------------
      1          7           0       -0.358308   -3.386925   -0.724925
      2          1           0       -0.059747   -4.263756   -0.302624
      3          1           0        0.264450   -3.197600   -1.513777
      4          6           0       -1.739959   -3.505514   -1.236019
      5          1           0       -2.360681   -4.005435   -0.485749
      6          1           0       -1.833648   -4.053102   -2.182035
      7          6           0       -2.180056   -2.064482   -1.449365
      8          8           0       -1.965598   -1.459430   -2.508031
      9          7           0       -2.624034   -1.412017   -0.348484
     10          1           0       -2.725882   -1.924195    0.517963
     11          6           0       -2.567932    0.043109   -0.294975
     12          1           0       -3.157427    0.451091   -1.117892
     13          6           0       -1.141858    0.552113   -0.539485
     14          6           0       -3.088110    0.576517    1.050210
     15          1           0       -2.435940    0.203233    1.853189
     16          1           0       -2.970196    1.666607    1.031814
     17          8           0       -0.958452    1.672813   -1.025830
     18          6           0       -4.557424    0.227452    1.365183
     19          1           0       -4.654352   -0.868215    1.409695
     20          6           0       -4.925616    0.785939    2.747683
     21          1           0       -4.863877    1.881227    2.753485
     22          1           0       -5.949565    0.508569    3.018721
     23          1           0       -4.255911    0.407106    3.528774
     24          6           0       -5.520458    0.744785    0.288025
     25          1           0       -5.420036    1.830485    0.164602
     26          1           0       -5.347458    0.274381   -0.686371
     27          1           0       -6.557845    0.536742    0.569746
     28          7           0       -0.099072   -0.242417   -0.148074
     29          1           0       -0.229170   -1.247007   -0.004439
     30          6           0        1.268023    0.261975   -0.273081
     31          1           0        1.207161    1.339894   -0.081752
     32          6           0        1.669229    0.161241   -1.734063
     33          6           0        2.254733   -0.347719    0.745838
     34          1           0        1.799498   -0.108241    1.715843
     35          8           0        2.613398   -0.638413   -2.181136
     36          6           0        2.417853   -1.872837    0.661946
     37          1           0        2.885082   -2.177137   -0.279011
     38          1           0        3.063855   -2.209909    1.478735
     39          1           0        1.463108   -2.398358    0.756710
     40          6           0        3.611545    0.372479    0.668315
     41          1           0        4.133339    0.149493   -0.268477
     42          1           0        4.255347    0.039063    1.487411
     43          1           0        3.500834    1.459893    0.754939
     44          7           0        1.083462    0.854996   -2.670526
     45          1           0        0.285850    1.459211   -2.428007
     46          6           0        1.616025    0.545467   -3.997389
     47          1           0        0.829144    0.095777   -4.607942
     48          6           0        2.621128   -0.540818   -3.645970
     49          6           0        2.271981    1.747939   -4.701379
     50          1           0        2.645046    1.378552   -5.663867
     51          1           0        1.483241    2.476435   -4.924431
     52          8           0        3.368349   -1.183731   -4.292286
     53          6           0        3.405036    2.407275   -3.906069
     54          1           0        4.200162    1.671527   -3.716117
     55          1           0        3.030646    2.729490   -2.923990
     56          6           0        3.993470    3.616260   -4.641973
     57          1           0        4.361519    3.297290   -5.627951
     58          1           0        3.213178    4.364780   -4.826562
     59          6           0        5.133257    4.286571   -3.868757
     60          1           0        4.756185    4.616086   -2.891383
     61          1           0        5.920868    3.535906   -3.663919
     62          7           0        5.595336    5.472139   -4.590189
     63          1           0        6.269151    5.987242   -4.027216
     64          1           0        6.087637    5.194675   -5.438311
     65          8           0        0.483707   -2.163495   -3.402925
     66          1           0       -0.477113   -1.953883   -3.317885
     67          1           0        0.558735   -2.799994   -4.130014
 ---------------------------------------------------------------------

 SCF Done:  E(RB3LYP) =  -1396.70378323     A.U. after    1 cycles

 Alpha  occ. eigenvalues --  -19.37543 -19.30881 -19.26542 -19.25245 -19.25149
 Alpha  occ. eigenvalues --  -14.54958 -14.49512 -14.48932 -14.44717 -14.38138
 Alpha  occ. eigenvalues --  -10.48369 -10.47967 -10.42054 -10.41614 -10.39620
 Alpha  occ. eigenvalues --  -10.38603 -10.35054 -10.34197 -10.32234 -10.32148
 Alpha  occ. eigenvalues --  -10.29682 -10.29662 -10.28672 -10.28635 -10.28609
 Alpha  occ. eigenvalues --  -10.28196 -10.27035 -10.25837 -10.25687  -1.29692
 Alpha  occ. eigenvalues --   -1.21443  -1.17486  -1.16544  -1.12102  -1.11849
 Alpha  occ. eigenvalues --   -1.06546  -1.05061  -1.00787  -0.95848  -0.95125
 Alpha  occ. eigenvalues --   -0.92801  -0.91359  -0.88573  -0.86552  -0.84356
 Alpha  occ. eigenvalues --   -0.81383  -0.80801  -0.79661  -0.79370  -0.77168
 Alpha  occ. eigenvalues --   -0.76891  -0.75533  -0.72967  -0.71766  -0.71411
 Alpha  occ. eigenvalues --   -0.70662  -0.68095  -0.67844  -0.66532  -0.65725
 Alpha  occ. eigenvalues --   -0.65341  -0.64628  -0.63669  -0.62287  -0.61129
 Alpha  occ. eigenvalues --   -0.60610  -0.59668  -0.58999  -0.58670  -0.57965
 Alpha  occ. eigenvalues --   -0.57852  -0.57061  -0.56740  -0.55796  -0.55680
 Alpha  occ. eigenvalues --   -0.54892  -0.54628  -0.53959  -0.53486  -0.53294
 Alpha  occ. eigenvalues --   -0.52916  -0.52561  -0.51966  -0.51406  -0.50842
 Alpha  occ. eigenvalues --   -0.50729  -0.50025  -0.49393  -0.49033  -0.48618
 Alpha  occ. eigenvalues --   -0.48527  -0.47814  -0.46743  -0.46349  -0.46142
 Alpha  occ. eigenvalues --   -0.45714  -0.45512  -0.45184  -0.45046  -0.44015
 Alpha  occ. eigenvalues --   -0.43641  -0.42930  -0.42589  -0.42443  -0.41993
 Alpha  occ. eigenvalues --   -0.41825  -0.41770  -0.40650  -0.39460  -0.39105
 Alpha  occ. eigenvalues --   -0.37361  -0.37060  -0.30414
 Alpha virt. eigenvalues --   -0.19239  -0.13809  -0.12182  -0.10671  -0.06238
 Alpha virt. eigenvalues --   -0.04467  -0.03182  -0.02318  -0.01422  -0.00578
 Alpha virt. eigenvalues --   -0.00382   0.00030   0.00431   0.01008   0.01626

 Mulliken charges:
               1
     1  N   -0.778640
     2  H    0.335643
     3  H    0.348730
     4  C   -0.233084
     5  H    0.176940
     6  H    0.174697
     7  C    0.608871
     8  O   -0.536905
     9  N   -0.593322
    10  H    0.350732
    11  C   -0.014480
    12  H    0.208752
    13  C    0.623173
    14  C   -0.307063
    15  H    0.141677
    16  H    0.181322
    17  O   -0.554299
    18  C   -0.077430
    19  H    0.122086
    20  C   -0.445716
    21  H    0.155925
    22  H    0.164474
    23  H    0.146347
    24  C   -0.455618
    25  H    0.155957
    26  H    0.150054
    27  H    0.166730
    28  N   -0.630307
    29  H    0.394538
    30  C   -0.070724
    31  H    0.219204
    32  C    0.703601
    33  C   -0.104072
    34  H    0.168054
    35  O   -0.458801
    36  C   -0.488613
    37  H    0.173262
    38  H    0.175826
    39  H    0.166070
    40  C   -0.474025
    41  H    0.165207
    42  H    0.183618
    43  H    0.158560
    44  N   -0.578044
    45  H    0.424719
    46  C   -0.058761
    47  H    0.240503
    48  C    0.655829
    49  C   -0.273951
    50  H    0.195083
    51  H    0.182512
    52  O   -0.371842
    53  C   -0.296083
    54  H    0.155178
    55  H    0.137922
    56  C   -0.252334
    57  H    0.143683
    58  H    0.163692
    59  C   -0.134727
    60  H    0.139976
    61  H    0.118622
    62  N   -0.713983
    63  H    0.309491
    64  H    0.301778
    65  O   -0.839352
    66  H    0.439331
    67  H    0.413808
 Sum of Mulliken charges =   1.00000

 Dipole moment (field-independent basis, Debye):
    X=              2.1289    Y=             -3.2782    Z=             -6.2016  Tot=              7.3307
 Quadrupole moment (field-independent basis, Debye-Ang):
   XX=           -128.3504   YY=           -148.4223   ZZ=           -134.3389
   XY=             23.4080   XZ=            -22.2347   YZ=             -2.8661

 Normal termination of Gaussian 16 at Thu Jun  2 03:54:57 2022.
