 Gaussian 16, Revision C.01,
 Gaussian 16:  ES64L-G16RevC.01  3-Jul-2019

 ----------------------------------------------------------------------
 # B3LYP/6-31G* empiricaldispersion=gd3 guess=read geom=check nosymm in
 tegral(ultrafinegrid)
 ----------------------------------------------------------------------

 ------------------------------------------------------
 Candidate Structure: Conf:578 Charge calc in gas phase
 ------------------------------------------------------
 Structure from the checkpoint file:  "conf-578.chk"
 Charge =  1 Multiplicity = 1

                          Input orientation:
 ---------------------------------------------------------------------
 Center     Atomic      Atomic             Coordinates (Angstroms)
 Number     Number       Type             X           Y           Z
 ---------------------------------------------------------------------
      1          7           0       -2.963090   -1.640574    3.469153
      2          1           0       -2.491958   -2.466416    3.104150
      3          1           0       -2.242885   -1.096496    3.940456
      4          6           0       -3.518869   -0.881162    2.369569
      5          1           0       -3.985865    0.034939    2.754736
      6          1           0       -4.327612   -1.461968    1.904391
      7          6           0       -2.523908   -0.518855    1.257543
      8          8           0       -1.420235   -1.075112    1.172185
      9          7           0       -2.926436    0.425222    0.367170
     10          1           0       -3.829820    0.862578    0.497675
     11          6           0       -2.218524    0.710383   -0.887221
     12          1           0       -1.811969   -0.242746   -1.245087
     13          6           0       -1.010945    1.630314   -0.617536
     14          6           0       -3.159395    1.314700   -1.931261
     15          1           0       -3.495579    2.297257   -1.575798
     16          1           0       -2.564527    1.511987   -2.831618
     17          8           0       -0.903859    2.780692   -1.054322
     18          6           0       -4.371490    0.439318   -2.306841
     19          1           0       -4.993113    0.296730   -1.409786
     20          6           0       -5.226365    1.173044   -3.350276
     21          1           0       -4.663056    1.320123   -4.280428
     22          1           0       -6.125452    0.597298   -3.593455
     23          1           0       -5.543836    2.158697   -2.990468
     24          6           0       -3.955487   -0.948333   -2.815322
     25          1           0       -3.282452   -0.862031   -3.678140
     26          1           0       -3.445958   -1.539464   -2.045569
     27          1           0       -4.832634   -1.519963   -3.135878
     28          7           0       -0.040735    1.073810    0.144618
     29          1           0       -0.221526    0.144885    0.541003
     30          6           0        1.078213    1.868666    0.584738
     31          1           0        0.720155    2.751231    1.135475
     32          6           0        1.827949    2.407898   -0.600934
     33          6           0        2.031836    1.062504    1.527164
     34          1           0        2.840369    1.757721    1.793036
     35          8           0        1.945804    1.711334   -1.702484
     36          6           0        1.275253    0.696024    2.815704
     37          1           0        0.484751   -0.038190    2.626301
     38          1           0        1.973534    0.252409    3.531866
     39          1           0        0.823684    1.577246    3.285795
     40          6           0        2.650167   -0.174610    0.860199
     41          1           0        1.880531   -0.871586    0.512113
     42          1           0        3.265966   -0.705351    1.592470
     43          1           0        3.302722    0.072518    0.018379
     44          7           0        2.500275    3.530972   -0.620766
     45          1           0        2.488195    4.201671    0.137860
     46          6           0        3.267758    3.697857   -1.861981
     47          1           0        2.948986    4.607801   -2.372752
     48          6           0        2.761706    2.497437   -2.648272
     49          6           0        4.793516    3.621597   -1.650588
     50          1           0        5.238166    3.605088   -2.653145
     51          1           0        5.128592    4.549394   -1.171281
     52          8           0        3.007005    2.079562   -3.721823
     53          6           0        5.220431    2.390767   -0.844358
     54          1           0        4.752281    1.487484   -1.251533
     55          1           0        4.859083    2.481563    0.189904
     56          6           0        6.732836    2.154882   -0.821972
     57          1           0        7.090694    2.004390   -1.850703
     58          1           0        7.257061    3.039218   -0.436664
     59          6           0        7.105092    0.938000    0.036196
     60          1           0        8.199615    0.808025    0.014170
     61          1           0        6.833094    1.140637    1.080443
     62          7           0        6.351041   -0.250184   -0.392222
     63          1           0        6.686087   -0.555163   -1.306300
     64          1           0        6.538490   -1.024351    0.242424
     65          8           0        0.686565    3.986975   -2.976986
     66          1           0       -0.062487    3.685757   -2.426362
     67          1           0        0.415375    3.824607   -3.892683
 ---------------------------------------------------------------------

 SCF Done:  E(RB3LYP) =  -1396.69398183     A.U. after    2 cycles

 Alpha  occ. eigenvalues --  -19.37302 -19.30502 -19.25212 -19.24883 -19.23489
 Alpha  occ. eigenvalues --  -14.56250 -14.48210 -14.47850 -14.40368 -14.40118
 Alpha  occ. eigenvalues --  -10.48909 -10.47843 -10.41423 -10.39749 -10.39637
 Alpha  occ. eigenvalues --  -10.39049 -10.34797 -10.33368 -10.32406 -10.31546
 Alpha  occ. eigenvalues --  -10.29850 -10.29635 -10.28986 -10.28705 -10.28392
 Alpha  occ. eigenvalues --  -10.28244 -10.28158 -10.25756 -10.25366  -1.29723
 Alpha  occ. eigenvalues --   -1.21243  -1.16914  -1.14868  -1.12602  -1.10613
 Alpha  occ. eigenvalues --   -1.06079  -1.03962  -0.97282  -0.97096  -0.96010
 Alpha  occ. eigenvalues --   -0.93021  -0.90771  -0.88931  -0.86452  -0.84668
 Alpha  occ. eigenvalues --   -0.81283  -0.80345  -0.79700  -0.78755  -0.78066
 Alpha  occ. eigenvalues --   -0.76669  -0.75617  -0.73142  -0.71506  -0.70462
 Alpha  occ. eigenvalues --   -0.69625  -0.68605  -0.67983  -0.65921  -0.65470
 Alpha  occ. eigenvalues --   -0.64265  -0.63821  -0.62476  -0.61922  -0.60581
 Alpha  occ. eigenvalues --   -0.60008  -0.59442  -0.58856  -0.58709  -0.58489
 Alpha  occ. eigenvalues --   -0.57319  -0.56951  -0.56480  -0.55616  -0.55006
 Alpha  occ. eigenvalues --   -0.54623  -0.54505  -0.54172  -0.53750  -0.53143
 Alpha  occ. eigenvalues --   -0.52079  -0.51621  -0.51422  -0.50985  -0.50514
 Alpha  occ. eigenvalues --   -0.49959  -0.49212  -0.49136  -0.48872  -0.48093
 Alpha  occ. eigenvalues --   -0.47834  -0.47317  -0.46753  -0.46596  -0.46092
 Alpha  occ. eigenvalues --   -0.45795  -0.45411  -0.45320  -0.45176  -0.44390
 Alpha  occ. eigenvalues --   -0.43594  -0.43278  -0.42951  -0.41759  -0.41582
 Alpha  occ. eigenvalues --   -0.41434  -0.40774  -0.40152  -0.38975  -0.37485
 Alpha  occ. eigenvalues --   -0.36424  -0.32706  -0.32686
 Alpha virt. eigenvalues --   -0.18941  -0.13317  -0.11419  -0.08975  -0.07844
 Alpha virt. eigenvalues --   -0.03986  -0.02978  -0.02725  -0.02279  -0.01813
 Alpha virt. eigenvalues --   -0.00959  -0.00807  -0.00026   0.00301   0.00972

 Mulliken charges:
               1
     1  N   -0.672755
     2  H    0.320063
     3  H    0.304957
     4  C   -0.249156
     5  H    0.171922
     6  H    0.196233
     7  C    0.590388
     8  O   -0.546416
     9  N   -0.593900
    10  H    0.350172
    11  C   -0.073725
    12  H    0.198391
    13  C    0.654366
    14  C   -0.288142
    15  H    0.159117
    16  H    0.152935
    17  O   -0.561078
    18  C   -0.080188
    19  H    0.119824
    20  C   -0.445033
    21  H    0.149516
    22  H    0.162760
    23  H    0.149381
    24  C   -0.455816
    25  H    0.149417
    26  H    0.146704
    27  H    0.166881
    28  N   -0.640526
    29  H    0.414770
    30  C   -0.030054
    31  H    0.185911
    32  C    0.731628
    33  C   -0.129470
    34  H    0.148533
    35  O   -0.450623
    36  C   -0.469683
    37  H    0.182064
    38  H    0.180531
    39  H    0.154862
    40  C   -0.475515
    41  H    0.174173
    42  H    0.176695
    43  H    0.184865
    44  N   -0.592968
    45  H    0.386508
    46  C   -0.048552
    47  H    0.260677
    48  C    0.648961
    49  C   -0.280324
    50  H    0.198457
    51  H    0.174623
    52  O   -0.372161
    53  C   -0.290925
    54  H    0.184215
    55  H    0.130292
    56  C   -0.269570
    57  H    0.149614
    58  H    0.150856
    59  C   -0.143648
    60  H    0.145296
    61  H    0.142412
    62  N   -0.730630
    63  H    0.306934
    64  H    0.313888
    65  O   -0.832703
    66  H    0.442058
    67  H    0.411710
 Sum of Mulliken charges =   1.00000

 Dipole moment (field-independent basis, Debye):
    X=              7.2345    Y=             10.3868    Z=             -1.0695  Tot=             12.7030
 Quadrupole moment (field-independent basis, Debye-Ang):
   XX=            -86.8046   YY=           -137.8850   ZZ=           -160.6678
   XY=             24.3801   XZ=              5.9732   YZ=             -3.8265

 Normal termination of Gaussian 16 at Thu Jun  2 03:47:05 2022.
