 Gaussian 16, Revision C.01,
 Gaussian 16:  ES64L-G16RevC.01  3-Jul-2019

 ----------------------------------------------------------------------
 # B3LYP/6-31G* empiricaldispersion=gd3 guess=read geom=check nosymm in
 tegral(ultrafinegrid)
 ----------------------------------------------------------------------

 ------------------------------------------------------
 Candidate Structure: Conf:538 Charge calc in gas phase
 ------------------------------------------------------
 Structure from the checkpoint file:  "conf-538.chk"
 Charge =  1 Multiplicity = 1

                          Input orientation:
 ---------------------------------------------------------------------
 Center     Atomic      Atomic             Coordinates (Angstroms)
 Number     Number       Type             X           Y           Z
 ---------------------------------------------------------------------
      1          7           0       -3.354440    2.284168    2.882742
      2          1           0       -4.326524    2.124852    2.628300
      3          1           0       -3.359022    2.869715    3.713019
      4          6           0       -2.668481    1.014335    3.134830
      5          1           0       -3.298912    0.206997    3.531041
      6          1           0       -1.869271    1.171640    3.868785
      7          6           0       -1.995788    0.471002    1.875964
      8          8           0       -1.568528   -0.692435    1.820650
      9          7           0       -1.871645    1.359324    0.868711
     10          1           0       -2.273636    2.277075    1.052713
     11          6           0       -1.415770    0.992736   -0.467691
     12          1           0       -1.807439   -0.011509   -0.675675
     13          6           0        0.120977    0.871778   -0.508431
     14          6           0       -1.910311    1.985719   -1.521048
     15          1           0       -1.433146    2.956440   -1.339357
     16          1           0       -1.531249    1.644811   -2.490800
     17          8           0        0.831119    1.614323   -1.205036
     18          6           0       -3.437861    2.155619   -1.612895
     19          1           0       -3.804319    2.577031   -0.665221
     20          6           0       -3.759772    3.162877   -2.727450
     21          1           0       -3.423018    2.781955   -3.701220
     22          1           0       -4.837273    3.344661   -2.797706
     23          1           0       -3.266322    4.126338   -2.552419
     24          6           0       -4.161422    0.822930   -1.850955
     25          1           0       -3.786974    0.332395   -2.759090
     26          1           0       -4.035318    0.127012   -1.013454
     27          1           0       -5.236685    0.983691   -1.982116
     28          7           0        0.642930   -0.131362    0.241951
     29          1           0       -0.015479   -0.657259    0.833327
     30          6           0        2.085040   -0.223865    0.475864
     31          1           0        2.482446    0.800892    0.485010
     32          6           0        2.695362   -0.896623   -0.757371
     33          6           0        2.453684   -0.903961    1.810751
     34          1           0        2.182644   -1.964983    1.742415
     35          8           0        3.169958   -2.105517   -0.637921
     36          6           0        3.968031   -0.788938    2.057155
     37          1           0        4.264239    0.261872    2.164969
     38          1           0        4.232541   -1.303135    2.985670
     39          1           0        4.564206   -1.235548    1.255958
     40          6           0        1.677558   -0.265585    2.975086
     41          1           0        1.838049    0.819608    3.002751
     42          1           0        2.039745   -0.678962    3.921320
     43          1           0        0.603252   -0.458200    2.920670
     44          7           0        2.659657   -0.243058   -1.890156
     45          1           0        2.180736    0.677320   -1.809033
     46          6           0        2.828063   -0.779829   -3.260223
     47          1           0        2.388934   -1.788030   -3.267640
     48          6           0        4.307217   -0.970967   -3.615048
     49          6           0        2.066401    0.111267   -4.250598
     50          1           0        2.169991   -0.344358   -5.241239
     51          1           0        1.007357    0.045453   -3.979383
     52          8           0        4.880483   -0.548296   -4.576978
     53          6           0        2.518203    1.581646   -4.310137
     54          1           0        3.532784    1.621031   -4.717499
     55          1           0        2.563549    2.015865   -3.301917
     56          6           0        1.582199    2.460378   -5.156848
     57          1           0        2.032665    3.452628   -5.268049
     58          1           0        1.497015    2.042079   -6.170479
     59          6           0        0.185600    2.649805   -4.550761
     60          1           0       -0.338640    1.674084   -4.511269
     61          1           0        0.293352    2.980022   -3.510657
     62          7           0       -0.551367    3.681366   -5.280202
     63          1           0       -0.761675    3.364447   -6.225540
     64          1           0       -1.446939    3.861787   -4.830290
     65          8           0        4.897738   -1.783861   -2.678573
     66          1           0        3.754333   -2.348281   -1.398213
     67          1           0        5.832554   -1.932296   -2.923988
 ---------------------------------------------------------------------

 SCF Done:  E(RB3LYP) =  -1396.71226587     A.U. after    3 cycles

 Alpha  occ. eigenvalues --  -19.37050 -19.35513 -19.29200 -19.25721 -19.22596
 Alpha  occ. eigenvalues --  -14.54512 -14.48674 -14.46672 -14.42910 -14.38489
 Alpha  occ. eigenvalues --  -10.48625 -10.47156 -10.41811 -10.39898 -10.39252
 Alpha  occ. eigenvalues --  -10.38173 -10.34699 -10.32215 -10.31758 -10.31445
 Alpha  occ. eigenvalues --  -10.28586 -10.28580 -10.28474 -10.28431 -10.28297
 Alpha  occ. eigenvalues --  -10.27834 -10.26517 -10.26035 -10.25843  -1.27515
 Alpha  occ. eigenvalues --   -1.25344  -1.17309  -1.17083  -1.14137  -1.12010
 Alpha  occ. eigenvalues --   -1.05703  -1.03622  -0.98933  -0.95633  -0.95121
 Alpha  occ. eigenvalues --   -0.92692  -0.90696  -0.87904  -0.86162  -0.84604
 Alpha  occ. eigenvalues --   -0.81176  -0.80009  -0.79611  -0.78960  -0.76970
 Alpha  occ. eigenvalues --   -0.76502  -0.74833  -0.74340  -0.72471  -0.70947
 Alpha  occ. eigenvalues --   -0.69661  -0.68345  -0.67471  -0.67152  -0.65784
 Alpha  occ. eigenvalues --   -0.65222  -0.64017  -0.63478  -0.62757  -0.61687
 Alpha  occ. eigenvalues --   -0.60502  -0.59939  -0.58634  -0.58075  -0.57701
 Alpha  occ. eigenvalues --   -0.57212  -0.56025  -0.55965  -0.55533  -0.55244
 Alpha  occ. eigenvalues --   -0.55113  -0.54881  -0.54057  -0.53911  -0.53431
 Alpha  occ. eigenvalues --   -0.52209  -0.51821  -0.51735  -0.50799  -0.50535
 Alpha  occ. eigenvalues --   -0.50186  -0.50082  -0.48950  -0.48777  -0.48673
 Alpha  occ. eigenvalues --   -0.47665  -0.47567  -0.47297  -0.47032  -0.46393
 Alpha  occ. eigenvalues --   -0.45884  -0.45358  -0.45242  -0.44792  -0.44664
 Alpha  occ. eigenvalues --   -0.43516  -0.42682  -0.41899  -0.41797  -0.41610
 Alpha  occ. eigenvalues --   -0.41522  -0.41115  -0.40149  -0.39353  -0.37581
 Alpha  occ. eigenvalues --   -0.36080  -0.34695  -0.30599
 Alpha virt. eigenvalues --   -0.18192  -0.14406  -0.11563  -0.08484  -0.07432
 Alpha virt. eigenvalues --   -0.04165  -0.02601  -0.02269  -0.02154  -0.00508
 Alpha virt. eigenvalues --    0.00200   0.00410   0.00966   0.01033   0.01921

 Mulliken charges:
               1
     1  N   -0.750575
     2  H    0.328959
     3  H    0.334761
     4  C   -0.237678
     5  H    0.189978
     6  H    0.192564
     7  C    0.609385
     8  O   -0.555461
     9  N   -0.589086
    10  H    0.378959
    11  C   -0.061337
    12  H    0.189101
    13  C    0.637618
    14  C   -0.291917
    15  H    0.164466
    16  H    0.156186
    17  O   -0.553393
    18  C   -0.081544
    19  H    0.128823
    20  C   -0.453212
    21  H    0.142017
    22  H    0.163715
    23  H    0.154035
    24  C   -0.456252
    25  H    0.144347
    26  H    0.147631
    27  H    0.164821
    28  N   -0.634260
    29  H    0.406014
    30  C   -0.046742
    31  H    0.205944
    32  C    0.635631
    33  C   -0.111457
    34  H    0.168649
    35  O   -0.551061
    36  C   -0.465154
    37  H    0.160549
    38  H    0.182631
    39  H    0.148949
    40  C   -0.479733
    41  H    0.151454
    42  H    0.175134
    43  H    0.180855
    44  N   -0.582761
    45  H    0.445396
    46  C   -0.109085
    47  H    0.212710
    48  C    0.644695
    49  C   -0.300021
    50  H    0.190077
    51  H    0.166893
    52  O   -0.387027
    53  C   -0.301189
    54  H    0.180939
    55  H    0.150503
    56  C   -0.260956
    57  H    0.174309
    58  H    0.139597
    59  C   -0.150351
    60  H    0.102333
    61  H    0.162996
    62  N   -0.716712
    63  H    0.300923
    64  H    0.305276
    65  O   -0.622524
    66  H    0.476284
    67  H    0.453385
 Sum of Mulliken charges =   1.00000

 Dipole moment (field-independent basis, Debye):
    X=              4.8714    Y=             -1.0411    Z=             -2.6801  Tot=              5.6566
 Quadrupole moment (field-independent basis, Debye-Ang):
   XX=           -104.3521   YY=           -168.4400   ZZ=           -132.8557
   XY=            -35.2835   XZ=            -18.6166   YZ=             20.5853

 Normal termination of Gaussian 16 at Thu Jun  2 03:47:17 2022.
