 Gaussian 16, Revision C.01,
 Gaussian 16:  ES64L-G16RevC.01  3-Jul-2019

 ----------------------------------------------------------------------
 # B3LYP/6-31G* empiricaldispersion=gd3 guess=read geom=check nosymm in
 tegral(ultrafinegrid)
 ----------------------------------------------------------------------

 ----------------------------------------------------
 Candidate Structure: Conf:2 Charge calc in gas phase
 ----------------------------------------------------
 Structure from the checkpoint file:  "conf-2.chk"
 Charge =  1 Multiplicity = 1

                          Input orientation:
 ---------------------------------------------------------------------
 Center     Atomic      Atomic             Coordinates (Angstroms)
 Number     Number       Type             X           Y           Z
 ---------------------------------------------------------------------
      1          7           0       -8.110158   13.936096   13.317518
      2          1           0       -8.821105   13.609509   12.665318
      3          1           0       -8.513172   13.900704   14.252657
      4          6           0       -7.741719   15.297036   12.975633
      5          1           0       -7.319850   15.295562   11.964616
      6          6           0       -6.681453   15.755888   13.947536
      7          6           0       -8.910258   16.349317   12.993420
      8          1           0       -9.401128   16.281699   13.971093
      9          1           0       -8.520366   17.368287   12.894008
     10          8           0       -6.610391   15.542533   15.118860
     11          6           0       -9.874654   16.066116   11.866693
     12          6           0      -11.092889   15.418814   12.100941
     13          1           0      -11.374997   15.150346   13.116366
     14          6           0       -9.524679   16.409979   10.551822
     15          1           0       -8.572521   16.901723   10.363616
     16          6           0      -11.957380   15.133725   11.040673
     17          1           0      -12.903637   14.637506   11.235349
     18          6           0      -10.387877   16.127535    9.494538
     19          1           0      -10.111125   16.405972    8.481549
     20          6           0      -11.607485   15.488859    9.737447
     21          1           0      -12.280618   15.269174    8.914066
     22          7           0       -5.608954   16.682129   13.338080
     23          6           0       -5.881539   18.153532   13.637303
     24          1           0       -6.610407   18.201134   14.450008
     25          6           0       -6.448899   18.737214   12.326801
     26          6           0       -4.521983   18.720478   14.083507
     27          1           0       -3.948863   19.051724   13.210024
     28          1           0       -4.650240   19.577252   14.749539
     29          8           0       -6.412677   18.033404   11.303499
     30          6           0       -3.846484   17.519343   14.758208
     31          1           0       -2.765442   17.640673   14.862276
     32          1           0       -4.272138   17.340217   15.750750
     33          6           0       -4.195849   16.359855   13.826411
     34          1           0       -4.202679   15.380166   14.302606
     35          1           0       -3.560471   16.335090   12.938199
     36          7           0       -6.942994   19.966076   12.417242
     37          1           0       -6.882223   20.493777   13.285619
     38          6           0       -7.500410   20.711447   11.282343
     39          1           0       -6.871186   20.551132   10.387595
     40          6           0       -7.446763   22.168560   11.697054
     41          6           0       -8.939432   20.234884   10.954395
     42          1           0       -9.621272   20.622503   11.722139
     43          1           0       -8.945606   19.144510   11.057159
     44          8           0       -7.161805   22.545206   12.818150
     45          6           0       -9.473847   20.596527    9.555755
     46          1           0      -10.561230   20.462703    9.604902
     47          1           0       -9.309395   21.659770    9.350407
     48          6           0       -8.960243   19.747548    8.371946
     49          1           0       -9.723427   19.787427    7.584531
     50          1           0       -8.903193   18.690887    8.673025
     51          6           0       -7.638272   20.160011    7.711250
     52          1           0       -7.571871   19.649108    6.736386
     53          1           0       -7.660616   21.236794    7.502028
     54          7           0       -6.465717   19.897616    8.561299
     55          1           0       -5.612250   20.156594    8.069196
     56          1           0       -6.395655   18.901752    8.769075
     57          8           0       -7.761244   22.995150   10.689680
     58          1           0       -7.732493   23.907440   11.038452
     59          1           0       -5.682569   16.656587   12.297945
 ---------------------------------------------------------------------

 SCF Done:  E(RB3LYP) =  -1300.57410855     A.U. after    1 cycles

 Alpha  occ. eigenvalues --  -19.32218 -19.30305 -19.27023 -19.24864 -14.58580
 Alpha  occ. eigenvalues --  -14.50018 -14.43550 -14.40717 -10.47133 -10.43842
 Alpha  occ. eigenvalues --  -10.42822 -10.40276 -10.38545 -10.36865 -10.34480
 Alpha  occ. eigenvalues --  -10.33622 -10.33453 -10.31849 -10.29902 -10.29240
 Alpha  occ. eigenvalues --  -10.28875 -10.28613 -10.28526 -10.28353 -10.28194
 Alpha  occ. eigenvalues --  -10.28053 -10.26978 -10.26855  -1.23881  -1.21399
 Alpha  occ. eigenvalues --   -1.18884  -1.13216  -1.12516  -1.06517  -1.02134
 Alpha  occ. eigenvalues --   -0.97030  -0.95517  -0.95169  -0.92144  -0.89415
 Alpha  occ. eigenvalues --   -0.89019  -0.85232  -0.84695  -0.83826  -0.80043
 Alpha  occ. eigenvalues --   -0.79045  -0.77043  -0.75845  -0.74607  -0.73844
 Alpha  occ. eigenvalues --   -0.72760  -0.70589  -0.70182  -0.68924  -0.68223
 Alpha  occ. eigenvalues --   -0.66840  -0.65964  -0.64357  -0.63225  -0.61335
 Alpha  occ. eigenvalues --   -0.60599  -0.60266  -0.59781  -0.58998  -0.58636
 Alpha  occ. eigenvalues --   -0.58223  -0.57550  -0.57337  -0.57068  -0.56428
 Alpha  occ. eigenvalues --   -0.55931  -0.55445  -0.54680  -0.54401  -0.53986
 Alpha  occ. eigenvalues --   -0.53534  -0.52687  -0.52335  -0.51970  -0.51460
 Alpha  occ. eigenvalues --   -0.51135  -0.50801  -0.50526  -0.50329  -0.49817
 Alpha  occ. eigenvalues --   -0.48970  -0.48569  -0.48365  -0.47758  -0.45451
 Alpha  occ. eigenvalues --   -0.44967  -0.44498  -0.43459  -0.43183  -0.42756
 Alpha  occ. eigenvalues --   -0.42455  -0.41909  -0.41379  -0.40839  -0.38861
 Alpha  occ. eigenvalues --   -0.38613  -0.36177  -0.34455  -0.33883  -0.32588
 Alpha virt. eigenvalues --   -0.18580  -0.12676  -0.10264  -0.09749  -0.09270
 Alpha virt. eigenvalues --   -0.07269  -0.06602  -0.04711  -0.03430  -0.02524
 Alpha virt. eigenvalues --   -0.01974  -0.01635  -0.00999  -0.00815   0.00137

 Mulliken charges:
               1
     1  N   -0.699304
     2  H    0.336554
     3  H    0.325437
     4  C   -0.078185
     5  H    0.185206
     6  C    0.589840
     7  C   -0.385121
     8  H    0.173748
     9  H    0.156122
    10  O   -0.368905
    11  C    0.153228
    12  C   -0.191969
    13  H    0.139371
    14  C   -0.196208
    15  H    0.153755
    16  C   -0.125615
    17  H    0.157945
    18  C   -0.132143
    19  H    0.149216
    20  C   -0.124980
    21  H    0.157468
    22  N   -0.592567
    23  C   -0.099480
    24  H    0.221339
    25  C    0.656159
    26  C   -0.300931
    27  H    0.190822
    28  H    0.204883
    29  O   -0.552523
    30  C   -0.293648
    31  H    0.204742
    32  H    0.200145
    33  C   -0.158882
    34  H    0.230671
    35  H    0.209270
    36  N   -0.612557
    37  H    0.365998
    38  C   -0.076344
    39  H    0.280580
    40  C    0.593126
    41  C   -0.289608
    42  H    0.151808
    43  H    0.164045
    44  O   -0.475677
    45  C   -0.270381
    46  H    0.153701
    47  H    0.168913
    48  C   -0.277872
    49  H    0.155360
    50  H    0.132906
    51  C   -0.135827
    52  H    0.136699
    53  H    0.157116
    54  N   -0.740683
    55  H    0.314940
    56  H    0.313431
    57  O   -0.550750
    58  H    0.431465
    59  H    0.414149
 Sum of Mulliken charges =   1.00000

 Dipole moment (field-independent basis, Debye):
    X=            -32.2264    Y=             86.0783    Z=             58.8289  Tot=            109.1277
 Quadrupole moment (field-independent basis, Debye-Ang):
   XX=             92.9044   YY=           1407.9038   ZZ=            583.6573
   XY=           -572.2998   XZ=           -380.9648   YZ=           1043.1918

 Normal termination of Gaussian 16 at Thu Jun  2 03:46:50 2022.
