 Gaussian 16, Revision C.01,
 Gaussian 16:  ES64L-G16RevC.01  3-Jul-2019

 ----------------------------------------------------------------------
 # B3LYP/6-31G* empiricaldispersion=gd3 guess=read geom=check nosymm in
 tegral(ultrafinegrid)
 ----------------------------------------------------------------------

 ------------------------------------------------------
 Candidate Structure: Conf:727 Charge calc in gas phase
 ------------------------------------------------------
 Structure from the checkpoint file:  "conf-727.chk"
 Charge =  1 Multiplicity = 1

                          Input orientation:
 ---------------------------------------------------------------------
 Center     Atomic      Atomic             Coordinates (Angstroms)
 Number     Number       Type             X           Y           Z
 ---------------------------------------------------------------------
      1          7           0       -4.054778    0.302406    2.829781
      2          1           0       -4.957348    0.182337    2.375815
      3          1           0       -4.235374    0.406254    3.824193
      4          6           0       -3.183828   -0.845491    2.566754
      5          1           0       -3.694426   -1.810879    2.449025
      6          1           0       -2.481007   -0.966115    3.399779
      7          6           0       -2.335803   -0.641031    1.312986
      8          8           0       -1.719744   -1.582917    0.789246
      9          7           0       -2.276912    0.629012    0.866615
     10          1           0       -2.846552    1.290069    1.392237
     11          6           0       -1.710334    1.011461   -0.424752
     12          1           0       -1.931461    0.196790   -1.127924
     13          6           0       -0.172856    1.096400   -0.345932
     14          6           0       -2.323199    2.326014   -0.918167
     15          1           0       -2.000365    3.133390   -0.249284
     16          1           0       -1.894886    2.558046   -1.898285
     17          8           0        0.454848    2.128700   -0.632627
     18          6           0       -3.860850    2.325618   -1.037311
     19          1           0       -4.295038    2.167714   -0.038572
     20          6           0       -4.323013    3.701127   -1.541207
     21          1           0       -3.904507    3.898978   -2.534880
     22          1           0       -5.415853    3.744766   -1.608065
     23          1           0       -3.996276    4.501779   -0.867009
     24          6           0       -4.373694    1.206523   -1.954650
     25          1           0       -3.935630    1.300423   -2.955497
     26          1           0       -4.136924    0.207116   -1.569986
     27          1           0       -5.462230    1.264168   -2.062428
     28          7           0        0.455150   -0.049200    0.027491
     29          1           0       -0.145246   -0.858657    0.242140
     30          6           0        1.857099   -0.039106    0.447103
     31          1           0        2.050955    0.943342    0.901614
     32          6           0        2.725972   -0.079971   -0.813242
     33          6           0        2.206979   -1.130472    1.482756
     34          1           0        2.190180   -2.103867    0.976909
     35          8           0        3.472243   -1.128318   -1.030098
     36          6           0        3.617282   -0.883451    2.047023
     37          1           0        3.651070    0.062145    2.602261
     38          1           0        3.883565   -1.684473    2.742732
     39          1           0        4.388042   -0.856000    1.271362
     40          6           0        1.177662   -1.147575    2.625361
     41          1           0        1.062987   -0.148850    3.065044
     42          1           0        1.524993   -1.820864    3.414990
     43          1           0        0.196986   -1.500792    2.298634
     44          7           0        2.647426    0.929609   -1.639872
     45          1           0        1.964579    1.658688   -1.330733
     46          6           0        3.128932    0.997204   -3.038310
     47          1           0        3.002197   -0.000745   -3.481139
     48          6           0        4.628810    1.308575   -3.061416
     49          6           0        2.278622    2.016856   -3.797659
     50          1           0        2.252174    2.949739   -3.220199
     51          1           0        2.785060    2.257537   -4.736885
     52          8           0        5.160217    2.273101   -3.529558
     53          6           0        0.859549    1.485950   -4.058644
     54          1           0        0.501929    0.924214   -3.184815
     55          1           0        0.894527    0.767866   -4.889409
     56          6           0       -0.149632    2.597786   -4.354460
     57          1           0       -0.267803    3.223526   -3.460976
     58          1           0        0.232283    3.252183   -5.151038
     59          6           0       -1.517883    2.041525   -4.757755
     60          1           0       -1.427111    1.539893   -5.737982
     61          1           0       -1.815128    1.264661   -4.039516
     62          7           0       -2.536177    3.094517   -4.710872
     63          1           0       -2.297534    3.839456   -5.364909
     64          1           0       -3.434405    2.727078   -5.019978
     65          8           0        5.307357    0.273134   -2.466994
     66          1           0        4.175548   -0.950528   -1.701368
     67          1           0        6.266035    0.465073   -2.478316
 ---------------------------------------------------------------------

 SCF Done:  E(RB3LYP) =  -1396.71777517     A.U. after    3 cycles

 Alpha  occ. eigenvalues --  -19.37054 -19.35343 -19.29079 -19.25431 -19.22271
 Alpha  occ. eigenvalues --  -14.54438 -14.48250 -14.46211 -14.42610 -14.39826
 Alpha  occ. eigenvalues --  -10.48530 -10.46977 -10.41485 -10.39709 -10.38907
 Alpha  occ. eigenvalues --  -10.38066 -10.34188 -10.31934 -10.31656 -10.31563
 Alpha  occ. eigenvalues --  -10.29661 -10.29596 -10.28372 -10.27756 -10.27590
 Alpha  occ. eigenvalues --  -10.27319 -10.27110 -10.25212 -10.23762  -1.27455
 Alpha  occ. eigenvalues --   -1.25177  -1.17002  -1.16934  -1.13810  -1.11928
 Alpha  occ. eigenvalues --   -1.05350  -1.03214  -0.98622  -0.96629  -0.95385
 Alpha  occ. eigenvalues --   -0.92622  -0.89655  -0.88556  -0.85747  -0.84219
 Alpha  occ. eigenvalues --   -0.81785  -0.79804  -0.79184  -0.78898  -0.76652
 Alpha  occ. eigenvalues --   -0.75795  -0.74072  -0.73624  -0.72820  -0.70544
 Alpha  occ. eigenvalues --   -0.69245  -0.68697  -0.68001  -0.66854  -0.65655
 Alpha  occ. eigenvalues --   -0.64743  -0.63772  -0.63289  -0.62470  -0.61382
 Alpha  occ. eigenvalues --   -0.60315  -0.59609  -0.58746  -0.58325  -0.57735
 Alpha  occ. eigenvalues --   -0.57234  -0.56683  -0.56188  -0.55592  -0.55190
 Alpha  occ. eigenvalues --   -0.54480  -0.54193  -0.53793  -0.53398  -0.52962
 Alpha  occ. eigenvalues --   -0.52481  -0.51817  -0.51650  -0.50814  -0.50505
 Alpha  occ. eigenvalues --   -0.50027  -0.49931  -0.48652  -0.48282  -0.48087
 Alpha  occ. eigenvalues --   -0.47402  -0.47012  -0.46863  -0.46636  -0.46229
 Alpha  occ. eigenvalues --   -0.45693  -0.45206  -0.44658  -0.44535  -0.44425
 Alpha  occ. eigenvalues --   -0.44139  -0.43233  -0.42791  -0.41737  -0.40750
 Alpha  occ. eigenvalues --   -0.40527  -0.40227  -0.39779  -0.38957  -0.37251
 Alpha  occ. eigenvalues --   -0.35746  -0.34392  -0.32009
 Alpha virt. eigenvalues --   -0.18126  -0.14204  -0.11350  -0.08236  -0.07398
 Alpha virt. eigenvalues --   -0.04009  -0.02662  -0.02226  -0.01781  -0.01140
 Alpha virt. eigenvalues --   -0.00073   0.00276   0.01080   0.01341   0.01657

 Mulliken charges:
               1
     1  N   -0.750368
     2  H    0.329385
     3  H    0.333961
     4  C   -0.237151
     5  H    0.188740
     6  H    0.191010
     7  C    0.609364
     8  O   -0.558757
     9  N   -0.587979
    10  H    0.381764
    11  C   -0.068782
    12  H    0.189681
    13  C    0.644375
    14  C   -0.303330
    15  H    0.157903
    16  H    0.189308
    17  O   -0.559250
    18  C   -0.076264
    19  H    0.119496
    20  C   -0.464453
    21  H    0.181280
    22  H    0.147490
    23  H    0.143243
    24  C   -0.465677
    25  H    0.152258
    26  H    0.139968
    27  H    0.159419
    28  N   -0.635885
    29  H    0.406736
    30  C   -0.048965
    31  H    0.207281
    32  C    0.636274
    33  C   -0.109818
    34  H    0.168785
    35  O   -0.551595
    36  C   -0.465054
    37  H    0.160701
    38  H    0.182036
    39  H    0.148198
    40  C   -0.480458
    41  H    0.151866
    42  H    0.174156
    43  H    0.180081
    44  N   -0.573601
    45  H    0.437715
    46  C   -0.103304
    47  H    0.209047
    48  C    0.635827
    49  C   -0.303458
    50  H    0.185657
    51  H    0.197774
    52  O   -0.386132
    53  C   -0.281912
    54  H    0.132981
    55  H    0.156016
    56  C   -0.276613
    57  H    0.172347
    58  H    0.148444
    59  C   -0.139340
    60  H    0.131746
    61  H    0.134538
    62  N   -0.719230
    63  H    0.308919
    64  H    0.312949
    65  O   -0.620278
    66  H    0.476444
    67  H    0.452489
 Sum of Mulliken charges =   1.00000

 Dipole moment (field-independent basis, Debye):
    X=              4.8904    Y=              1.3259    Z=             -4.3613  Tot=              6.6854
 Quadrupole moment (field-independent basis, Debye-Ang):
   XX=            -93.7609   YY=           -178.0189   ZZ=           -118.8755
   XY=             -9.9084   XZ=            -22.4033   YZ=            -11.4549

 Normal termination of Gaussian 16 at Thu Jun  2 03:47:14 2022.
