 Gaussian 16, Revision C.01,
 Gaussian 16:  ES64L-G16RevC.01  3-Jul-2019

 ----------------------------------------------------------------------
 # B3LYP/6-31G* empiricaldispersion=gd3 guess=read geom=check nosymm in
 tegral(ultrafinegrid)
 ----------------------------------------------------------------------

 ----------------------------------------------------
 Candidate Structure: Conf:1 Charge calc in gas phase
 ----------------------------------------------------
 Structure from the checkpoint file:  "conf-1.chk"
 Charge =  1 Multiplicity = 1

                          Input orientation:
 ---------------------------------------------------------------------
 Center     Atomic      Atomic             Coordinates (Angstroms)
 Number     Number       Type             X           Y           Z
 ---------------------------------------------------------------------
      1          7           0       -9.471420   17.119153   11.251218
      2          1           0      -10.437944   16.795081   11.315637
      3          1           0       -9.017251   16.546881   10.536306
      4          6           0       -8.817750   16.900219   12.570585
      5          1           0       -9.430560   17.450101   13.290890
      6          6           0       -7.501469   17.727069   12.614737
      7          6           0       -8.845886   15.416157   12.997629
      8          1           0       -8.380347   14.792230   12.227669
      9          1           0       -8.264928   15.298971   13.920868
     10          8           0       -7.649846   18.947612   12.772379
     11          6           0      -10.273087   14.957327   13.220970
     12          6           0      -10.968372   14.262503   12.222335
     13          1           0      -10.458988   13.994208   11.298781
     14          6           0      -10.939873   15.272857   14.413095
     15          1           0      -10.409570   15.804485   15.200859
     16          6           0      -12.301675   13.889843   12.409841
     17          1           0      -12.824352   13.343960   11.629642
     18          6           0      -12.270072   14.900304   14.603780
     19          1           0      -12.770416   15.142770   15.536945
     20          6           0      -12.954930   14.209153   13.600758
     21          1           0      -13.989560   13.915184   13.750802
     22          7           0       -6.250056   17.206964   12.491343
     23          6           0       -5.072355   18.118294   12.636545
     24          1           0       -5.054734   18.513681   13.655236
     25          6           0       -5.209425   19.335505   11.714946
     26          6           0       -3.860180   17.213527   12.337644
     27          1           0       -3.579815   17.277794   11.279839
     28          1           0       -2.988602   17.515117   12.922691
     29          8           0       -5.276134   20.481494   12.156881
     30          6           0       -4.361405   15.801668   12.666922
     31          1           0       -3.780622   15.015779   12.177664
     32          1           0       -4.325963   15.627620   13.747951
     33          6           0       -5.819109   15.823136   12.197330
     34          1           0       -6.423306   15.095880   12.731693
     35          1           0       -5.905270   15.627070   11.119939
     36          7           0       -5.352392   19.063552   10.369347
     37          1           0       -5.350519   18.083844   10.102971
     38          6           0       -6.423009   19.828797    9.723071
     39          1           0       -6.658691   20.556171   10.473364
     40          6           0       -7.604858   18.866140    9.626672
     41          6           0       -6.146036   20.672692    8.479020
     42          1           0       -6.260892   20.099678    7.552985
     43          1           0       -5.108933   21.022824    8.525766
     44          8           0       -7.470200   17.712760    9.257476
     45          6           0       -7.113345   21.879529    8.511674
     46          1           0       -6.955613   22.478286    7.609745
     47          1           0       -8.150124   21.520966    8.458480
     48          6           0       -6.930210   22.799615    9.760198
     49          1           0       -6.922701   23.840970    9.419352
     50          1           0       -5.947244   22.637214   10.221311
     51          6           0       -8.006160   22.789542   10.864438
     52          1           0       -7.868712   23.662718   11.506587
     53          1           0       -9.013287   22.828080   10.440833
     54          7           0       -7.993326   21.592128   11.803257
     55          1           0       -8.568704   21.763961   12.633001
     56          1           0       -7.040008   21.342583   12.137837
     57          8           0       -8.745436   19.362595   10.126876
     58          1           0       -9.250995   18.534040   10.548518
     59          1           0       -8.369532   20.731017   11.351768
 ---------------------------------------------------------------------

 SCF Done:  E(RB3LYP) =  -1300.60964915     A.U. after    3 cycles

 Alpha  occ. eigenvalues --  -19.29200 -19.25400 -19.24239 -19.23512 -14.56523
 Alpha  occ. eigenvalues --  -14.49132 -14.47333 -14.46540 -10.43270 -10.41101
 Alpha  occ. eigenvalues --  -10.41094 -10.37647 -10.35002 -10.34893 -10.34540
 Alpha  occ. eigenvalues --  -10.33853 -10.31763 -10.30603 -10.30214 -10.30203
 Alpha  occ. eigenvalues --  -10.30093 -10.29916 -10.29025 -10.27929 -10.27792
 Alpha  occ. eigenvalues --  -10.27541 -10.27508 -10.27277  -1.20813  -1.16372
 Alpha  occ. eigenvalues --   -1.15116  -1.12273  -1.11159  -1.06123  -1.04064
 Alpha  occ. eigenvalues --   -1.02521  -0.94415  -0.92918  -0.91187  -0.89048
 Alpha  occ. eigenvalues --   -0.88002  -0.86484  -0.83108  -0.82231  -0.82083
 Alpha  occ. eigenvalues --   -0.77681  -0.77069  -0.74865  -0.72686  -0.71731
 Alpha  occ. eigenvalues --   -0.70822  -0.70385  -0.69304  -0.69149  -0.68686
 Alpha  occ. eigenvalues --   -0.67813  -0.67121  -0.63845  -0.63418  -0.62264
 Alpha  occ. eigenvalues --   -0.61267  -0.60682  -0.59993  -0.59468  -0.58717
 Alpha  occ. eigenvalues --   -0.58274  -0.57947  -0.56812  -0.55645  -0.55465
 Alpha  occ. eigenvalues --   -0.54901  -0.54701  -0.54554  -0.53884  -0.53692
 Alpha  occ. eigenvalues --   -0.53297  -0.53150  -0.52026  -0.51153  -0.50948
 Alpha  occ. eigenvalues --   -0.50527  -0.49930  -0.49089  -0.48891  -0.48761
 Alpha  occ. eigenvalues --   -0.48133  -0.46761  -0.46600  -0.46142  -0.45763
 Alpha  occ. eigenvalues --   -0.45249  -0.44919  -0.44772  -0.44494  -0.43088
 Alpha  occ. eigenvalues --   -0.42917  -0.42712  -0.40236  -0.39459  -0.38179
 Alpha  occ. eigenvalues --   -0.37097  -0.36826  -0.36129  -0.33719  -0.33201
 Alpha virt. eigenvalues --   -0.12953  -0.11284  -0.10487  -0.09206  -0.08932
 Alpha virt. eigenvalues --   -0.07275  -0.03805  -0.01468  -0.01439  -0.00887
 Alpha virt. eigenvalues --   -0.00252   0.00084   0.00343   0.01033   0.01544

 Mulliken charges:
               1
     1  N   -0.797286
     2  H    0.355931
     3  H    0.355627
     4  C   -0.040183
     5  H    0.192357
     6  C    0.604492
     7  C   -0.388060
     8  H    0.161846
     9  H    0.170405
    10  O   -0.576527
    11  C    0.151847
    12  C   -0.200935
    13  H    0.130361
    14  C   -0.178375
    15  H    0.133603
    16  C   -0.126112
    17  H    0.153250
    18  C   -0.127031
    19  H    0.152831
    20  C   -0.126267
    21  H    0.155346
    22  N   -0.471972
    23  C   -0.024527
    24  H    0.195826
    25  C    0.619162
    26  C   -0.328766
    27  H    0.169420
    28  H    0.194121
    29  O   -0.535960
    30  C   -0.298596
    31  H    0.181823
    32  H    0.175507
    33  C   -0.151510
    34  H    0.190095
    35  H    0.174687
    36  N   -0.576433
    37  H    0.346640
    38  C   -0.032379
    39  H    0.134701
    40  C    0.624922
    41  C   -0.285904
    42  H    0.176676
    43  H    0.179638
    44  O   -0.491348
    45  C   -0.294334
    46  H    0.179258
    47  H    0.161954
    48  C   -0.313344
    49  H    0.190995
    50  H    0.191834
    51  C   -0.181971
    52  H    0.205966
    53  H    0.207054
    54  N   -0.804646
    55  H    0.403521
    56  H    0.451753
    57  O   -0.641180
    58  H    0.468729
    59  H    0.451467
 Sum of Mulliken charges =   1.00000

 Dipole moment (field-independent basis, Debye):
    X=            -37.8847    Y=             91.2928    Z=             56.1206  Tot=            113.6624
 Quadrupole moment (field-independent basis, Debye-Ang):
   XX=            168.5694   YY=           1630.0813   ZZ=            506.1249
   XY=           -719.9985   XZ=           -448.8890   YZ=           1052.1053

 Normal termination of Gaussian 16 at Thu Jun  2 03:47:10 2022.
