 Gaussian 16, Revision C.01,
 Gaussian 16:  ES64L-G16RevC.01  3-Jul-2019

 ----------------------------------------------------------------------
 # B3LYP/6-31G* empiricaldispersion=gd3 guess=read geom=check nosymm in
 tegral(ultrafinegrid)
 ----------------------------------------------------------------------

 ------------------------------------------------------
 Candidate Structure: Conf:288 Charge calc in gas phase
 ------------------------------------------------------
 Structure from the checkpoint file:  "conf-288.chk"
 Charge =  1 Multiplicity = 1

                          Input orientation:
 ---------------------------------------------------------------------
 Center     Atomic      Atomic             Coordinates (Angstroms)
 Number     Number       Type             X           Y           Z
 ---------------------------------------------------------------------
      1          7           0       -3.064289   -2.518285    3.694497
      2          1           0       -2.871316   -3.321738    3.099146
      3          1           0       -2.163125   -2.217835    4.061324
      4          6           0       -3.656361   -1.463474    2.899346
      5          1           0       -3.800238   -0.570581    3.521289
      6          1           0       -4.660562   -1.775617    2.577919
      7          6           0       -2.878559   -1.089379    1.631159
      8          8           0       -2.032975   -1.851885    1.142409
      9          7           0       -3.173595    0.109300    1.066097
     10          1           0       -3.890866    0.682497    1.491595
     11          6           0       -2.739845    0.489127   -0.285018
     12          1           0       -2.706312   -0.433409   -0.881089
     13          6           0       -1.294391    1.034310   -0.230093
     14          6           0       -3.703720    1.493231   -0.927928
     15          1           0       -3.954514    2.273027   -0.193827
     16          1           0       -3.155207    2.012795   -1.719645
     17          8           0       -0.995355    2.191717   -0.549484
     18          6           0       -4.990634    0.889701   -1.526010
     19          1           0       -4.684902    0.149138   -2.280872
     20          6           0       -5.878848    0.172742   -0.497312
     21          1           0       -6.161383    0.852155    0.319007
     22          1           0       -6.806074   -0.171638   -0.967068
     23          1           0       -5.388168   -0.703096   -0.060776
     24          6           0       -5.783485    1.995055   -2.239608
     25          1           0       -6.118246    2.758049   -1.525323
     26          1           0       -5.178841    2.494806   -3.005183
     27          1           0       -6.673311    1.584219   -2.728037
     28          7           0       -0.363305    0.132474    0.182165
     29          1           0       -0.700188   -0.799591    0.455019
     30          6           0        0.990499    0.558406    0.532831
     31          1           0        0.923930    1.555805    0.988320
     32          6           0        1.723106    0.750548   -0.781558
     33          6           0        1.711685   -0.400231    1.503547
     34          1           0        1.907161   -1.338779    0.968898
     35          8           0        2.641343   -0.088628   -1.215133
     36          6           0        3.051533    0.215861    1.940944
     37          1           0        2.877230    1.107368    2.556756
     38          1           0        3.606688   -0.503174    2.550596
     39          1           0        3.684976    0.504996    1.097269
     40          6           0        0.834252   -0.698638    2.730351
     41          1           0        0.518760    0.231590    3.219387
     42          1           0        1.415437   -1.274532    3.457079
     43          1           0       -0.056546   -1.281584    2.482705
     44          7           0        1.444329    1.705729   -1.622831
     45          1           0        0.629316    2.309461   -1.434934
     46          6           0        2.196489    1.564694   -2.871646
     47          1           0        1.506616    1.226742   -3.658289
     48          6           0        3.104089    0.398410   -2.515126
     49          6           0        2.927606    2.829998   -3.338809
     50          1           0        3.648395    3.116484   -2.568524
     51          1           0        3.498361    2.544806   -4.230950
     52          8           0        4.007860   -0.118317   -3.070565
     53          6           0        1.952093    3.965480   -3.664682
     54          1           0        1.405633    4.261602   -2.756538
     55          1           0        1.199459    3.632790   -4.389333
     56          6           0        2.661160    5.198589   -4.237227
     57          1           0        3.371033    5.603537   -3.503508
     58          1           0        3.256170    4.901169   -5.113406
     59          6           0        1.677228    6.301243   -4.649612
     60          1           0        1.079244    6.593954   -3.776739
     61          1           0        2.250996    7.193730   -4.951823
     62          7           0        0.753151    5.805211   -5.677534
     63          1           0        0.008701    6.482130   -5.833025
     64          1           0        1.244543    5.721172   -6.567026
     65          8           0        4.601604    1.904133   -0.703504
     66          1           0        4.958949    2.671327   -0.230266
     67          1           0        5.377679    1.357335   -0.904527
 ---------------------------------------------------------------------

 SCF Done:  E(RB3LYP) =  -1396.68898534     A.U. after    1 cycles

 Alpha  occ. eigenvalues --  -19.37758 -19.31271 -19.28078 -19.25621 -19.23471
 Alpha  occ. eigenvalues --  -14.54962 -14.48832 -14.47835 -14.40100 -14.39148
 Alpha  occ. eigenvalues --  -10.48402 -10.48272 -10.41900 -10.40001 -10.39683
 Alpha  occ. eigenvalues --  -10.38592 -10.35121 -10.31987 -10.31536 -10.31446
 Alpha  occ. eigenvalues --  -10.28958 -10.28734 -10.28692 -10.28174 -10.28163
 Alpha  occ. eigenvalues --  -10.28162 -10.27402 -10.26061 -10.25316  -1.29933
 Alpha  occ. eigenvalues --   -1.21725  -1.17238  -1.14934  -1.13654  -1.12033
 Alpha  occ. eigenvalues --   -1.06041  -1.03994  -0.97251  -0.96135  -0.95635
 Alpha  occ. eigenvalues --   -0.92712  -0.90683  -0.88424  -0.86210  -0.84353
 Alpha  occ. eigenvalues --   -0.80921  -0.79715  -0.79141  -0.78818  -0.76832
 Alpha  occ. eigenvalues --   -0.76650  -0.74901  -0.72868  -0.71345  -0.70226
 Alpha  occ. eigenvalues --   -0.69347  -0.68224  -0.67284  -0.66285  -0.65770
 Alpha  occ. eigenvalues --   -0.65518  -0.64302  -0.63042  -0.62101  -0.61036
 Alpha  occ. eigenvalues --   -0.60314  -0.59623  -0.59238  -0.58421  -0.57655
 Alpha  occ. eigenvalues --   -0.57154  -0.56237  -0.55673  -0.55388  -0.54557
 Alpha  occ. eigenvalues --   -0.54401  -0.53926  -0.53480  -0.53295  -0.52713
 Alpha  occ. eigenvalues --   -0.52114  -0.51780  -0.51620  -0.50990  -0.50794
 Alpha  occ. eigenvalues --   -0.50221  -0.49923  -0.49589  -0.48867  -0.47994
 Alpha  occ. eigenvalues --   -0.47319  -0.46705  -0.46334  -0.46212  -0.45839
 Alpha  occ. eigenvalues --   -0.45683  -0.45351  -0.45187  -0.44848  -0.44343
 Alpha  occ. eigenvalues --   -0.43565  -0.42897  -0.42344  -0.42298  -0.41982
 Alpha  occ. eigenvalues --   -0.41707  -0.41377  -0.40372  -0.39425  -0.37492
 Alpha  occ. eigenvalues --   -0.36413  -0.32621  -0.31485
 Alpha virt. eigenvalues --   -0.19239  -0.14256  -0.11646  -0.09046  -0.06798
 Alpha virt. eigenvalues --   -0.03838  -0.02709  -0.02181  -0.01588  -0.01319
 Alpha virt. eigenvalues --   -0.00851  -0.00275   0.00204   0.01271   0.01759

 Mulliken charges:
               1
     1  N   -0.676277
     2  H    0.321497
     3  H    0.308109
     4  C   -0.250544
     5  H    0.170917
     6  H    0.197976
     7  C    0.593847
     8  O   -0.545846
     9  N   -0.587182
    10  H    0.350537
    11  C   -0.063043
    12  H    0.192623
    13  C    0.633232
    14  C   -0.289683
    15  H    0.149403
    16  H    0.169937
    17  O   -0.551185
    18  C   -0.077957
    19  H    0.134611
    20  C   -0.460735
    21  H    0.137456
    22  H    0.170017
    23  H    0.143623
    24  C   -0.446737
    25  H    0.150323
    26  H    0.148870
    27  H    0.162091
    28  N   -0.637032
    29  H    0.406993
    30  C   -0.040767
    31  H    0.204923
    32  C    0.710021
    33  C   -0.116305
    34  H    0.168624
    35  O   -0.451621
    36  C   -0.485058
    37  H    0.154667
    38  H    0.177848
    39  H    0.173240
    40  C   -0.482590
    41  H    0.152484
    42  H    0.177103
    43  H    0.175254
    44  N   -0.593729
    45  H    0.427286
    46  C   -0.060897
    47  H    0.239782
    48  C    0.639912
    49  C   -0.270301
    50  H    0.180271
    51  H    0.185702
    52  O   -0.371253
    53  C   -0.275917
    54  H    0.133452
    55  H    0.178202
    56  C   -0.260702
    57  H    0.140010
    58  H    0.142312
    59  C   -0.144341
    60  H    0.144158
    61  H    0.138724
    62  N   -0.723134
    63  H    0.312322
    64  H    0.303005
    65  O   -0.780957
    66  H    0.419941
    67  H    0.422487
 Sum of Mulliken charges =   1.00000

 Dipole moment (field-independent basis, Debye):
    X=              3.8531    Y=              9.1845    Z=             -4.6275  Tot=             10.9825
 Quadrupole moment (field-independent basis, Debye-Ang):
   XX=           -111.5015   YY=           -140.1444   ZZ=           -138.5637
   XY=             19.2209   XZ=             -7.0046   YZ=            -27.6748

 Normal termination of Gaussian 16 at Thu Jun  2 03:46:51 2022.
