 Gaussian 16, Revision C.01,
 Gaussian 16:  ES64L-G16RevC.01  3-Jul-2019

 ----------------------------------------------------------------------
 # B3LYP/6-31G* empiricaldispersion=gd3 guess=read geom=check nosymm in
 tegral(ultrafinegrid)
 ----------------------------------------------------------------------

 ------------------------------------------------------
 Candidate Structure: Conf:876 Charge calc in gas phase
 ------------------------------------------------------
 Structure from the checkpoint file:  "conf-876.chk"
 Charge =  1 Multiplicity = 1

                          Input orientation:
 ---------------------------------------------------------------------
 Center     Atomic      Atomic             Coordinates (Angstroms)
 Number     Number       Type             X           Y           Z
 ---------------------------------------------------------------------
      1          7           0       -4.035313    0.409268    2.723680
      2          1           0       -5.026797    0.319325    2.924219
      3          1           0       -3.574213    0.637684    3.600590
      4          6           0       -3.494198   -0.825283    2.149401
      5          1           0       -4.289497   -1.377658    1.636041
      6          1           0       -3.056607   -1.521788    2.876741
      7          6           0       -2.426313   -0.550223    1.090807
      8          8           0       -1.733535   -1.466757    0.622576
      9          7           0       -2.319127    0.738963    0.708777
     10          1           0       -2.960561    1.382154    1.170858
     11          6           0       -1.511200    1.163567   -0.432135
     12          1           0       -1.593907    0.374066   -1.188983
     13          6           0       -0.025023    1.228971   -0.031115
     14          6           0       -2.044726    2.482600   -1.000271
     15          1           0       -3.094886    2.302682   -1.267013
     16          1           0       -2.037151    3.240943   -0.207432
     17          8           0        0.609724    2.287615    0.074724
     18          6           0       -1.298658    3.043082   -2.231386
     19          1           0       -0.348341    3.452468   -1.871960
     20          6           0       -0.996227    1.977934   -3.296505
     21          1           0       -1.912239    1.460357   -3.609555
     22          1           0       -0.548590    2.431261   -4.188459
     23          1           0       -0.296559    1.214258   -2.929275
     24          6           0       -2.106540    4.201040   -2.833719
     25          1           0       -3.052410    3.842766   -3.258828
     26          1           0       -2.342320    4.961525   -2.080467
     27          1           0       -1.543380    4.690876   -3.636362
     28          7           0        0.554530    0.013060    0.159533
     29          1           0       -0.073587   -0.802391    0.173846
     30          6           0        1.922630   -0.098480    0.662688
     31          1           0        2.106617    0.746255    1.339700
     32          6           0        2.801562    0.116987   -0.567360
     33          6           0        2.197649   -1.413918    1.414483
     34          1           0        2.088968   -2.242375    0.703173
     35          8           0        3.318661   -0.930806   -1.141364
     36          6           0        3.634146   -1.413210    1.962493
     37          1           0        3.774150   -0.603039    2.688809
     38          1           0        3.836719   -2.356780    2.477411
     39          1           0        4.385850   -1.304377    1.173998
     40          6           0        1.183122   -1.600464    2.554412
     41          1           0        1.205183   -0.743853    3.239927
     42          1           0        1.443337   -2.493726    3.130541
     43          1           0        0.161163   -1.728272    2.188047
     44          7           0        2.906489    1.334221   -1.045831
     45          1           0        2.326930    2.018277   -0.528503
     46          6           0        3.260948    1.724015   -2.435982
     47          1           0        2.807319    0.981187   -3.106369
     48          6           0        4.779306    1.661078   -2.641893
     49          6           0        2.692282    3.113471   -2.733037
     50          1           0        1.691989    3.166943   -2.291017
     51          1           0        3.316898    3.865396   -2.237372
     52          8           0        5.516692    2.579197   -2.855423
     53          6           0        2.584154    3.391327   -4.235311
     54          1           0        1.945751    2.629512   -4.699471
     55          1           0        3.574576    3.324139   -4.703017
     56          6           0        1.974382    4.769230   -4.525910
     57          1           0        1.119460    4.945237   -3.855729
     58          1           0        2.705254    5.559264   -4.312134
     59          6           0        1.487503    4.887726   -5.975720
     60          1           0        1.269702    5.943518   -6.203383
     61          1           0        2.292917    4.580048   -6.654226
     62          7           0        0.341536    3.990161   -6.196313
     63          1           0       -0.505131    4.423283   -5.830311
     64          1           0        0.179974    3.860687   -7.193175
     65          8           0        5.201182    0.355862   -2.560719
     66          1           0        3.984364   -0.695619   -1.837407
     67          1           0        6.171500    0.319934   -2.677104
 ---------------------------------------------------------------------

 SCF Done:  E(RB3LYP) =  -1396.71720919     A.U. after    1 cycles

 Alpha  occ. eigenvalues --  -19.36760 -19.35451 -19.29018 -19.25092 -19.22123
 Alpha  occ. eigenvalues --  -14.54391 -14.48259 -14.46226 -14.42577 -14.39515
 Alpha  occ. eigenvalues --  -10.48371 -10.46908 -10.41251 -10.39292 -10.38788
 Alpha  occ. eigenvalues --  -10.37708 -10.34203 -10.31852 -10.31410 -10.30636
 Alpha  occ. eigenvalues --  -10.28745 -10.28361 -10.28294 -10.27942 -10.27797
 Alpha  occ. eigenvalues --  -10.27491 -10.26746 -10.26060 -10.25714  -1.27281
 Alpha  occ. eigenvalues --   -1.25178  -1.16944  -1.16697  -1.13638  -1.11716
 Alpha  occ. eigenvalues --   -1.05333  -1.03124  -0.98576  -0.96081  -0.94882
 Alpha  occ. eigenvalues --   -0.92412  -0.90453  -0.87577  -0.85655  -0.84178
 Alpha  occ. eigenvalues --   -0.81308  -0.79769  -0.79222  -0.78701  -0.77030
 Alpha  occ. eigenvalues --   -0.76806  -0.74696  -0.73195  -0.71766  -0.70171
 Alpha  occ. eigenvalues --   -0.69473  -0.67768  -0.67208  -0.66705  -0.65712
 Alpha  occ. eigenvalues --   -0.65092  -0.63667  -0.63392  -0.63024  -0.60857
 Alpha  occ. eigenvalues --   -0.60181  -0.60070  -0.58610  -0.58164  -0.57235
 Alpha  occ. eigenvalues --   -0.57102  -0.56629  -0.55909  -0.55588  -0.54757
 Alpha  occ. eigenvalues --   -0.54632  -0.54118  -0.53814  -0.53130  -0.52518
 Alpha  occ. eigenvalues --   -0.52054  -0.51944  -0.51286  -0.50590  -0.50514
 Alpha  occ. eigenvalues --   -0.50039  -0.49665  -0.49013  -0.48454  -0.47635
 Alpha  occ. eigenvalues --   -0.47331  -0.47276  -0.46610  -0.46377  -0.45977
 Alpha  occ. eigenvalues --   -0.45792  -0.45413  -0.45394  -0.44474  -0.44413
 Alpha  occ. eigenvalues --   -0.43267  -0.42410  -0.42320  -0.41805  -0.41664
 Alpha  occ. eigenvalues --   -0.41548  -0.41494  -0.39046  -0.38768  -0.37310
 Alpha  occ. eigenvalues --   -0.35564  -0.34220  -0.31800
 Alpha virt. eigenvalues --   -0.17802  -0.14390  -0.11045  -0.07990  -0.07166
 Alpha virt. eigenvalues --   -0.04101  -0.02536  -0.01970  -0.01764  -0.00149
 Alpha virt. eigenvalues --    0.00191   0.00535   0.01286   0.01805   0.02326

 Mulliken charges:
               1
     1  N   -0.748357
     2  H    0.335264
     3  H    0.326818
     4  C   -0.237419
     5  H    0.201141
     6  H    0.182562
     7  C    0.609769
     8  O   -0.556975
     9  N   -0.597802
    10  H    0.374621
    11  C   -0.052390
    12  H    0.190953
    13  C    0.644336
    14  C   -0.285969
    15  H    0.156254
    16  H    0.159738
    17  O   -0.554059
    18  C   -0.097860
    19  H    0.162338
    20  C   -0.484249
    21  H    0.154132
    22  H    0.192572
    23  H    0.109820
    24  C   -0.456490
    25  H    0.153020
    26  H    0.155850
    27  H    0.145860
    28  N   -0.636307
    29  H    0.406020
    30  C   -0.036323
    31  H    0.201206
    32  C    0.628975
    33  C   -0.112044
    34  H    0.168647
    35  O   -0.551071
    36  C   -0.465037
    37  H    0.160250
    38  H    0.182705
    39  H    0.147235
    40  C   -0.477287
    41  H    0.150268
    42  H    0.174228
    43  H    0.182722
    44  N   -0.580729
    45  H    0.427142
    46  C   -0.082657
    47  H    0.210892
    48  C    0.642605
    49  C   -0.329280
    50  H    0.184511
    51  H    0.186557
    52  O   -0.389306
    53  C   -0.279284
    54  H    0.173952
    55  H    0.156402
    56  C   -0.259724
    57  H    0.138294
    58  H    0.151573
    59  C   -0.155812
    60  H    0.141210
    61  H    0.149985
    62  N   -0.728049
    63  H    0.309412
    64  H    0.314555
    65  O   -0.622781
    66  H    0.480059
    67  H    0.452812
 Sum of Mulliken charges =   1.00000

 Dipole moment (field-independent basis, Debye):
    X=              5.6732    Y=              4.2995    Z=             -3.8907  Tot=              8.1123
 Quadrupole moment (field-independent basis, Debye-Ang):
   XX=           -100.7042   YY=           -157.6372   ZZ=           -119.7135
   XY=             -6.8745   XZ=            -29.6113   YZ=            -26.4474

 Normal termination of Gaussian 16 at Thu Jun  2 03:54:57 2022.
