 Gaussian 16, Revision C.01,
 Gaussian 16:  ES64L-G16RevC.01  3-Jul-2019

 ----------------------------------------------------------------------
 # B3LYP/6-31G* empiricaldispersion=gd3 guess=read geom=check nosymm in
 tegral(ultrafinegrid)
 ----------------------------------------------------------------------

 ------------------------------------------------------
 Candidate Structure: Conf:234 Charge calc in gas phase
 ------------------------------------------------------
 Structure from the checkpoint file:  "conf-234.chk"
 Charge =  1 Multiplicity = 1

                          Input orientation:
 ---------------------------------------------------------------------
 Center     Atomic      Atomic             Coordinates (Angstroms)
 Number     Number       Type             X           Y           Z
 ---------------------------------------------------------------------
      1          7           0       -6.902799    4.688485    2.547996
      2          1           0       -7.240459    4.906994    3.489367
      3          1           0       -7.541152    5.107294    1.865997
      4          1           0       -5.909707    5.074354    2.433915
      5          6           0       -6.667070    3.206338    2.320543
      6          1           0       -7.092003    2.660683    3.166048
      7          6           0       -5.114219    3.113441    2.318678
      8          6           0       -7.281823    2.752007    0.997322
      9          1           0       -7.059013    1.694416    0.831009
     10          1           0       -8.370591    2.866129    1.004826
     11          1           0       -6.860702    3.316121    0.157843
     12          8           0       -4.481058    4.183241    2.302779
     13          7           0       -4.593680    1.897245    2.321565
     14          1           0       -5.161916    1.063377    2.154348
     15          6           0       -3.161917    1.627641    2.163645
     16          1           0       -2.796165    2.222332    1.318072
     17          6           0       -3.099466    0.148893    1.716713
     18          6           0       -2.337173    2.024983    3.417766
     19          1           0       -2.546973    1.318063    4.228648
     20          1           0       -2.708508    3.006499    3.735340
     21          8           0       -4.130191   -0.426394    1.345197
     22          6           0       -0.862802    2.099955    3.141754
     23          6           0        0.124906    1.363128    3.756428
     24          1           0        0.039856    0.600691    4.517512
     25          6           0       -0.203600    2.942288    2.166677
     26          6           0        1.186829    2.652586    2.243520
     27          6           0       -0.643010    3.909362    1.242736
     28          1           0       -1.691911    4.195105    1.198731
     29          7           0        1.350468    1.700130    3.234087
     30          1           0        2.218525    1.244050    3.467127
     31          6           0        1.664424    4.206149    0.495362
     32          1           0        2.393702    4.674527   -0.158748
     33          6           0        2.129487    3.280509    1.423104
     34          1           0        3.194769    3.081550    1.498006
     35          6           0        0.291646    4.520269    0.413032
     36          1           0       -0.036386    5.267606   -0.304339
     37          7           0       -1.876507   -0.397768    1.710359
     38          1           0       -1.084950    0.131590    2.077802
     39          6           0       -1.535351   -1.622919    1.011154
     40          1           0       -2.272104   -2.403402    1.228034
     41          6           0       -0.142882   -2.041368    1.512810
     42          6           0       -1.552923   -1.299741   -0.529738
     43          1           0       -1.118181   -0.299769   -0.646167
     44          1           0       -2.598380   -1.273110   -0.845269
     45          8           0        0.495806   -1.343001    2.292685
     46          8           0       -0.857188   -2.228344   -1.354613
     47          1           0        0.089112   -1.958236   -1.218038
     48          7           0        0.372924   -3.184187    0.961495
     49          1           0       -0.178359   -3.560046    0.196212
     50          6           0        1.823270   -3.213341    0.729077
     51          1           0        2.338495   -3.411569    1.675409
     52          6           0        2.233240   -1.823942    0.195976
     53          6           0        2.172312   -4.326172   -0.289280
     54          1           0        1.525611   -4.161392   -1.167928
     55          8           0        1.477808   -1.204222   -0.573868
     56          6           0        3.635174   -4.241321   -0.752386
     57          1           0        4.318241   -4.353892    0.099316
     58          1           0        3.852399   -5.055639   -1.450815
     59          1           0        3.868144   -3.292880   -1.248034
     60          6           0        1.850573   -5.711494    0.288786
     61          1           0        2.491815   -5.921692    1.153123
     62          1           0        2.032177   -6.489579   -0.459655
     63          1           0        0.809801   -5.790987    0.618186
     64          7           0        3.411629   -1.327758    0.579648
     65          1           0        3.981371   -1.857816    1.224748
     66          6           0        3.824713    0.032906    0.248085
     67          1           0        3.147603    0.717042    0.773828
     68          6           0        3.703355    0.334611   -1.258580
     69          6           0        5.269410    0.282552    0.693604
     70          1           0        5.539269    1.320847    0.476083
     71          1           0        5.955682   -0.375310    0.150050
     72          1           0        5.388417    0.112074    1.770631
     73          8           0        3.869590   -0.550288   -2.127801
     74          7           0        3.485838    1.623773   -1.476373
     75          1           0        3.612719    2.296275   -0.693967
     76          6           0        3.807710    2.396549   -2.669711
     77          1           0        4.478002    1.822080   -3.315401
     78          6           0        4.547454    3.700030   -2.129091
     79          6           0        2.548360    2.846625   -3.423405
     80          1           0        2.018547    3.575484   -2.796676
     81          1           0        2.874893    3.384905   -4.319406
     82          8           0        4.990127    4.446920   -3.004575
     83          6           0        1.562563    1.723786   -3.755382
     84          1           0        1.293192    1.201168   -2.827073
     85          1           0        0.635032    2.157944   -4.157779
     86          6           0        2.084789    0.687743   -4.757173
     87          1           0        2.995392    0.204785   -4.397328
     88          1           0        2.314315    1.141132   -5.725725
     89          7           0        1.052969   -0.346160   -4.988965
     90          1           0        0.217737    0.000058   -5.444984
     91          7           0        1.796482   -1.811695   -3.340685
     92          1           0        1.648357   -2.687178   -2.861779
     93          1           0        2.569429   -1.223696   -2.965442
     94          7           0       -0.277991   -2.147860   -4.290393
     95          1           0       -0.680415   -2.434695   -3.395535
     96          1           0       -0.960868   -1.862318   -4.979388
     97          6           0        0.865218   -1.407861   -4.192094
     98          8           0        4.520679    3.813588   -0.860414
 ---------------------------------------------------------------------

 SCF Done:  E(RB3LYP) =  -2360.13249838     A.U. after    3 cycles

 Alpha  occ. eigenvalues --  -19.27998 -19.24672 -19.22473 -19.21990 -19.21704
 Alpha  occ. eigenvalues --  -19.17792 -19.09126 -19.07669 -14.61048 -14.50156
 Alpha  occ. eigenvalues --  -14.47761 -14.46563 -14.45710 -14.45686 -14.45628
 Alpha  occ. eigenvalues --  -14.44840 -14.44648 -14.39244 -10.44466 -10.43200
 Alpha  occ. eigenvalues --  -10.42291 -10.39504 -10.38487 -10.38421 -10.34901
 Alpha  occ. eigenvalues --  -10.34713 -10.34456 -10.33286 -10.33237 -10.32941
 Alpha  occ. eigenvalues --  -10.30718 -10.30489 -10.29615 -10.29189 -10.29119
 Alpha  occ. eigenvalues --  -10.28153 -10.26714 -10.25986 -10.25938 -10.25844
 Alpha  occ. eigenvalues --  -10.25290 -10.25205 -10.25014 -10.24783 -10.24126
 Alpha  occ. eigenvalues --  -10.24058 -10.23781 -10.23113 -10.22585  -1.20353
 Alpha  occ. eigenvalues --   -1.15005  -1.14804  -1.14173  -1.12894  -1.11933
 Alpha  occ. eigenvalues --   -1.11549  -1.08608  -1.06874  -1.04650  -1.02757
 Alpha  occ. eigenvalues --   -1.01985  -1.01951  -1.01898  -1.01454  -0.99401
 Alpha  occ. eigenvalues --   -0.96774  -0.94495  -0.93117  -0.90485  -0.89973
 Alpha  occ. eigenvalues --   -0.89178  -0.86112  -0.85723  -0.84804  -0.84247
 Alpha  occ. eigenvalues --   -0.81961  -0.79676  -0.79476  -0.79058  -0.78818
 Alpha  occ. eigenvalues --   -0.77067  -0.76505  -0.75101  -0.75005  -0.74788
 Alpha  occ. eigenvalues --   -0.73738  -0.72800  -0.71635  -0.71002  -0.69517
 Alpha  occ. eigenvalues --   -0.68971  -0.68565  -0.68301  -0.67661  -0.67427
 Alpha  occ. eigenvalues --   -0.65880  -0.65535  -0.65431  -0.64628  -0.64350
 Alpha  occ. eigenvalues --   -0.63311  -0.62258  -0.61970  -0.61289  -0.60813
 Alpha  occ. eigenvalues --   -0.60495  -0.60135  -0.59916  -0.59362  -0.59205
 Alpha  occ. eigenvalues --   -0.58410  -0.57494  -0.56979  -0.56681  -0.56336
 Alpha  occ. eigenvalues --   -0.55544  -0.55318  -0.55182  -0.54769  -0.54442
 Alpha  occ. eigenvalues --   -0.53567  -0.53471  -0.53110  -0.53065  -0.53035
 Alpha  occ. eigenvalues --   -0.52737  -0.52269  -0.52097  -0.51673  -0.51241
 Alpha  occ. eigenvalues --   -0.50862  -0.50685  -0.50224  -0.49827  -0.49604
 Alpha  occ. eigenvalues --   -0.49094  -0.48750  -0.48733  -0.48426  -0.47671
 Alpha  occ. eigenvalues --   -0.47433  -0.47313  -0.47023  -0.46899  -0.46641
 Alpha  occ. eigenvalues --   -0.46566  -0.45839  -0.45200  -0.44800  -0.44321
 Alpha  occ. eigenvalues --   -0.44104  -0.43802  -0.43490  -0.43088  -0.42637
 Alpha  occ. eigenvalues --   -0.42584  -0.42425  -0.41966  -0.41004  -0.40395
 Alpha  occ. eigenvalues --   -0.40134  -0.39799  -0.39561  -0.39369  -0.39053
 Alpha  occ. eigenvalues --   -0.38857  -0.38181  -0.38033  -0.36846  -0.36507
 Alpha  occ. eigenvalues --   -0.36003  -0.35844  -0.35578  -0.35263  -0.35049
 Alpha  occ. eigenvalues --   -0.34369  -0.33596  -0.32067  -0.30714  -0.28357
 Alpha  occ. eigenvalues --   -0.26904  -0.24028  -0.23984  -0.21644
 Alpha virt. eigenvalues --   -0.13258  -0.12188  -0.09341  -0.08477  -0.08316
 Alpha virt. eigenvalues --   -0.07288  -0.07223  -0.06469  -0.05456  -0.05095
 Alpha virt. eigenvalues --   -0.04037  -0.03385  -0.02430  -0.02372  -0.01858

 Mulliken charges:
               1
     1  N   -0.756875
     2  H    0.419761
     3  H    0.415903
     4  H    0.438026
     5  C   -0.106372
     6  H    0.225954
     7  C    0.649303
     8  C   -0.485457
     9  H    0.222039
    10  H    0.197529
    11  H    0.196802
    12  O   -0.536423
    13  N   -0.608602
    14  H    0.371880
    15  C   -0.060671
    16  H    0.211219
    17  C    0.611041
    18  C   -0.350514
    19  H    0.159220
    20  H    0.183267
    21  O   -0.557134
    22  C   -0.021707
    23  C    0.027231
    24  H    0.165549
    25  C    0.097144
    26  C    0.314979
    27  C   -0.228586
    28  H    0.123274
    29  N   -0.675546
    30  H    0.336615
    31  C   -0.158594
    32  H    0.199002
    33  C   -0.195031
    34  H    0.163446
    35  C   -0.147216
    36  H    0.129071
    37  N   -0.634071
    38  H    0.404707
    39  C   -0.074981
    40  H    0.197526
    41  C    0.607812
    42  C   -0.059691
    43  H    0.165487
    44  H    0.177023
    45  O   -0.522679
    46  O   -0.685834
    47  H    0.447693
    48  N   -0.609332
    49  H    0.346004
    50  C   -0.033331
    51  H    0.169182
    52  C    0.662553
    53  C   -0.120469
    54  H    0.114707
    55  O   -0.591277
    56  C   -0.484359
    57  H    0.150013
    58  H    0.168692
    59  H    0.187734
    60  C   -0.446775
    61  H    0.160550
    62  H    0.165869
    63  H    0.159963
    64  N   -0.592390
    65  H    0.344188
    66  C   -0.046210
    67  H    0.177484
    68  C    0.647924
    69  C   -0.500746
    70  H    0.220685
    71  H    0.180051
    72  H    0.148402
    73  O   -0.614251
    74  N   -0.588613
    75  H    0.383260
    76  C   -0.103607
    77  H    0.154369
    78  C    0.594054
    79  C   -0.260030
    80  H    0.147292
    81  H    0.170670
    82  O   -0.556389
    83  C   -0.273502
    84  H    0.155656
    85  H    0.120938
    86  C   -0.190556
    87  H    0.210581
    88  H    0.181969
    89  N   -0.571838
    90  H    0.340112
    91  N   -0.786275
    92  H    0.362066
    93  H    0.469229
    94  N   -0.777294
    95  H    0.388459
    96  H    0.346696
    97  C    0.751193
    98  O   -0.625824
 Sum of Mulliken charges =   1.00000

 Dipole moment (field-independent basis, Debye):
    X=            -31.5046    Y=             -0.8398    Z=              6.9079  Tot=             32.2640
 Quadrupole moment (field-independent basis, Debye-Ang):
   XX=           -126.6975   YY=           -250.4005   ZZ=           -218.8548
   XY=           -175.7015   XZ=            -25.4008   YZ=             56.3752

 Normal termination of Gaussian 16 at Thu Jun 23 19:23:07 2022.
