 Gaussian 16, Revision C.01,
 Gaussian 16:  ES64L-G16RevC.01  3-Jul-2019

 ----------------------------------------------------------------------
 # B3LYP/6-31G* empiricaldispersion=gd3 guess=read geom=check nosymm in
 tegral(ultrafinegrid)
 ----------------------------------------------------------------------

 ------------------------------------------------------
 Candidate Structure: Conf:962 Charge calc in gas phase
 ------------------------------------------------------
 Structure from the checkpoint file:  "conf-962.chk"
 Charge =  1 Multiplicity = 1

                          Input orientation:
 ---------------------------------------------------------------------
 Center     Atomic      Atomic             Coordinates (Angstroms)
 Number     Number       Type             X           Y           Z
 ---------------------------------------------------------------------
      1          7           0       -9.341728    2.284283    1.095100
      2          1           0       -9.508946    2.259509    2.121227
      3          1           0      -10.214188    2.072707    0.605075
      4          1           0       -8.991512    3.240191    0.850342
      5          6           0       -8.195153    1.382134    0.697596
      6          1           0       -8.186169    0.542272    1.394611
      7          6           0       -6.971793    2.312164    0.888019
      8          6           0       -8.342619    0.932856   -0.753424
      9          1           0       -7.485500    0.311704   -1.028563
     10          1           0       -9.250501    0.337213   -0.899145
     11          1           0       -8.360582    1.798227   -1.424075
     12          8           0       -7.145709    3.518307    0.675756
     13          7           0       -5.848610    1.728201    1.291979
     14          1           0       -5.742400    0.714531    1.355637
     15          6           0       -4.629903    2.432409    1.668501
     16          1           0       -4.519215    3.314482    1.032340
     17          6           0       -3.493020    1.411180    1.457418
     18          6           0       -4.668154    2.859666    3.170130
     19          1           0       -3.757061    3.432047    3.375823
     20          1           0       -4.613207    1.948893    3.778907
     21          8           0       -3.762654    0.203710    1.444460
     22          6           0       -5.891931    3.650270    3.520308
     23          6           0       -6.043747    5.012104    3.443686
     24          1           0       -5.307608    5.773411    3.224699
     25          6           0       -7.193674    3.118177    3.832294
     26          6           0       -8.097569    4.221333    3.901993
     27          6           0       -7.693562    1.820055    4.032430
     28          1           0       -7.023420    0.965203    4.007358
     29          7           0       -7.361074    5.358417    3.668320
     30          1           0       -7.713648    6.302974    3.705630
     31          6           0       -9.937825    2.751923    4.313899
     32          1           0      -10.991664    2.589076    4.520911
     33          6           0       -9.465824    4.053501    4.138081
     34          1           0      -10.138727    4.904782    4.191356
     35          6           0       -9.056824    1.643088    4.268126
     36          1           0       -9.448612    0.645562    4.447071
     37          7           0       -2.269953    1.934485    1.372440
     38          1           0       -2.107978    2.939178    1.370836
     39          6           0       -1.047235    1.159028    1.231490
     40          1           0       -1.042653    0.338742    1.958813
     41          6           0        0.093233    2.154406    1.503974
     42          6           0       -0.895635    0.570265   -0.197535
     43          1           0       -1.835035    0.064149   -0.441886
     44          1           0       -0.098381   -0.182436   -0.180110
     45          8           0       -0.136595    3.358920    1.627049
     46          8           0       -0.676246    1.577019   -1.161556
     47          1           0        0.281632    1.776246   -1.157911
     48          7           0        1.331117    1.611627    1.534272
     49          1           0        1.436924    0.615135    1.324583
     50          6           0        2.510953    2.439476    1.320686
     51          1           0        2.155656    3.475772    1.293716
     52          6           0        3.009564    2.113877   -0.107712
     53          6           0        3.526406    2.294842    2.478719
     54          1           0        4.405816    2.906727    2.222896
     55          8           0        2.194878    1.848632   -1.000862
     56          6           0        2.929277    2.882864    3.765317
     57          1           0        2.030932    2.327431    4.054957
     58          1           0        3.649695    2.819662    4.588025
     59          1           0        2.647214    3.933377    3.634449
     60          6           0        3.969437    0.839199    2.699676
     61          1           0        3.120565    0.219899    3.006789
     62          1           0        4.729043    0.787092    3.487045
     63          1           0        4.380684    0.385069    1.793840
     64          7           0        4.342766    2.079309   -0.346891
     65          1           0        4.971087    2.173597    0.439164
     66          6           0        4.896893    1.414392   -1.537673
     67          1           0        4.172902    1.580870   -2.340490
     68          6           0        5.000557   -0.119724   -1.278590
     69          6           0        6.252800    2.004034   -1.904955
     70          1           0        6.658884    1.485684   -2.775976
     71          1           0        6.971954    1.870783   -1.089202
     72          1           0        6.155443    3.070387   -2.127851
     73          8           0        6.041109   -0.743791   -1.484685
     74          7           0        3.878924   -0.675199   -0.767713
     75          1           0        3.024067   -0.136266   -0.685552
     76          6           0        3.786753   -2.019849   -0.230788
     77          1           0        3.827076   -2.736920   -1.059379
     78          6           0        2.414142   -2.173907    0.483268
     79          6           0        4.916629   -2.352048    0.792267
     80          1           0        5.518977   -1.455682    0.954401
     81          1           0        4.463455   -2.611617    1.755614
     82          8           0        2.078027   -3.367486    0.757346
     83          6           0        5.856739   -3.484510    0.368662
     84          1           0        6.363197   -3.193697   -0.559884
     85          1           0        6.636986   -3.591211    1.131822
     86          6           0        5.174024   -4.857804    0.203227
     87          1           0        4.271659   -4.919389    0.814413
     88          1           0        5.847527   -5.661190    0.523365
     89          7           0        4.801249   -5.151456   -1.192475
     90          1           0        5.548455   -5.087956   -1.872029
     91          7           0        2.484577   -5.225274   -0.976450
     92          1           0        1.615297   -5.607952   -1.323410
     93          1           0        2.399821   -4.447814   -0.207882
     94          7           0        3.529487   -5.989502   -2.921303
     95          1           0        2.639187   -6.104374   -3.381837
     96          1           0        4.300017   -6.535840   -3.277800
     97          6           0        3.585012   -5.454350   -1.671107
     98          8           0        1.784495   -1.137490    0.782785
 ---------------------------------------------------------------------

 SCF Done:  E(RB3LYP) =  -2360.16983109     A.U. after    2 cycles

 Alpha  occ. eigenvalues --  -19.23730 -19.18928 -19.18175 -19.17084 -19.16263
 Alpha  occ. eigenvalues --  -19.16043 -19.14753 -19.14684 -14.57128 -14.47343
 Alpha  occ. eigenvalues --  -14.47059 -14.47003 -14.46625 -14.43698 -14.42450
 Alpha  occ. eigenvalues --  -14.42362 -14.40075 -14.39405 -10.42371 -10.40906
 Alpha  occ. eigenvalues --  -10.38417 -10.36016 -10.35104 -10.33864 -10.32999
 Alpha  occ. eigenvalues --  -10.32691 -10.32423 -10.31866 -10.31591 -10.30983
 Alpha  occ. eigenvalues --  -10.30193 -10.29300 -10.28960 -10.28886 -10.28674
 Alpha  occ. eigenvalues --  -10.28522 -10.28445 -10.28402 -10.28261 -10.28061
 Alpha  occ. eigenvalues --  -10.27189 -10.27029 -10.26451 -10.25235 -10.24736
 Alpha  occ. eigenvalues --  -10.23694 -10.22819 -10.22309 -10.22160  -1.16369
 Alpha  occ. eigenvalues --   -1.11401  -1.10826  -1.10784  -1.10245  -1.08760
 Alpha  occ. eigenvalues --   -1.08159  -1.07413  -1.07333  -1.04028  -1.03634
 Alpha  occ. eigenvalues --   -1.00471  -0.99842  -0.98974  -0.98711  -0.97963
 Alpha  occ. eigenvalues --   -0.97372  -0.95972  -0.94107  -0.91162  -0.89500
 Alpha  occ. eigenvalues --   -0.86170  -0.85732  -0.85507  -0.83557  -0.82154
 Alpha  occ. eigenvalues --   -0.81921  -0.80451  -0.79707  -0.78975  -0.75963
 Alpha  occ. eigenvalues --   -0.75008  -0.74671  -0.73373  -0.72107  -0.71827
 Alpha  occ. eigenvalues --   -0.71352  -0.70378  -0.69949  -0.69400  -0.69045
 Alpha  occ. eigenvalues --   -0.68525  -0.68062  -0.66333  -0.66008  -0.65466
 Alpha  occ. eigenvalues --   -0.65380  -0.64581  -0.63958  -0.63226  -0.62710
 Alpha  occ. eigenvalues --   -0.62325  -0.61629  -0.60737  -0.60541  -0.60209
 Alpha  occ. eigenvalues --   -0.59093  -0.58491  -0.58455  -0.57208  -0.56973
 Alpha  occ. eigenvalues --   -0.56200  -0.55826  -0.55497  -0.55042  -0.54268
 Alpha  occ. eigenvalues --   -0.53993  -0.53448  -0.53292  -0.53057  -0.52856
 Alpha  occ. eigenvalues --   -0.52569  -0.52378  -0.52220  -0.51856  -0.51514
 Alpha  occ. eigenvalues --   -0.51269  -0.50631  -0.50283  -0.50131  -0.49871
 Alpha  occ. eigenvalues --   -0.49543  -0.49162  -0.48877  -0.48658  -0.48461
 Alpha  occ. eigenvalues --   -0.48137  -0.47911  -0.47533  -0.47106  -0.46279
 Alpha  occ. eigenvalues --   -0.46151  -0.45957  -0.45591  -0.45075  -0.44992
 Alpha  occ. eigenvalues --   -0.44387  -0.44157  -0.43882  -0.43718  -0.43648
 Alpha  occ. eigenvalues --   -0.43163  -0.42933  -0.42845  -0.42787  -0.42507
 Alpha  occ. eigenvalues --   -0.42100  -0.41657  -0.41137  -0.40644  -0.39560
 Alpha  occ. eigenvalues --   -0.39372  -0.39206  -0.38688  -0.38536  -0.38251
 Alpha  occ. eigenvalues --   -0.37554  -0.37473  -0.36657  -0.35874  -0.34524
 Alpha  occ. eigenvalues --   -0.33652  -0.33380  -0.32903  -0.32523  -0.31905
 Alpha  occ. eigenvalues --   -0.31373  -0.30704  -0.30273  -0.29812  -0.29572
 Alpha  occ. eigenvalues --   -0.29423  -0.29051  -0.28657  -0.28293
 Alpha virt. eigenvalues --   -0.11378  -0.10316  -0.07988  -0.07183  -0.07029
 Alpha virt. eigenvalues --   -0.05629  -0.05248  -0.03719  -0.02862  -0.02270
 Alpha virt. eigenvalues --   -0.01827  -0.01591  -0.01336  -0.00348   0.00062

 Mulliken charges:
               1
     1  N   -0.761725
     2  H    0.421576
     3  H    0.398594
     4  H    0.419320
     5  C   -0.102454
     6  H    0.202427
     7  C    0.667823
     8  C   -0.475007
     9  H    0.213717
    10  H    0.181069
    11  H    0.197213
    12  O   -0.543464
    13  N   -0.603860
    14  H    0.363305
    15  C   -0.061334
    16  H    0.192539
    17  C    0.642074
    18  C   -0.363327
    19  H    0.180447
    20  H    0.171989
    21  O   -0.558852
    22  C    0.083296
    23  C    0.033687
    24  H    0.179363
    25  C    0.062715
    26  C    0.326916
    27  C   -0.224134
    28  H    0.149652
    29  N   -0.683277
    30  H    0.345934
    31  C   -0.203196
    32  H    0.154666
    33  C   -0.171536
    34  H    0.154135
    35  C   -0.197811
    36  H    0.150579
    37  N   -0.608264
    38  H    0.362082
    39  C   -0.061868
    40  H    0.185342
    41  C    0.601358
    42  C   -0.078992
    43  H    0.156783
    44  H    0.177578
    45  O   -0.544047
    46  O   -0.655539
    47  H    0.439031
    48  N   -0.638836
    49  H    0.420210
    50  C   -0.070170
    51  H    0.205969
    52  C    0.610633
    53  C   -0.104457
    54  H    0.122921
    55  O   -0.548514
    56  C   -0.445802
    57  H    0.160244
    58  H    0.148744
    59  H    0.153612
    60  C   -0.475845
    61  H    0.173833
    62  H    0.149377
    63  H    0.147716
    64  N   -0.584183
    65  H    0.341226
    66  C   -0.077105
    67  H    0.200944
    68  C    0.605070
    69  C   -0.446980
    70  H    0.179572
    71  H    0.152939
    72  H    0.158146
    73  O   -0.538342
    74  N   -0.644769
    75  H    0.374532
    76  C   -0.003603
    77  H    0.134327
    78  C    0.582067
    79  C   -0.278184
    80  H    0.164955
    81  H    0.163976
    82  O   -0.614913
    83  C   -0.291720
    84  H    0.175733
    85  H    0.151890
    86  C   -0.158340
    87  H    0.205658
    88  H    0.171526
    89  N   -0.594637
    90  H    0.351709
    91  N   -0.780335
    92  H    0.343304
    93  H    0.455812
    94  N   -0.767716
    95  H    0.364187
    96  H    0.364094
    97  C    0.774365
    98  O   -0.561364
 Sum of Mulliken charges =   1.00000

 Dipole moment (field-independent basis, Debye):
    X=            -21.9844    Y=             -2.2413    Z=              1.6627  Tot=             22.1608
 Quadrupole moment (field-independent basis, Debye-Ang):
   XX=             73.3490   YY=           -158.1296   ZZ=           -255.3147
   XY=           -125.3638   XZ=            -59.4573   YZ=             70.1782

 Normal termination of Gaussian 16 at Thu Jun 23 19:21:38 2022.
