 Gaussian 16, Revision C.01,
 Gaussian 16:  ES64L-G16RevC.01  3-Jul-2019

 ----------------------------------------------------------------------
 # B3LYP/6-31G* empiricaldispersion=gd3 guess=read geom=check nosymm in
 tegral(ultrafinegrid)
 ----------------------------------------------------------------------

 ------------------------------------------------------
 Candidate Structure: Conf:474 Charge calc in gas phase
 ------------------------------------------------------
 Structure from the checkpoint file:  "conf-474.chk"
 Charge =  1 Multiplicity = 1

                          Input orientation:
 ---------------------------------------------------------------------
 Center     Atomic      Atomic             Coordinates (Angstroms)
 Number     Number       Type             X           Y           Z
 ---------------------------------------------------------------------
      1          7           0       -3.174900   -2.045024    1.668766
      2          1           0       -4.113359   -2.132589    1.263873
      3          1           0       -2.868181   -2.900320    2.152450
      4          1           0       -2.403616   -1.965477    0.898834
      5          6           0       -3.134769   -0.834414    2.552571
      6          1           0       -3.790230   -1.035595    3.406905
      7          6           0       -3.853047    0.255633    1.725374
      8          6           0       -1.711991   -0.574694    3.038621
      9          1           0       -1.714855    0.224934    3.785995
     10          1           0       -1.305298   -1.478707    3.501473
     11          1           0       -1.054125   -0.310206    2.207420
     12          8           0       -4.918715   -0.039536    1.193193
     13          7           0       -3.260552    1.465192    1.651279
     14          1           0       -2.392925    1.622812    2.142682
     15          6           0       -3.864884    2.594729    0.956802
     16          1           0       -4.895743    2.292310    0.748480
     17          6           0       -3.181495    2.722534   -0.425576
     18          6           0       -3.875881    3.848117    1.864627
     19          1           0       -4.456185    4.632224    1.364358
     20          1           0       -2.851900    4.232433    1.980471
     21          8           0       -3.081527    1.733812   -1.141853
     22          6           0       -4.433793    3.546275    3.223458
     23          6           0       -5.753203    3.531260    3.604058
     24          1           0       -6.636820    3.804050    3.043187
     25          6           0       -3.675069    3.080177    4.355519
     26          6           0       -4.602817    2.789056    5.393054
     27          6           0       -2.303471    2.881043    4.595501
     28          1           0       -1.565051    3.138055    3.838444
     29          7           0       -5.860146    3.075969    4.902969
     30          1           0       -6.719884    3.011874    5.426161
     31          6           0       -2.838434    2.092658    6.839635
     32          1           0       -2.492673    1.712869    7.796479
     33          6           0       -4.199171    2.295315    6.638082
     34          1           0       -4.921671    2.079362    7.420213
     35          6           0       -1.897191    2.387393    5.830196
     36          1           0       -0.839360    2.241180    6.030371
     37          7           0       -2.713228    3.954196   -0.795384
     38          1           0       -2.598905    4.661131   -0.079227
     39          6           0       -1.865593    4.117258   -1.992198
     40          1           0       -2.290977    3.473066   -2.765438
     41          6           0       -0.434951    3.672731   -1.630908
     42          6           0       -1.919173    5.570420   -2.463518
     43          1           0       -1.231496    5.699068   -3.302931
     44          1           0       -1.565005    6.232432   -1.657113
     45          8           0        0.434234    4.474361   -1.300887
     46          8           0       -3.207968    5.922343   -2.930870
     47          1           0       -3.843026    5.725492   -2.223971
     48          7           0       -0.270056    2.323309   -1.636793
     49          1           0       -1.072659    1.727305   -1.827624
     50          6           0        0.890916    1.669742   -1.065919
     51          1           0        1.741032    2.354907   -1.148373
     52          6           0        1.096446    0.376602   -1.859910
     53          6           0        0.662298    1.289609    0.436901
     54          1           0       -0.138187    0.536806    0.431826
     55          8           0        0.125470   -0.266832   -2.256242
     56          6           0        1.913996    0.672244    1.078602
     57          1           0        2.760367    1.370757    1.036946
     58          1           0        1.727168    0.451698    2.135923
     59          1           0        2.208953   -0.263480    0.599305
     60          6           0        0.204486    2.500962    1.261443
     61          1           0        0.943399    3.307604    1.230902
     62          1           0        0.063715    2.205371    2.308785
     63          1           0       -0.738236    2.910606    0.890937
     64          7           0        2.369124   -0.084021   -2.011753
     65          1           0        3.137856    0.433565   -1.606327
     66          6           0        2.635847   -1.430400   -2.527119
     67          1           0        1.854663   -1.626798   -3.269932
     68          6           0        2.475752   -2.491401   -1.409591
     69          6           0        4.014094   -1.495780   -3.176655
     70          1           0        4.188203   -2.488712   -3.597206
     71          1           0        4.806236   -1.303654   -2.444696
     72          1           0        4.081348   -0.756395   -3.979084
     73          8           0        3.367581   -3.345755   -1.198315
     74          7           0        1.360601   -2.416574   -0.682312
     75          1           0        0.590398   -1.807415   -0.972958
     76          6           0        1.043811   -3.283568    0.445521
     77          1           0        1.087314   -4.329600    0.115905
     78          6           0       -0.414215   -2.995920    0.889176
     79          6           0        1.989856   -3.081462    1.665382
     80          1           0        2.965665   -2.718123    1.321233
     81          1           0        1.578250   -2.286031    2.292636
     82          8           0       -0.854198   -3.651413    1.855759
     83          6           0        2.148211   -4.372381    2.499735
     84          1           0        2.206960   -4.128721    3.565633
     85          1           0        1.248905   -4.981960    2.377028
     86          6           0        3.411897   -5.184497    2.170386
     87          1           0        3.320684   -6.180188    2.619552
     88          1           0        4.297914   -4.700275    2.603441
     89          7           0        3.608521   -5.309685    0.718424
     90          1           0        3.308718   -4.515845    0.130818
     91          7           0        5.050306   -7.150073    0.724055
     92          1           0        5.824438   -7.648480    0.311789
     93          1           0        4.747174   -7.437730    1.641322
     94          7           0        4.865468   -5.787856   -1.149140
     95          1           0        5.279259   -6.486501   -1.748588
     96          1           0        4.489278   -4.940503   -1.572697
     97          6           0        4.501685   -6.084463    0.111428
     98          8           0       -1.012225   -2.072048    0.243371
 ---------------------------------------------------------------------

 SCF Done:  E(RB3LYP) =  -2360.19486709     A.U. after    2 cycles

 Alpha  occ. eigenvalues --  -19.23285 -19.20323 -19.20205 -19.20160 -19.19690
 Alpha  occ. eigenvalues --  -19.19078 -19.18064 -19.17796 -14.50774 -14.49679
 Alpha  occ. eigenvalues --  -14.49248 -14.48569 -14.45595 -14.45221 -14.45159
 Alpha  occ. eigenvalues --  -14.44900 -14.44890 -14.42102 -10.46171 -10.39162
 Alpha  occ. eigenvalues --  -10.37833 -10.37458 -10.37029 -10.36318 -10.35251
 Alpha  occ. eigenvalues --  -10.34375 -10.34189 -10.33004 -10.31877 -10.31521
 Alpha  occ. eigenvalues --  -10.31087 -10.29973 -10.29371 -10.29250 -10.29043
 Alpha  occ. eigenvalues --  -10.28610 -10.28451 -10.28426 -10.27770 -10.27535
 Alpha  occ. eigenvalues --  -10.27188 -10.26071 -10.26021 -10.25977 -10.25734
 Alpha  occ. eigenvalues --  -10.25689 -10.25609 -10.25481 -10.25423  -1.14861
 Alpha  occ. eigenvalues --   -1.14035  -1.12834  -1.12610  -1.11998  -1.11728
 Alpha  occ. eigenvalues --   -1.09848  -1.07709  -1.05174  -1.05065  -1.03927
 Alpha  occ. eigenvalues --   -1.03212  -1.02878  -1.02105  -1.01749  -1.00891
 Alpha  occ. eigenvalues --   -1.00501  -0.99152  -0.91057  -0.89847  -0.89032
 Alpha  occ. eigenvalues --   -0.88612  -0.86413  -0.86273  -0.84209  -0.84036
 Alpha  occ. eigenvalues --   -0.82046  -0.80696  -0.79223  -0.78786  -0.78683
 Alpha  occ. eigenvalues --   -0.76780  -0.76470  -0.75796  -0.74130  -0.73410
 Alpha  occ. eigenvalues --   -0.71779  -0.71125  -0.70740  -0.69445  -0.68570
 Alpha  occ. eigenvalues --   -0.68420  -0.67856  -0.67462  -0.67078  -0.66351
 Alpha  occ. eigenvalues --   -0.65751  -0.65252  -0.64957  -0.64802  -0.63910
 Alpha  occ. eigenvalues --   -0.63382  -0.62996  -0.62822  -0.61724  -0.60864
 Alpha  occ. eigenvalues --   -0.59880  -0.59639  -0.58853  -0.58279  -0.57695
 Alpha  occ. eigenvalues --   -0.57502  -0.57296  -0.56520  -0.56318  -0.56205
 Alpha  occ. eigenvalues --   -0.55502  -0.55208  -0.54992  -0.54690  -0.54238
 Alpha  occ. eigenvalues --   -0.54024  -0.53571  -0.53250  -0.52297  -0.52071
 Alpha  occ. eigenvalues --   -0.51712  -0.51483  -0.51099  -0.50459  -0.50101
 Alpha  occ. eigenvalues --   -0.49788  -0.49658  -0.49572  -0.49158  -0.49101
 Alpha  occ. eigenvalues --   -0.48865  -0.48599  -0.48482  -0.48004  -0.47800
 Alpha  occ. eigenvalues --   -0.47631  -0.47585  -0.47429  -0.47170  -0.46967
 Alpha  occ. eigenvalues --   -0.46702  -0.46209  -0.46169  -0.45891  -0.45494
 Alpha  occ. eigenvalues --   -0.45336  -0.45104  -0.44669  -0.44495  -0.44356
 Alpha  occ. eigenvalues --   -0.44303  -0.43920  -0.43421  -0.42738  -0.42438
 Alpha  occ. eigenvalues --   -0.42076  -0.41337  -0.41152  -0.40744  -0.40444
 Alpha  occ. eigenvalues --   -0.39103  -0.38588  -0.38218  -0.35819  -0.35706
 Alpha  occ. eigenvalues --   -0.35603  -0.34869  -0.34591  -0.34244  -0.34025
 Alpha  occ. eigenvalues --   -0.33653  -0.33548  -0.33297  -0.32737  -0.32096
 Alpha  occ. eigenvalues --   -0.31694  -0.30515  -0.29432  -0.27494
 Alpha virt. eigenvalues --   -0.10398  -0.09275  -0.08536  -0.07883  -0.06605
 Alpha virt. eigenvalues --   -0.06294  -0.06196  -0.04735  -0.04269  -0.03522
 Alpha virt. eigenvalues --   -0.03035  -0.02638  -0.01560  -0.00716  -0.00530

 Mulliken charges:
               1
     1  N   -0.757765
     2  H    0.394609
     3  H    0.394968
     4  H    0.445044
     5  C   -0.091426
     6  H    0.207527
     7  C    0.648181
     8  C   -0.528184
     9  H    0.188463
    10  H    0.189186
    11  H    0.192562
    12  O   -0.519041
    13  N   -0.607102
    14  H    0.361508
    15  C   -0.049686
    16  H    0.218990
    17  C    0.619505
    18  C   -0.423861
    19  H    0.170428
    20  H    0.155690
    21  O   -0.503953
    22  C    0.073708
    23  C    0.014378
    24  H    0.167276
    25  C    0.092249
    26  C    0.312787
    27  C   -0.250002
    28  H    0.130019
    29  N   -0.688236
    30  H    0.340906
    31  C   -0.154300
    32  H    0.139740
    33  C   -0.157941
    34  H    0.140992
    35  C   -0.146398
    36  H    0.129990
    37  N   -0.631436
    38  H    0.346084
    39  C   -0.094656
    40  H    0.199875
    41  C    0.620166
    42  C   -0.035422
    43  H    0.177245
    44  H    0.141532
    45  O   -0.533941
    46  O   -0.606565
    47  H    0.392334
    48  N   -0.617315
    49  H    0.386637
    50  C   -0.048621
    51  H    0.172434
    52  C    0.624057
    53  C   -0.100363
    54  H    0.171427
    55  O   -0.526777
    56  C   -0.482867
    57  H    0.149297
    58  H    0.151526
    59  H    0.153913
    60  C   -0.473892
    61  H    0.182719
    62  H    0.139981
    63  H    0.137512
    64  N   -0.597428
    65  H    0.338988
    66  C   -0.063329
    67  H    0.215364
    68  C    0.633199
    69  C   -0.458167
    70  H    0.166005
    71  H    0.156741
    72  H    0.178929
    73  O   -0.603764
    74  N   -0.634035
    75  H    0.433240
    76  C   -0.038757
    77  H    0.169377
    78  C    0.611735
    79  C   -0.309292
    80  H    0.154072
    81  H    0.172043
    82  O   -0.588226
    83  C   -0.283928
    84  H    0.164623
    85  H    0.197736
    86  C   -0.161074
    87  H    0.159837
    88  H    0.179576
    89  N   -0.649242
    90  H    0.438680
    91  N   -0.764154
    92  H    0.377214
    93  H    0.382215
    94  N   -0.786107
    95  H    0.365291
    96  H    0.413649
    97  C    0.807257
    98  O   -0.623968
 Sum of Mulliken charges =   1.00000

 Dipole moment (field-independent basis, Debye):
    X=              9.0346    Y=            -16.0719    Z=              9.3017  Tot=             20.6507
 Quadrupole moment (field-independent basis, Debye-Ang):
   XX=           -159.3241   YY=           -154.6810   ZZ=           -243.9191
   XY=           -118.2428   XZ=            -48.2781   YZ=             11.3764

 Normal termination of Gaussian 16 at Thu Jun 23 19:21:55 2022.
