 Gaussian 16, Revision C.01,
 Gaussian 16:  ES64L-G16RevC.01  3-Jul-2019

 ----------------------------------------------------------------------
 # B3LYP/6-31G* empiricaldispersion=gd3 guess=read geom=check nosymm in
 tegral(ultrafinegrid)
 ----------------------------------------------------------------------

 ------------------------------------------------------
 Candidate Structure: Conf:102 Charge calc in gas phase
 ------------------------------------------------------
 Structure from the checkpoint file:  "conf-102.chk"
 Charge =  1 Multiplicity = 1

                          Input orientation:
 ---------------------------------------------------------------------
 Center     Atomic      Atomic             Coordinates (Angstroms)
 Number     Number       Type             X           Y           Z
 ---------------------------------------------------------------------
      1          7           0       -1.222137    4.550629    1.232148
      2          1           0       -1.307177    5.557066    1.097674
      3          1           0       -0.107578    3.862893    0.241384
      4          1           0       -0.832446    4.388104    2.162354
      5          6           0       -2.558692    3.919825    1.191614
      6          1           0       -3.253609    4.437786    1.874053
      7          6           0       -2.407730    2.530186    1.819145
      8          6           0       -3.141665    3.962162   -0.221147
      9          1           0       -4.194554    3.658289   -0.217322
     10          1           0       -3.112711    4.987236   -0.606381
     11          1           0       -2.573775    3.314274   -0.892565
     12          8           0       -1.583111    2.355778    2.726271
     13          7           0       -3.261928    1.562745    1.429764
     14          1           0       -3.938333    1.763002    0.706720
     15          6           0       -3.535408    0.397293    2.270218
     16          1           0       -3.321653    0.708093    3.299185
     17          6           0       -2.565987   -0.767750    1.958187
     18          6           0       -5.011061   -0.043210    2.140143
     19          1           0       -5.265583   -0.594984    3.053329
     20          1           0       -5.089305   -0.769264    1.324808
     21          8           0       -2.944183   -1.884245    1.612300
     22          6           0       -5.962577    1.096860    1.903256
     23          6           0       -6.921251    1.138216    0.919248
     24          1           0       -7.184335    0.383693    0.190099
     25          6           0       -6.036034    2.365569    2.593055
     26          6           0       -7.066704    3.122952    1.970004
     27          6           0       -5.310555    2.954436    3.645381
     28          1           0       -4.515726    2.408832    4.145245
     29          7           0       -7.590626    2.345418    0.956695
     30          1           0       -8.367154    2.600777    0.366723
     31          6           0       -6.652287    4.977821    3.409022
     32          1           0       -6.876613    5.986383    3.744022
     33          6           0       -7.388050    4.425115    2.367732
     34          1           0       -8.181185    4.984030    1.878568
     35          6           0       -5.621437    4.249924    4.040591
     36          1           0       -5.069133    4.708788    4.855820
     37          7           0       -1.256347   -0.450251    2.135279
     38          1           0       -0.996618    0.514820    2.349266
     39          6           0       -0.213527   -1.415142    1.882821
     40          1           0       -0.429819   -2.349868    2.413686
     41          6           0        1.122501   -0.821062    2.297010
     42          6           0       -0.091823   -1.730746    0.366653
     43          1           0        0.072833   -0.785335   -0.155034
     44          1           0       -1.033381   -2.171076    0.037859
     45          8           0        1.394564    0.365468    2.098991
     46          8           0        0.944640   -2.683609    0.089675
     47          1           0        1.834497   -2.276686    0.229031
     48          7           0        2.047609   -1.702773    2.757351
     49          1           0        1.817435   -2.687766    2.731964
     50          6           0        3.456735   -1.328528    2.728685
     51          1           0        3.604199   -0.496443    3.427118
     52          6           0        3.787842   -0.877726    1.294054
     53          6           0        4.350911   -2.515677    3.149002
     54          1           0        4.134173   -3.335627    2.448191
     55          8           0        3.468926   -1.584651    0.323776
     56          6           0        5.838390   -2.156531    3.017527
     57          1           0        6.090867   -1.295433    3.649150
     58          1           0        6.458100   -2.997046    3.344795
     59          1           0        6.118134   -1.917287    1.986653
     60          6           0        4.026479   -2.968740    4.580281
     61          1           0        4.242796   -2.167274    5.296818
     62          1           0        4.639733   -3.834284    4.851162
     63          1           0        2.976117   -3.250197    4.706790
     64          7           0        4.430036    0.294938    1.164545
     65          1           0        4.571754    0.844229    2.000827
     66          6           0        4.883711    0.852431   -0.114521
     67          1           0        5.301999    1.836171    0.126179
     68          6           0        3.752414    1.136828   -1.130191
     69          6           0        5.980804   -0.007661   -0.752992
     70          1           0        6.298924    0.451893   -1.689917
     71          1           0        5.597413   -1.009017   -0.963215
     72          1           0        6.836886   -0.086274   -0.075915
     73          8           0        4.054307    1.343642   -2.302387
     74          7           0        2.475302    1.196012   -0.675044
     75          1           0        2.255095    1.027302    0.301791
     76          6           0        1.402470    1.585999   -1.593023
     77          1           0        1.835190    2.342766   -2.252485
     78          6           0        0.293835    2.260349   -0.762739
     79          6           0        0.815990    0.436957   -2.450164
     80          1           0       -0.081756    0.060871   -1.951271
     81          1           0        0.469217    0.876608   -3.394262
     82          8           0       -0.781292    1.720727   -0.536403
     83          6           0        1.769284   -0.726322   -2.739871
     84          1           0        2.615330   -0.383970   -3.344093
     85          1           0        2.187717   -1.113216   -1.805871
     86          6           0        1.020755   -1.849787   -3.456955
     87          1           0        0.583321   -1.493232   -4.396180
     88          1           0        0.196609   -2.230879   -2.847765
     89          7           0        1.890070   -2.988253   -3.801108
     90          1           0        2.589798   -2.817295   -4.512462
     91          7           0        1.338602   -4.381114   -2.012910
     92          1           0        1.229451   -5.329959   -1.683144
     93          1           0        1.116157   -3.630327   -1.327307
     94          7           0        2.628172   -5.175242   -3.771196
     95          1           0        2.890608   -6.001395   -3.254600
     96          1           0        2.822787   -5.164130   -4.761741
     97          6           0        1.947662   -4.168415   -3.177692
     98          8           0        0.650616    3.452619   -0.334547
 ---------------------------------------------------------------------

 SCF Done:  E(RB3LYP) =  -2360.21677543     A.U. after    3 cycles

 Alpha  occ. eigenvalues --  -19.25188 -19.22909 -19.22712 -19.21769 -19.19688
 Alpha  occ. eigenvalues --  -19.18796 -19.18622 -19.18088 -14.51000 -14.50826
 Alpha  occ. eigenvalues --  -14.49100 -14.46862 -14.46191 -14.43883 -14.43213
 Alpha  occ. eigenvalues --  -14.42831 -14.41958 -14.41412 -10.46894 -10.39332
 Alpha  occ. eigenvalues --  -10.38454 -10.37775 -10.36192 -10.35696 -10.35022
 Alpha  occ. eigenvalues --  -10.33779 -10.33242 -10.32498 -10.31894 -10.31615
 Alpha  occ. eigenvalues --  -10.30420 -10.30050 -10.29953 -10.29376 -10.27974
 Alpha  occ. eigenvalues --  -10.27685 -10.27170 -10.26433 -10.26347 -10.26213
 Alpha  occ. eigenvalues --  -10.25459 -10.25380 -10.24939 -10.24549 -10.24359
 Alpha  occ. eigenvalues --  -10.24260 -10.24197 -10.24034 -10.23695  -1.15221
 Alpha  occ. eigenvalues --   -1.15127  -1.14879  -1.13310  -1.11543  -1.10850
 Alpha  occ. eigenvalues --   -1.10726  -1.09707  -1.06340  -1.04652  -1.03773
 Alpha  occ. eigenvalues --   -1.03042  -1.02956  -1.02712  -0.99766  -0.99368
 Alpha  occ. eigenvalues --   -0.98852  -0.97439  -0.90351  -0.89465  -0.89089
 Alpha  occ. eigenvalues --   -0.86654  -0.86075  -0.84903  -0.83441  -0.82734
 Alpha  occ. eigenvalues --   -0.80603  -0.79878  -0.79130  -0.78846  -0.77656
 Alpha  occ. eigenvalues --   -0.77379  -0.75828  -0.74455  -0.73749  -0.72543
 Alpha  occ. eigenvalues --   -0.72385  -0.70850  -0.70349  -0.69578  -0.68792
 Alpha  occ. eigenvalues --   -0.68498  -0.67921  -0.66441  -0.65659  -0.65398
 Alpha  occ. eigenvalues --   -0.64983  -0.64922  -0.64706  -0.64452  -0.63414
 Alpha  occ. eigenvalues --   -0.63226  -0.62026  -0.61656  -0.61199  -0.60477
 Alpha  occ. eigenvalues --   -0.59755  -0.58905  -0.58646  -0.57931  -0.57168
 Alpha  occ. eigenvalues --   -0.56710  -0.56490  -0.56034  -0.55661  -0.55316
 Alpha  occ. eigenvalues --   -0.54874  -0.54472  -0.54152  -0.53998  -0.53683
 Alpha  occ. eigenvalues --   -0.53273  -0.52620  -0.52500  -0.52227  -0.52087
 Alpha  occ. eigenvalues --   -0.51488  -0.51261  -0.50827  -0.50378  -0.49483
 Alpha  occ. eigenvalues --   -0.49348  -0.49278  -0.49016  -0.48707  -0.48562
 Alpha  occ. eigenvalues --   -0.48528  -0.48422  -0.47838  -0.47590  -0.47143
 Alpha  occ. eigenvalues --   -0.46894  -0.46764  -0.46555  -0.45969  -0.45942
 Alpha  occ. eigenvalues --   -0.45704  -0.45344  -0.44956  -0.44671  -0.44474
 Alpha  occ. eigenvalues --   -0.44292  -0.44147  -0.43624  -0.43543  -0.43232
 Alpha  occ. eigenvalues --   -0.43150  -0.42950  -0.42752  -0.42501  -0.42195
 Alpha  occ. eigenvalues --   -0.42101  -0.41734  -0.41189  -0.40604  -0.39059
 Alpha  occ. eigenvalues --   -0.38929  -0.38685  -0.38364  -0.37473  -0.37248
 Alpha  occ. eigenvalues --   -0.36682  -0.35680  -0.34983  -0.34730  -0.34451
 Alpha  occ. eigenvalues --   -0.33649  -0.32874  -0.32600  -0.32306  -0.31849
 Alpha  occ. eigenvalues --   -0.31546  -0.30555  -0.27992  -0.26206
 Alpha virt. eigenvalues --   -0.11124  -0.09417  -0.07861  -0.07210  -0.06952
 Alpha virt. eigenvalues --   -0.06000  -0.04950  -0.04788  -0.04103  -0.03150
 Alpha virt. eigenvalues --   -0.03107  -0.02709  -0.01969  -0.01484  -0.00071

 Mulliken charges:
               1
     1  N   -0.782782
     2  H    0.330134
     3  H    0.471947
     4  H    0.353103
     5  C   -0.061251
     6  H    0.184931
     7  C    0.671766
     8  C   -0.486093
     9  H    0.160443
    10  H    0.157615
    11  H    0.192653
    12  O   -0.569044
    13  N   -0.593321
    14  H    0.347218
    15  C   -0.076898
    16  H    0.189966
    17  C    0.641805
    18  C   -0.374334
    19  H    0.174693
    20  H    0.175858
    21  O   -0.538252
    22  C    0.029530
    23  C   -0.003914
    24  H    0.159113
    25  C    0.086251
    26  C    0.309442
    27  C   -0.221618
    28  H    0.136008
    29  N   -0.685986
    30  H    0.335528
    31  C   -0.153040
    32  H    0.136652
    33  C   -0.161749
    34  H    0.134357
    35  C   -0.148530
    36  H    0.132480
    37  N   -0.650274
    38  H    0.405310
    39  C   -0.005792
    40  H    0.168851
    41  C    0.584371
    42  C   -0.086145
    43  H    0.182685
    44  H    0.193241
    45  O   -0.543765
    46  O   -0.711037
    47  H    0.462757
    48  N   -0.599818
    49  H    0.344660
    50  C   -0.010564
    51  H    0.165995
    52  C    0.633163
    53  C   -0.117358
    54  H    0.141985
    55  O   -0.582142
    56  C   -0.468006
    57  H    0.150951
    58  H    0.169845
    59  H    0.164804
    60  C   -0.450076
    61  H    0.161050
    62  H    0.167068
    63  H    0.152058
    64  N   -0.591960
    65  H    0.355935
    66  C   -0.064606
    67  H    0.188660
    68  C    0.653765
    69  C   -0.450368
    70  H    0.193755
    71  H    0.169797
    72  H    0.152271
    73  O   -0.536444
    74  N   -0.664219
    75  H    0.395194
    76  C   -0.002674
    77  H    0.196472
    78  C    0.564763
    79  C   -0.294001
    80  H    0.175600
    81  H    0.150640
    82  O   -0.498732
    83  C   -0.294068
    84  H    0.177789
    85  H    0.168518
    86  C   -0.168046
    87  H    0.183624
    88  H    0.183979
    89  N   -0.593131
    90  H    0.360330
    91  N   -0.787067
    92  H    0.362957
    93  H    0.442595
    94  N   -0.766037
    95  H    0.375832
    96  H    0.376707
    97  C    0.804028
    98  O   -0.600354
 Sum of Mulliken charges =   1.00000

 Dipole moment (field-independent basis, Debye):
    X=              5.6195    Y=             -9.4210    Z=             -5.5195  Tot=             12.2800
 Quadrupole moment (field-independent basis, Debye-Ang):
   XX=           -191.1567   YY=           -180.0355   ZZ=           -228.0381
   XY=            -70.4163   XZ=              7.5130   YZ=             48.6313

 Normal termination of Gaussian 16 at Thu Jun 23 19:23:32 2022.
