 Gaussian 16, Revision C.01,
 Gaussian 16:  ES64L-G16RevC.01  3-Jul-2019

 ----------------------------------------------------------------------
 # B3LYP/6-31G* empiricaldispersion=gd3 guess=read geom=check nosymm in
 tegral(ultrafinegrid)
 ----------------------------------------------------------------------

 ------------------------------------------------------
 Candidate Structure: Conf:304 Charge calc in gas phase
 ------------------------------------------------------
 Structure from the checkpoint file:  "conf-304.chk"
 Charge =  1 Multiplicity = 1

                          Input orientation:
 ---------------------------------------------------------------------
 Center     Atomic      Atomic             Coordinates (Angstroms)
 Number     Number       Type             X           Y           Z
 ---------------------------------------------------------------------
      1          7           0       -7.407199   -0.050559   -0.197417
      2          1           0       -8.003461   -0.854342   -0.413050
      3          1           0       -6.453027   -0.349823    0.139107
      4          1           0       -7.254035    0.519152   -1.039517
      5          6           0       -7.974504    0.852878    0.892625
      6          1           0       -8.860130    1.336344    0.472678
      7          6           0       -6.826262    1.890769    0.986345
      8          6           0       -8.307568    0.020649    2.121484
      9          1           0       -8.668736    0.674865    2.920916
     10          1           0       -9.106313   -0.697023    1.906030
     11          1           0       -7.428923   -0.526394    2.479422
     12          8           0       -6.497084    2.445404   -0.055197
     13          7           0       -6.150824    1.985196    2.159401
     14          1           0       -6.438107    1.349805    2.898126
     15          6           0       -4.695814    2.066752    2.072160
     16          1           0       -4.423685    2.954087    1.495016
     17          6           0       -4.206011    0.799052    1.310212
     18          6           0       -4.099387    2.162081    3.504231
     19          1           0       -4.476748    3.090110    3.947108
     20          1           0       -3.012479    2.271247    3.424615
     21          8           0       -4.986662   -0.127354    1.009619
     22          6           0       -4.440398    0.977589    4.362599
     23          6           0       -5.569617    0.815765    5.137010
     24          1           0       -6.350572    1.527065    5.374145
     25          6           0       -3.694214   -0.253859    4.463877
     26          6           0       -4.439520   -1.127919    5.298253
     27          6           0       -2.450972   -0.682178    3.964629
     28          1           0       -1.830536   -0.014712    3.377388
     29          7           0       -5.584232   -0.453696    5.682558
     30          1           0       -6.233928   -0.773314    6.385011
     31          6           0       -2.781019   -2.824440    5.079243
     32          1           0       -2.408039   -3.819345    5.304169
     33          6           0       -3.998783   -2.418856    5.611550
     34          1           0       -4.581123   -3.074985    6.252343
     35          6           0       -2.009798   -1.962144    4.270000
     36          1           0       -1.050300   -2.300256    3.889460
     37          7           0       -2.905982    0.751506    1.029065
     38          1           0       -2.260556    1.474505    1.343385
     39          6           0       -2.242246   -0.438127    0.520634
     40          1           0       -2.742794   -1.324231    0.921251
     41          6           0       -0.791754   -0.367206    0.998596
     42          6           0       -2.288069   -0.499647   -1.034571
     43          1           0       -1.822419    0.410876   -1.436084
     44          1           0       -3.343866   -0.503615   -1.327378
     45          8           0       -0.316596    0.684699    1.429305
     46          8           0       -1.679261   -1.670285   -1.526433
     47          1           0       -0.729738   -1.456930   -1.687636
     48          7           0       -0.096175   -1.524169    0.869456
     49          1           0       -0.554752   -2.226133    0.294906
     50          6           0        1.359250   -1.479474    0.755066
     51          1           0        1.739771   -0.890431    1.595441
     52          6           0        1.706852   -0.764281   -0.570874
     53          6           0        1.937243   -2.914567    0.823693
     54          1           0        1.521940   -3.469832   -0.031342
     55          8           0        0.957884   -0.839841   -1.559883
     56          6           0        3.468474   -2.923390    0.702745
     57          1           0        3.929213   -2.328945    1.502155
     58          1           0        3.843579   -3.947655    0.795852
     59          1           0        3.817265   -2.524757   -0.253389
     60          6           0        1.498241   -3.606719    2.123680
     61          1           0        1.886577   -3.066563    2.996438
     62          1           0        1.889571   -4.628848    2.161390
     63          1           0        0.408989   -3.656507    2.216607
     64          7           0        2.854540   -0.081763   -0.583279
     65          1           0        3.486409   -0.064492    0.215397
     66          6           0        3.398573    0.574116   -1.762698
     67          1           0        3.301683   -0.105918   -2.617652
     68          6           0        4.892333    0.810722   -1.451659
     69          6           0        2.658874    1.884942   -2.074821
     70          1           0        3.064948    2.358190   -2.974149
     71          1           0        2.758021    2.584304   -1.238560
     72          1           0        1.599674    1.670098   -2.238130
     73          8           0        5.338611    0.598630   -0.317453
     74          7           0        5.623370    1.270247   -2.475428
     75          1           0        5.240188    1.425343   -3.405708
     76          6           0        7.024722    1.664348   -2.374831
     77          1           0        7.173299    2.229004   -1.449830
     78          6           0        7.302441    2.568474   -3.605808
     79          6           0        7.914562    0.388689   -2.345070
     80          1           0        7.432049   -0.283772   -1.629604
     81          1           0        7.848804   -0.094520   -3.329506
     82          8           0        8.269340    3.399194   -3.488255
     83          6           0        9.393018    0.554631   -1.915770
     84          1           0        9.517696    1.468205   -1.320086
     85          1           0        9.666907   -0.274132   -1.252455
     86          6           0       10.428152    0.555707   -3.053304
     87          1           0       10.288501   -0.334300   -3.679776
     88          1           0       11.440815    0.515522   -2.632117
     89          7           0       10.277266    1.762625   -3.867991
     90          1           0        9.684552    2.506016   -3.440033
     91          7           0       10.812118    0.833018   -5.945163
     92          1           0       10.866154    0.947268   -6.946915
     93          1           0       11.549192    0.279944   -5.532431
     94          7           0        9.634438    2.856517   -5.777168
     95          1           0        9.507174    2.878227   -6.778255
     96          1           0        8.947032    3.353395   -5.170807
     97          6           0       10.242008    1.814345   -5.198656
     98          8           0        6.613429    2.371556   -4.621630
 ---------------------------------------------------------------------

 SCF Done:  E(RB3LYP) =  -2360.16955387     A.U. after    1 cycles

 Alpha  occ. eigenvalues --  -19.24525 -19.23818 -19.20619 -19.20461 -19.18969
 Alpha  occ. eigenvalues --  -19.16525 -19.13291 -19.12774 -14.58089 -14.47320
 Alpha  occ. eigenvalues --  -14.46652 -14.46482 -14.45715 -14.43494 -14.42680
 Alpha  occ. eigenvalues --  -14.42552 -14.42189 -14.39813 -10.41771 -10.40311
 Alpha  occ. eigenvalues --  -10.40277 -10.39371 -10.36992 -10.35590 -10.34527
 Alpha  occ. eigenvalues --  -10.33502 -10.32457 -10.31613 -10.31188 -10.30905
 Alpha  occ. eigenvalues --  -10.30842 -10.30336 -10.29914 -10.29759 -10.29528
 Alpha  occ. eigenvalues --  -10.29005 -10.27450 -10.26845 -10.26467 -10.26450
 Alpha  occ. eigenvalues --  -10.26060 -10.25955 -10.25924 -10.25427 -10.24839
 Alpha  occ. eigenvalues --  -10.24055 -10.23780 -10.23503 -10.23340  -1.17458
 Alpha  occ. eigenvalues --   -1.14803  -1.12423  -1.12233  -1.10390  -1.09137
 Alpha  occ. eigenvalues --   -1.08376  -1.08138  -1.06324  -1.06309  -1.04735
 Alpha  occ. eigenvalues --   -1.03094  -1.00555  -0.98920  -0.98791  -0.97589
 Alpha  occ. eigenvalues --   -0.96903  -0.96114  -0.92146  -0.91490  -0.89604
 Alpha  occ. eigenvalues --   -0.87955  -0.85946  -0.84945  -0.83473  -0.82929
 Alpha  occ. eigenvalues --   -0.81235  -0.80295  -0.79679  -0.78858  -0.77422
 Alpha  occ. eigenvalues --   -0.76019  -0.74902  -0.73148  -0.72938  -0.72846
 Alpha  occ. eigenvalues --   -0.71290  -0.71113  -0.70576  -0.70131  -0.69729
 Alpha  occ. eigenvalues --   -0.68363  -0.67285  -0.66797  -0.66160  -0.65807
 Alpha  occ. eigenvalues --   -0.65265  -0.64967  -0.64332  -0.63594  -0.62749
 Alpha  occ. eigenvalues --   -0.62623  -0.62196  -0.61876  -0.61190  -0.59793
 Alpha  occ. eigenvalues --   -0.59474  -0.58289  -0.57672  -0.57527  -0.57268
 Alpha  occ. eigenvalues --   -0.56731  -0.56418  -0.56111  -0.55533  -0.55260
 Alpha  occ. eigenvalues --   -0.54768  -0.54301  -0.53643  -0.53494  -0.53225
 Alpha  occ. eigenvalues --   -0.53049  -0.52698  -0.52370  -0.52025  -0.51894
 Alpha  occ. eigenvalues --   -0.51833  -0.51408  -0.51148  -0.50514  -0.50258
 Alpha  occ. eigenvalues --   -0.50169  -0.49954  -0.49814  -0.49386  -0.49173
 Alpha  occ. eigenvalues --   -0.49020  -0.48732  -0.48212  -0.47762  -0.47329
 Alpha  occ. eigenvalues --   -0.47002  -0.46860  -0.46309  -0.46042  -0.45882
 Alpha  occ. eigenvalues --   -0.45439  -0.45214  -0.44944  -0.44604  -0.44438
 Alpha  occ. eigenvalues --   -0.43504  -0.43157  -0.42968  -0.42333  -0.41901
 Alpha  occ. eigenvalues --   -0.41253  -0.41029  -0.41004  -0.40706  -0.40587
 Alpha  occ. eigenvalues --   -0.39990  -0.39735  -0.39702  -0.39385  -0.39360
 Alpha  occ. eigenvalues --   -0.38327  -0.38298  -0.37740  -0.37127  -0.36207
 Alpha  occ. eigenvalues --   -0.35470  -0.34849  -0.34356  -0.33352  -0.32877
 Alpha  occ. eigenvalues --   -0.32338  -0.31997  -0.30707  -0.30268  -0.30205
 Alpha  occ. eigenvalues --   -0.28654  -0.28652  -0.27563  -0.27000
 Alpha virt. eigenvalues --   -0.12690  -0.09665  -0.09247  -0.07948  -0.06644
 Alpha virt. eigenvalues --   -0.05175  -0.05115  -0.04650  -0.03373  -0.02791
 Alpha virt. eigenvalues --   -0.02250  -0.01908  -0.01768  -0.00494  -0.00282

 Mulliken charges:
               1
     1  N   -0.751603
     2  H    0.403183
     3  H    0.455125
     4  H    0.419739
     5  C   -0.096129
     6  H    0.224243
     7  C    0.600439
     8  C   -0.505217
     9  H    0.204066
    10  H    0.186803
    11  H    0.207688
    12  O   -0.499113
    13  N   -0.572778
    14  H    0.350703
    15  C   -0.087544
    16  H    0.211649
    17  C    0.673337
    18  C   -0.376267
    19  H    0.185931
    20  H    0.184144
    21  O   -0.611408
    22  C    0.036677
    23  C   -0.028261
    24  H    0.164538
    25  C    0.088886
    26  C    0.306514
    27  C   -0.222716
    28  H    0.148594
    29  N   -0.685332
    30  H    0.340319
    31  C   -0.148562
    32  H    0.142699
    33  C   -0.159839
    34  H    0.139052
    35  C   -0.158317
    36  H    0.146757
    37  N   -0.603055
    38  H    0.369523
    39  C   -0.074384
    40  H    0.195885
    41  C    0.621543
    42  C   -0.026629
    43  H    0.155070
    44  H    0.140896
    45  O   -0.545140
    46  O   -0.650255
    47  H    0.446331
    48  N   -0.600385
    49  H    0.346146
    50  C   -0.057148
    51  H    0.179419
    52  C    0.646624
    53  C   -0.103122
    54  H    0.142048
    55  O   -0.585166
    56  C   -0.465189
    57  H    0.155138
    58  H    0.159884
    59  H    0.165720
    60  C   -0.449098
    61  H    0.152340
    62  H    0.159009
    63  H    0.155087
    64  N   -0.597494
    65  H    0.365686
    66  C   -0.044422
    67  H    0.178175
    68  C    0.623233
    69  C   -0.448673
    70  H    0.165739
    71  H    0.164504
    72  H    0.174669
    73  O   -0.559213
    74  N   -0.619089
    75  H    0.353995
    76  C   -0.025175
    77  H    0.167631
    78  C    0.584900
    79  C   -0.275900
    80  H    0.173257
    81  H    0.139852
    82  O   -0.644230
    83  C   -0.303135
    84  H    0.172288
    85  H    0.157430
    86  C   -0.148919
    87  H    0.158061
    88  H    0.165023
    89  N   -0.603445
    90  H    0.406283
    91  N   -0.754055
    92  H    0.360726
    93  H    0.367128
    94  N   -0.756842
    95  H    0.346223
    96  H    0.413340
    97  C    0.757935
    98  O   -0.564579
 Sum of Mulliken charges =   1.00000

 Dipole moment (field-independent basis, Debye):
    X=            -12.1056    Y=             -4.0264    Z=              0.0267  Tot=             12.7576
 Quadrupole moment (field-independent basis, Debye-Ang):
   XX=            122.4190   YY=           -288.1094   ZZ=           -192.7281
   XY=            -14.5886   XZ=           -149.0500   YZ=             -3.3181

 Normal termination of Gaussian 16 at Thu Jun 23 19:21:27 2022.
