 Gaussian 16, Revision C.01,
 Gaussian 16:  ES64L-G16RevC.01  3-Jul-2019

 ----------------------------------------------------------------------
 # B3LYP/6-31G* empiricaldispersion=gd3 guess=read geom=check nosymm in
 tegral(ultrafinegrid)
 ----------------------------------------------------------------------

 ------------------------------------------------------
 Candidate Structure: Conf:966 Charge calc in gas phase
 ------------------------------------------------------
 Structure from the checkpoint file:  "conf-966.chk"
 Charge =  1 Multiplicity = 1

                          Input orientation:
 ---------------------------------------------------------------------
 Center     Atomic      Atomic             Coordinates (Angstroms)
 Number     Number       Type             X           Y           Z
 ---------------------------------------------------------------------
      1          7           0       -8.039356    1.819448    6.483578
      2          1           0       -8.747136    1.119971    6.717581
      3          1           0       -8.409612    2.747240    6.710545
      4          1           0       -7.126949    1.657687    7.029311
      5          6           0       -7.530659    1.732706    5.056085
      6          1           0       -7.852415    0.764644    4.660525
      7          6           0       -5.988427    1.678317    5.260958
      8          6           0       -8.045721    2.883264    4.198540
      9          1           0       -7.673178    2.783406    3.175613
     10          1           0       -9.139168    2.881027    4.149312
     11          1           0       -7.700824    3.848784    4.584529
     12          8           0       -5.575823    1.565399    6.431162
     13          7           0       -5.256992    1.744981    4.167790
     14          1           0       -5.667601    1.758223    3.226566
     15          6           0       -3.819467    1.515257    4.077596
     16          1           0       -3.287229    2.306940    4.616730
     17          6           0       -3.539319    1.641850    2.559409
     18          6           0       -3.402897    0.132852    4.671478
     19          1           0       -3.457097    0.220113    5.760024
     20          1           0       -2.350093   -0.038950    4.416751
     21          8           0       -4.481399    1.698753    1.767924
     22          6           0       -4.255897   -1.006733    4.205372
     23          6           0       -5.312642   -1.555462    4.892016
     24          1           0       -5.663990   -1.333231    5.891129
     25          6           0       -4.185370   -1.697348    2.940544
     26          6           0       -5.240300   -2.646758    2.921570
     27          6           0       -3.316868   -1.622815    1.838349
     28          1           0       -2.479416   -0.935666    1.853112
     29          7           0       -5.928210   -2.523370    4.117192
     30          1           0       -6.602866   -3.192133    4.456680
     31          6           0       -4.591606   -3.393138    0.753842
     32          1           0       -4.730995   -4.041352   -0.106258
     33          6           0       -5.457274   -3.501853    1.835649
     34          1           0       -6.267422   -4.225845    1.838647
     35          6           0       -3.528560   -2.465077    0.756516
     36          1           0       -2.861789   -2.414313   -0.099235
     37          7           0       -2.241476    1.666314    2.214821
     38          1           0       -1.517193    1.463021    2.898169
     39          6           0       -1.784050    1.573840    0.839108
     40          1           0       -2.614026    1.204425    0.229646
     41          6           0       -0.590043    0.599069    0.831516
     42          6           0       -1.337174    2.939307    0.294350
     43          1           0       -0.973614    2.803467   -0.736591
     44          1           0       -0.493367    3.302339    0.903994
     45          8           0        0.022108    0.360599    1.874273
     46          8           0       -2.452480    3.807330    0.358534
     47          1           0       -2.182919    4.670155    0.008757
     48          7           0       -0.283326    0.081331   -0.373146
     49          1           0       -0.772239    0.396513   -1.207378
     50          6           0        0.970440   -0.604897   -0.673717
     51          1           0        1.684187   -0.368056    0.123043
     52          6           0        1.430266   -0.010807   -2.018981
     53          6           0        0.785835   -2.147429   -0.744771
     54          1           0        0.012215   -2.333608   -1.503582
     55          8           0        0.599543    0.403748   -2.832014
     56          6           0        2.073440   -2.868271   -1.173814
     57          1           0        2.898944   -2.643745   -0.485046
     58          1           0        1.917898   -3.951886   -1.152150
     59          1           0        2.395740   -2.598368   -2.183049
     60          6           0        0.300546   -2.689834    0.606682
     61          1           0        1.048521   -2.510541    1.387672
     62          1           0        0.127913   -3.769678    0.540598
     63          1           0       -0.631320   -2.221921    0.929500
     64          7           0        2.759153    0.019740   -2.234508
     65          1           0        3.413535   -0.422395   -1.595773
     66          6           0        3.328258    0.382706   -3.522958
     67          1           0        2.676433   -0.012972   -4.311412
     68          6           0        4.700716   -0.305083   -3.604864
     69          6           0        3.435297    1.907905   -3.688360
     70          1           0        3.836469    2.173410   -4.671693
     71          1           0        4.090164    2.330192   -2.919318
     72          1           0        2.438036    2.344547   -3.590277
     73          8           0        5.197206   -0.861170   -2.613855
     74          7           0        5.312163   -0.245613   -4.799238
     75          1           0        4.904536    0.213928   -5.606914
     76          6           0        6.638782   -0.809964   -4.990156
     77          1           0        7.222326   -0.559658   -4.108826
     78          6           0        7.265806   -0.143884   -6.219971
     79          6           0        6.554956   -2.350678   -5.156507
     80          1           0        5.873994   -2.716708   -4.378914
     81          1           0        6.077534   -2.552509   -6.122838
     82          8           0        8.589756   -0.193837   -6.306400
     83          6           0        7.893966   -3.092205   -5.058347
     84          1           0        7.769561   -4.097934   -5.479954
     85          1           0        8.650994   -2.600097   -5.672137
     86          6           0        8.414430   -3.278047   -3.619603
     87          1           0        9.449691   -3.630698   -3.658699
     88          1           0        7.822756   -4.055391   -3.122852
     89          7           0        8.376173   -2.127935   -2.714670
     90          1           0        7.483823   -1.929984   -2.272157
     91          7           0        9.869497   -0.851374   -3.968667
     92          1           0       10.569887   -0.117366   -3.861245
     93          1           0        9.031740   -0.541029   -5.464799
     94          7           0        9.196412   -0.197957   -1.771340
     95          1           0        9.822669    0.594916   -1.802713
     96          1           0        9.120127   -0.633421   -0.860996
     97          6           0        9.207488   -1.045098   -2.866241
     98          8           0        6.568443    0.362817   -7.078051
 ---------------------------------------------------------------------

 SCF Done:  E(RB3LYP) =  -2360.13908982     A.U. after    3 cycles

 Alpha  occ. eigenvalues --  -19.26931 -19.21939 -19.21354 -19.20930 -19.19709
 Alpha  occ. eigenvalues --  -19.18525 -19.18343 -19.16644 -14.60099 -14.48818
 Alpha  occ. eigenvalues --  -14.45997 -14.44887 -14.43516 -14.42312 -14.41979
 Alpha  occ. eigenvalues --  -14.41178 -14.40177 -14.35561 -10.43419 -10.41214
 Alpha  occ. eigenvalues --  -10.38367 -10.36762 -10.35360 -10.35292 -10.35129
 Alpha  occ. eigenvalues --  -10.34891 -10.34219 -10.33836 -10.31497 -10.31404
 Alpha  occ. eigenvalues --  -10.30236 -10.30054 -10.29825 -10.29374 -10.28891
 Alpha  occ. eigenvalues --  -10.28155 -10.26748 -10.26621 -10.26009 -10.25997
 Alpha  occ. eigenvalues --  -10.25846 -10.25526 -10.25438 -10.24993 -10.24157
 Alpha  occ. eigenvalues --  -10.23912 -10.23568 -10.22884 -10.22853  -1.19304
 Alpha  occ. eigenvalues --   -1.13995  -1.13382  -1.12410  -1.11647  -1.10505
 Alpha  occ. eigenvalues --   -1.09712  -1.09410  -1.05948  -1.05634  -1.04450
 Alpha  occ. eigenvalues --   -1.03799  -1.01591  -1.00148  -0.99017  -0.98500
 Alpha  occ. eigenvalues --   -0.94518  -0.93487  -0.91109  -0.90455  -0.89391
 Alpha  occ. eigenvalues --   -0.87547  -0.85814  -0.84961  -0.83658  -0.82807
 Alpha  occ. eigenvalues --   -0.81538  -0.80758  -0.79718  -0.78682  -0.77480
 Alpha  occ. eigenvalues --   -0.76863  -0.74701  -0.74226  -0.73194  -0.72889
 Alpha  occ. eigenvalues --   -0.72157  -0.71289  -0.69969  -0.69550  -0.67947
 Alpha  occ. eigenvalues --   -0.67093  -0.66897  -0.66666  -0.66095  -0.65706
 Alpha  occ. eigenvalues --   -0.64247  -0.64197  -0.63822  -0.63496  -0.63219
 Alpha  occ. eigenvalues --   -0.62845  -0.62441  -0.61478  -0.60618  -0.59953
 Alpha  occ. eigenvalues --   -0.59759  -0.58749  -0.58457  -0.57171  -0.56913
 Alpha  occ. eigenvalues --   -0.56557  -0.56273  -0.55917  -0.55112  -0.54917
 Alpha  occ. eigenvalues --   -0.54353  -0.54214  -0.53934  -0.53531  -0.53450
 Alpha  occ. eigenvalues --   -0.53246  -0.52377  -0.52116  -0.52057  -0.51698
 Alpha  occ. eigenvalues --   -0.51302  -0.51040  -0.50488  -0.50253  -0.50090
 Alpha  occ. eigenvalues --   -0.49918  -0.49832  -0.49386  -0.49202  -0.49004
 Alpha  occ. eigenvalues --   -0.48693  -0.48406  -0.47548  -0.47405  -0.46726
 Alpha  occ. eigenvalues --   -0.46600  -0.46476  -0.46001  -0.45779  -0.45505
 Alpha  occ. eigenvalues --   -0.45435  -0.44903  -0.44477  -0.44374  -0.43901
 Alpha  occ. eigenvalues --   -0.43716  -0.43276  -0.42907  -0.42546  -0.42359
 Alpha  occ. eigenvalues --   -0.41581  -0.41507  -0.41425  -0.40744  -0.40536
 Alpha  occ. eigenvalues --   -0.40310  -0.39955  -0.39640  -0.39226  -0.39033
 Alpha  occ. eigenvalues --   -0.38786  -0.38207  -0.35876  -0.35152  -0.34716
 Alpha  occ. eigenvalues --   -0.34393  -0.33864  -0.33838  -0.33594  -0.33233
 Alpha  occ. eigenvalues --   -0.32763  -0.32351  -0.31743  -0.31370  -0.31180
 Alpha  occ. eigenvalues --   -0.30296  -0.29669  -0.28986  -0.28052
 Alpha virt. eigenvalues --   -0.12722  -0.10901  -0.08659  -0.07104  -0.06303
 Alpha virt. eigenvalues --   -0.05917  -0.04643  -0.04508  -0.04437  -0.03635
 Alpha virt. eigenvalues --   -0.02424  -0.02415  -0.01831  -0.01524  -0.00456

 Mulliken charges:
               1
     1  N   -0.758500
     2  H    0.413658
     3  H    0.412838
     4  H    0.435210
     5  C   -0.112438
     6  H    0.234060
     7  C    0.671537
     8  C   -0.484467
     9  H    0.225583
    10  H    0.192983
    11  H    0.192654
    12  O   -0.559653
    13  N   -0.615339
    14  H    0.384462
    15  C   -0.040196
    16  H    0.193504
    17  C    0.650416
    18  C   -0.394958
    19  H    0.188009
    20  H    0.183191
    21  O   -0.536354
    22  C    0.069727
    23  C   -0.025198
    24  H    0.140158
    25  C    0.079349
    26  C    0.302547
    27  C   -0.192067
    28  H    0.139234
    29  N   -0.689825
    30  H    0.333602
    31  C   -0.149000
    32  H    0.141881
    33  C   -0.160777
    34  H    0.134796
    35  C   -0.154875
    36  H    0.135630
    37  N   -0.606990
    38  H    0.357999
    39  C   -0.082610
    40  H    0.204235
    41  C    0.618276
    42  C   -0.020519
    43  H    0.146327
    44  H    0.137172
    45  O   -0.548993
    46  O   -0.608288
    47  H    0.405258
    48  N   -0.604653
    49  H    0.359000
    50  C   -0.058782
    51  H    0.172949
    52  C    0.616432
    53  C   -0.070982
    54  H    0.140040
    55  O   -0.550094
    56  C   -0.467902
    57  H    0.146290
    58  H    0.159185
    59  H    0.159617
    60  C   -0.453232
    61  H    0.154040
    62  H    0.149392
    63  H    0.163123
    64  N   -0.608258
    65  H    0.359328
    66  C   -0.047526
    67  H    0.186431
    68  C    0.631498
    69  C   -0.447595
    70  H    0.162788
    71  H    0.159832
    72  H    0.182606
    73  O   -0.567655
    74  N   -0.615775
    75  H    0.357088
    76  C   -0.065544
    77  H    0.180546
    78  C    0.599901
    79  C   -0.274752
    80  H    0.154820
    81  H    0.158663
    82  O   -0.605724
    83  C   -0.286444
    84  H    0.147194
    85  H    0.172636
    86  C   -0.121491
    87  H    0.172064
    88  H    0.147126
    89  N   -0.605593
    90  H    0.354167
    91  N   -0.714968
    92  H    0.291323
    93  H    0.471962
    94  N   -0.749623
    95  H    0.335107
    96  H    0.340236
    97  C    0.628453
    98  O   -0.480493
 Sum of Mulliken charges =   1.00000

 Dipole moment (field-independent basis, Debye):
    X=            -24.3050    Y=              4.7035    Z=             24.1186  Tot=             34.5624
 Quadrupole moment (field-independent basis, Debye-Ang):
   XX=             26.5180   YY=           -239.1191   ZZ=           -193.8315
   XY=            -46.3694   XZ=           -164.1922   YZ=             43.2987

 Normal termination of Gaussian 16 at Thu Jun 23 19:21:53 2022.
