 Gaussian 16, Revision C.01,
 Gaussian 16:  ES64L-G16RevC.01  3-Jul-2019

 ----------------------------------------------------------------------
 # B3LYP/6-31G* empiricaldispersion=gd3 guess=read geom=check nosymm in
 tegral(ultrafinegrid)
 ----------------------------------------------------------------------

 ------------------------------------------------------
 Candidate Structure: Conf:448 Charge calc in gas phase
 ------------------------------------------------------
 Structure from the checkpoint file:  "conf-448.chk"
 Charge =  1 Multiplicity = 1

                          Input orientation:
 ---------------------------------------------------------------------
 Center     Atomic      Atomic             Coordinates (Angstroms)
 Number     Number       Type             X           Y           Z
 ---------------------------------------------------------------------
      1          7           0       -2.637955    5.740757    4.642418
      2          1           0       -1.822361    6.096459    5.147785
      3          1           0       -3.469263    6.240801    4.969527
      4          1           0       -2.497963    5.883407    3.587735
      5          6           0       -2.784184    4.231246    4.710811
      6          1           0       -2.020459    3.849809    5.392866
      7          6           0       -2.476294    3.800802    3.246928
      8          6           0       -4.186121    3.833197    5.168711
      9          1           0       -4.275480    2.743614    5.177503
     10          1           0       -4.389083    4.191822    6.182919
     11          1           0       -4.947028    4.223057    4.483677
     12          8           0       -2.326372    4.707472    2.407583
     13          7           0       -2.418902    2.502878    3.016472
     14          1           0       -2.584153    1.794775    3.738136
     15          6           0       -2.208612    1.896934    1.702441
     16          1           0       -2.878368    2.373391    0.979276
     17          6           0       -2.574351    0.414127    1.918091
     18          6           0       -0.732325    2.048095    1.211387
     19          1           0       -0.119365    1.285305    1.699475
     20          1           0       -0.385554    3.032518    1.545302
     21          8           0       -2.781440   -0.009184    3.056654
     22          6           0       -0.602446    1.965373   -0.279385
     23          6           0       -0.117542    0.910150   -1.025858
     24          1           0        0.277173   -0.030951   -0.675952
     25          6           0       -0.927455    3.019350   -1.211230
     26          6           0       -0.605153    2.538761   -2.508939
     27          6           0       -1.441735    4.322490   -1.069709
     28          1           0       -1.695957    4.710718   -0.086955
     29          7           0       -0.116893    1.253030   -2.361818
     30          1           0        0.167890    0.666470   -3.134896
     31          6           0       -1.282702    4.592473   -3.491902
     32          1           0       -1.420441    5.228105   -4.361574
     33          6           0       -0.773276    3.311867   -3.663004
     34          1           0       -0.485847    2.927756   -4.635738
     35          6           0       -1.615711    5.091454   -2.212587
     36          1           0       -2.009386    6.100408   -2.126180
     37          7           0       -2.616445   -0.353648    0.804677
     38          1           0       -2.197676    0.064501   -0.023498
     39          6           0       -2.459163   -1.795398    0.927335
     40          1           0       -3.120261   -2.156396    1.718980
     41          6           0       -0.993617   -2.126688    1.269678
     42          6           0       -2.874628   -2.468853   -0.413371
     43          1           0       -2.254922   -2.063952   -1.226206
     44          1           0       -3.912803   -2.184690   -0.614758
     45          8           0       -0.106963   -1.272776    1.230275
     46          8           0       -2.800106   -3.879299   -0.355714
     47          1           0       -1.967319   -4.181903   -0.773677
     48          7           0       -0.746774   -3.442399    1.515029
     49          1           0       -1.527283   -4.064527    1.317105
     50          6           0        0.575757   -3.984280    1.166033
     51          1           0        1.328501   -3.355169    1.649349
     52          6           0        0.660233   -3.870559   -0.372049
     53          6           0        0.728326   -5.439209    1.635589
     54          1           0       -0.056759   -6.020637    1.132630
     55          8           0       -0.070836   -4.569930   -1.087234
     56          6           0        2.088869   -5.997111    1.193591
     57          1           0        2.911766   -5.413942    1.626575
     58          1           0        2.202431   -7.032431    1.530324
     59          1           0        2.196789   -5.989096    0.103744
     60          6           0        0.548080   -5.548890    3.154842
     61          1           0        1.329437   -4.985600    3.680634
     62          1           0        0.619345   -6.594753    3.471418
     63          1           0       -0.421484   -5.159736    3.480766
     64          7           0        1.496552   -2.922751   -0.839502
     65          1           0        1.924103   -2.279071   -0.178953
     66          6           0        1.616670   -2.501842   -2.230415
     67          1           0        2.173756   -3.260050   -2.796845
     68          6           0        2.435139   -1.192667   -2.207455
     69          6           0        0.255573   -2.271492   -2.921168
     70          1           0        0.384080   -1.898055   -3.941467
     71          1           0       -0.333996   -1.539356   -2.361631
     72          1           0       -0.298807   -3.208349   -2.957586
     73          8           0        2.739459   -0.646288   -1.139939
     74          7           0        2.747779   -0.675990   -3.417090
     75          1           0        2.346710   -1.090974   -4.250112
     76          6           0        3.163903    0.713160   -3.560933
     77          1           0        3.043651    1.144687   -2.575474
     78          6           0        2.166117    1.444532   -4.475188
     79          6           0        4.632602    0.845286   -4.013848
     80          1           0        4.785708    0.155166   -4.852075
     81          1           0        4.799573    1.853258   -4.407013
     82          8           0        2.258775    2.757484   -4.521727
     83          6           0        5.646177    0.536793   -2.894166
     84          1           0        5.308136   -0.337281   -2.323075
     85          1           0        6.603149    0.257992   -3.353265
     86          6           0        5.946588    1.695904   -1.922182
     87          1           0        6.310410    2.565756   -2.479313
     88          1           0        6.766773    1.402808   -1.259155
     89          7           0        4.843007    2.121912   -1.059979
     90          1           0        4.626298    1.493184   -0.296764
     91          7           0        3.805887    3.689735   -2.535451
     92          1           0        2.845545    3.168157   -3.780264
     93          1           0        4.751216    3.860102   -2.872844
     94          7           0        2.627429    2.734676   -0.788386
     95          1           0        1.842411    3.262354   -1.153477
     96          1           0        2.377002    1.796137   -0.494387
     97          6           0        3.791943    2.882758   -1.508400
     98          8           0        1.310971    0.824603   -5.094444
 ---------------------------------------------------------------------

 SCF Done:  E(RB3LYP) =  -2360.17479464     A.U. after    1 cycles

 Alpha  occ. eigenvalues --  -19.27694 -19.23637 -19.22391 -19.22129 -19.21911
 Alpha  occ. eigenvalues --  -19.20599 -19.20105 -19.19880 -14.60633 -14.49785
 Alpha  occ. eigenvalues --  -14.45337 -14.45221 -14.44873 -14.44350 -14.43701
 Alpha  occ. eigenvalues --  -14.43252 -14.41787 -14.36900 -10.44155 -10.41915
 Alpha  occ. eigenvalues --  -10.39084 -10.38656 -10.38481 -10.37070 -10.36945
 Alpha  occ. eigenvalues --  -10.36813 -10.34420 -10.34416 -10.32811 -10.32202
 Alpha  occ. eigenvalues --  -10.31763 -10.31122 -10.30707 -10.30209 -10.29109
 Alpha  occ. eigenvalues --  -10.28638 -10.28526 -10.26985 -10.26659 -10.26438
 Alpha  occ. eigenvalues --  -10.26366 -10.26248 -10.25392 -10.25082 -10.24757
 Alpha  occ. eigenvalues --  -10.24575 -10.24514 -10.23960 -10.23752  -1.20009
 Alpha  occ. eigenvalues --   -1.15529  -1.14678  -1.14173  -1.13581  -1.12530
 Alpha  occ. eigenvalues --   -1.11283  -1.09499  -1.07368  -1.06572  -1.05982
 Alpha  occ. eigenvalues --   -1.04981  -1.02241  -1.01841  -1.00891  -1.00556
 Alpha  occ. eigenvalues --   -0.96619  -0.94086  -0.92063  -0.90561  -0.89442
 Alpha  occ. eigenvalues --   -0.88427  -0.87684  -0.85555  -0.85411  -0.83704
 Alpha  occ. eigenvalues --   -0.81731  -0.81579  -0.79983  -0.79128  -0.78187
 Alpha  occ. eigenvalues --   -0.76555  -0.75735  -0.74947  -0.74779  -0.74059
 Alpha  occ. eigenvalues --   -0.73347  -0.72674  -0.71164  -0.69173  -0.68910
 Alpha  occ. eigenvalues --   -0.68759  -0.68425  -0.67053  -0.66550  -0.66286
 Alpha  occ. eigenvalues --   -0.65936  -0.65456  -0.65365  -0.64637  -0.63908
 Alpha  occ. eigenvalues --   -0.63573  -0.63485  -0.62861  -0.61371  -0.60425
 Alpha  occ. eigenvalues --   -0.60005  -0.59759  -0.59636  -0.59057  -0.58234
 Alpha  occ. eigenvalues --   -0.58191  -0.57421  -0.56932  -0.56342  -0.56176
 Alpha  occ. eigenvalues --   -0.55666  -0.55210  -0.54831  -0.54515  -0.54303
 Alpha  occ. eigenvalues --   -0.54178  -0.53947  -0.53541  -0.52678  -0.52597
 Alpha  occ. eigenvalues --   -0.52409  -0.52315  -0.51917  -0.51492  -0.51041
 Alpha  occ. eigenvalues --   -0.50929  -0.50509  -0.50350  -0.50122  -0.49655
 Alpha  occ. eigenvalues --   -0.49326  -0.49136  -0.48808  -0.48628  -0.48276
 Alpha  occ. eigenvalues --   -0.47970  -0.47767  -0.47535  -0.47380  -0.47037
 Alpha  occ. eigenvalues --   -0.46903  -0.46387  -0.46173  -0.45922  -0.45552
 Alpha  occ. eigenvalues --   -0.44828  -0.44592  -0.44492  -0.44121  -0.43805
 Alpha  occ. eigenvalues --   -0.43131  -0.42344  -0.42297  -0.41741  -0.40984
 Alpha  occ. eigenvalues --   -0.40822  -0.40680  -0.40453  -0.40118  -0.39798
 Alpha  occ. eigenvalues --   -0.39725  -0.39579  -0.37283  -0.36869  -0.36415
 Alpha  occ. eigenvalues --   -0.36192  -0.35961  -0.35736  -0.35206  -0.35068
 Alpha  occ. eigenvalues --   -0.34241  -0.33975  -0.33739  -0.33534  -0.33392
 Alpha  occ. eigenvalues --   -0.31806  -0.30593  -0.29116  -0.27512
 Alpha virt. eigenvalues --   -0.12831  -0.11831  -0.08447  -0.08013  -0.07750
 Alpha virt. eigenvalues --   -0.07391  -0.06889  -0.06103  -0.05851  -0.05061
 Alpha virt. eigenvalues --   -0.04261  -0.03946  -0.02063  -0.01909  -0.01431

 Mulliken charges:
               1
     1  N   -0.758800
     2  H    0.418224
     3  H    0.415499
     4  H    0.437625
     5  C   -0.107605
     6  H    0.226613
     7  C    0.658926
     8  C   -0.483638
     9  H    0.222576
    10  H    0.196577
    11  H    0.197282
    12  O   -0.540744
    13  N   -0.613217
    14  H    0.376529
    15  C   -0.063812
    16  H    0.207167
    17  C    0.629811
    18  C   -0.363243
    19  H    0.197033
    20  H    0.170834
    21  O   -0.539839
    22  C   -0.009137
    23  C   -0.047249
    24  H    0.203076
    25  C    0.066183
    26  C    0.275882
    27  C   -0.225815
    28  H    0.143248
    29  N   -0.704541
    30  H    0.360779
    31  C   -0.152775
    32  H    0.143309
    33  C   -0.148692
    34  H    0.176117
    35  C   -0.139619
    36  H    0.128255
    37  N   -0.595003
    38  H    0.352508
    39  C   -0.104697
    40  H    0.206680
    41  C    0.612220
    42  C   -0.055421
    43  H    0.142038
    44  H    0.177385
    45  O   -0.537902
    46  O   -0.641359
    47  H    0.440681
    48  N   -0.594495
    49  H    0.354659
    50  C   -0.035000
    51  H    0.163019
    52  C    0.618158
    53  C   -0.099925
    54  H    0.154403
    55  O   -0.567958
    56  C   -0.462526
    57  H    0.143270
    58  H    0.164653
    59  H    0.162839
    60  C   -0.448252
    61  H    0.145202
    62  H    0.159975
    63  H    0.156384
    64  N   -0.615544
    65  H    0.375236
    66  C   -0.017206
    67  H    0.191308
    68  C    0.609142
    69  C   -0.504078
    70  H    0.172667
    71  H    0.156448
    72  H    0.215927
    73  O   -0.559517
    74  N   -0.595797
    75  H    0.352868
    76  C   -0.102327
    77  H    0.195740
    78  C    0.622535
    79  C   -0.261898
    80  H    0.160024
    81  H    0.155737
    82  O   -0.595240
    83  C   -0.268277
    84  H    0.157588
    85  H    0.156599
    86  C   -0.161618
    87  H    0.162388
    88  H    0.169100
    89  N   -0.558971
    90  H    0.336884
    91  N   -0.736975
    92  H    0.470119
    93  H    0.299305
    94  N   -0.755866
    95  H    0.364944
    96  H    0.354674
    97  C    0.603666
    98  O   -0.513938
 Sum of Mulliken charges =   1.00000

 Dipole moment (field-independent basis, Debye):
    X=             -3.3754    Y=             14.8018    Z=             16.2775  Tot=             22.2586
 Quadrupole moment (field-independent basis, Debye-Ang):
   XX=           -215.5763   YY=           -179.9424   ZZ=           -192.1549
   XY=            -62.8726   XZ=            -68.9255   YZ=            100.7930

 Normal termination of Gaussian 16 at Thu Jun 23 19:21:27 2022.
