 Gaussian 16, Revision C.01,
 Gaussian 16:  ES64L-G16RevC.01  3-Jul-2019

 ----------------------------------------------------------------------
 # B3LYP/6-31G* empiricaldispersion=gd3 guess=read geom=check nosymm in
 tegral(ultrafinegrid)
 ----------------------------------------------------------------------

 ------------------------------------------------------
 Candidate Structure: Conf:950 Charge calc in gas phase
 ------------------------------------------------------
 Structure from the checkpoint file:  "conf-950.chk"
 Charge =  1 Multiplicity = 1

                          Input orientation:
 ---------------------------------------------------------------------
 Center     Atomic      Atomic             Coordinates (Angstroms)
 Number     Number       Type             X           Y           Z
 ---------------------------------------------------------------------
      1          7           0       -3.857588    2.262562    7.395392
      2          1           0       -3.462602    3.215752    7.311258
      3          1           0       -3.971322    2.019844    8.381257
      4          1           0       -4.770407    2.248666    6.880381
      5          6           0       -3.005506    1.271940    6.624885
      6          1           0       -1.974397    1.628398    6.644662
      7          6           0       -3.633072    1.348724    5.213603
      8          6           0       -3.103760   -0.127913    7.218768
      9          1           0       -2.427482   -0.772637    6.652438
     10          1           0       -2.770108   -0.135794    8.262939
     11          1           0       -4.122623   -0.525012    7.156794
     12          8           0       -4.823517    1.690030    5.127620
     13          7           0       -2.819663    1.069036    4.198274
     14          1           0       -1.894163    0.672246    4.404555
     15          6           0       -3.207733    1.222909    2.803862
     16          1           0       -4.286471    1.048077    2.727294
     17          6           0       -2.450368    0.137455    2.011070
     18          6           0       -2.899944    2.668220    2.297196
     19          1           0       -3.224031    2.751502    1.253276
     20          1           0       -1.813638    2.803637    2.284971
     21          8           0       -1.780323   -0.702763    2.586352
     22          6           0       -3.589115    3.735439    3.097479
     23          6           0       -4.811642    4.292229    2.815085
     24          1           0       -5.456183    4.134229    1.961007
     25          6           0       -3.181857    4.291745    4.363097
     26          6           0       -4.222441    5.163704    4.800886
     27          6           0       -2.068248    4.106250    5.195467
     28          1           0       -1.282764    3.416640    4.918426
     29          7           0       -5.195224    5.148004    3.828900
     30          1           0       -6.047055    5.687752    3.842736
     31          6           0       -3.057685    5.618730    6.838600
     32          1           0       -2.986180    6.131613    7.793721
     33          6           0       -4.173609    5.830047    6.029692
     34          1           0       -4.977862    6.488608    6.345716
     35          6           0       -2.011244    4.761049    6.424575
     36          1           0       -1.152018    4.599235    7.069089
     37          7           0       -2.605511    0.163758    0.640767
     38          1           0       -2.919481    1.048137    0.261137
     39          6           0       -1.567368   -0.479663   -0.147519
     40          1           0       -1.292261   -1.399764    0.375885
     41          6           0       -0.295167    0.408956   -0.146283
     42          6           0       -2.089809   -0.859712   -1.536134
     43          1           0       -2.208905    0.038100   -2.163599
     44          1           0       -3.075216   -1.330606   -1.418429
     45          8           0       -0.282471    1.474099    0.465296
     46          8           0       -1.146223   -1.768141   -2.103043
     47          1           0       -1.368774   -1.911277   -3.034924
     48          7           0        0.767585   -0.097635   -0.845924
     49          1           0        0.574988   -0.995169   -1.279995
     50          6           0        2.138177    0.082297   -0.366803
     51          1           0        2.792459   -0.441385   -1.076471
     52          6           0        2.229712   -0.636732    1.008066
     53          6           0        2.582649    1.578581   -0.346613
     54          1           0        1.927033    2.098011    0.355282
     55          8           0        1.215816   -0.926608    1.637550
     56          6           0        4.038653    1.779063    0.104788
     57          1           0        4.734344    1.165403   -0.486157
     58          1           0        4.329248    2.822872   -0.057185
     59          1           0        4.189075    1.567601    1.168024
     60          6           0        2.364421    2.189876   -1.738069
     61          1           0        2.985766    1.688191   -2.491621
     62          1           0        2.639173    3.250522   -1.732778
     63          1           0        1.319967    2.107956   -2.048004
     64          7           0        3.471433   -0.940632    1.480221
     65          1           0        4.277854   -0.557109    1.006289
     66          6           0        3.646370   -1.259904    2.907183
     67          1           0        2.918676   -2.037246    3.153221
     68          6           0        3.334621    0.038824    3.681135
     69          6           0        5.067759   -1.740247    3.170724
     70          1           0        5.174256   -2.045057    4.216120
     71          1           0        5.779630   -0.929834    2.985346
     72          1           0        5.307959   -2.595878    2.532411
     73          8           0        4.170105    0.948031    3.745104
     74          7           0        2.086131    0.135021    4.197558
     75          1           0        1.376120   -0.532576    3.910305
     76          6           0        1.594232    1.428329    4.642532
     77          1           0        2.425176    1.894128    5.169769
     78          6           0        0.395864    1.274717    5.595732
     79          6           0        1.168623    2.324970    3.427098
     80          1           0        1.138537    1.688659    2.540460
     81          1           0        0.135531    2.673902    3.550468
     82          8           0        0.219016    2.232217    6.438978
     83          6           0        2.082156    3.538129    3.178287
     84          1           0        3.125037    3.234477    3.323481
     85          1           0        1.981122    3.867863    2.136418
     86          6           0        1.737873    4.744204    4.068027
     87          1           0        0.741265    5.124350    3.822941
     88          1           0        2.428971    5.579072    3.906540
     89          7           0        1.683950    4.408445    5.499105
     90          1           0        0.897046    3.797008    5.773608
     91          7           0        3.923109    4.824240    6.069598
     92          1           0        4.764792    4.450886    6.483836
     93          1           0        4.048838    5.386934    5.242016
     94          7           0        2.582174    3.417243    7.355997
     95          1           0        3.302248    3.314604    8.054672
     96          1           0        1.751086    2.806596    7.354013
     97          6           0        2.741801    4.210650    6.289428
     98          8           0       -0.368445    0.306320    5.429454
 ---------------------------------------------------------------------

 SCF Done:  E(RB3LYP) =  -2360.19465197     A.U. after    2 cycles

 Alpha  occ. eigenvalues --  -19.23298 -19.21301 -19.18929 -19.18760 -19.18580
 Alpha  occ. eigenvalues --  -19.18551 -19.17929 -19.17545 -14.54329 -14.49040
 Alpha  occ. eigenvalues --  -14.47279 -14.46782 -14.46346 -14.43957 -14.43191
 Alpha  occ. eigenvalues --  -14.42912 -14.41684 -14.41634 -10.44318 -10.38044
 Alpha  occ. eigenvalues --  -10.36031 -10.35711 -10.35599 -10.35435 -10.34796
 Alpha  occ. eigenvalues --  -10.34017 -10.32611 -10.31660 -10.31436 -10.30675
 Alpha  occ. eigenvalues --  -10.30595 -10.30115 -10.29978 -10.29795 -10.29156
 Alpha  occ. eigenvalues --  -10.27993 -10.27835 -10.27723 -10.27717 -10.27247
 Alpha  occ. eigenvalues --  -10.27191 -10.27037 -10.26930 -10.26375 -10.25999
 Alpha  occ. eigenvalues --  -10.25992 -10.24588 -10.24280 -10.23339  -1.13694
 Alpha  occ. eigenvalues --   -1.13061  -1.11645  -1.11121  -1.11017  -1.10369
 Alpha  occ. eigenvalues --   -1.09703  -1.09256  -1.08376  -1.06307  -1.02771
 Alpha  occ. eigenvalues --   -1.01865  -1.01091  -1.00969  -0.99567  -0.99422
 Alpha  occ. eigenvalues --   -0.98746  -0.98293  -0.92813  -0.89119  -0.87777
 Alpha  occ. eigenvalues --   -0.87227  -0.87099  -0.84636  -0.83831  -0.82622
 Alpha  occ. eigenvalues --   -0.82120  -0.81638  -0.80168  -0.77380  -0.76803
 Alpha  occ. eigenvalues --   -0.76242  -0.74783  -0.74260  -0.73964  -0.71437
 Alpha  occ. eigenvalues --   -0.70932  -0.70637  -0.69830  -0.68824  -0.68418
 Alpha  occ. eigenvalues --   -0.67933  -0.67321  -0.67237  -0.66291  -0.65880
 Alpha  occ. eigenvalues --   -0.65647  -0.65226  -0.64595  -0.64146  -0.62712
 Alpha  occ. eigenvalues --   -0.62416  -0.61756  -0.61543  -0.61221  -0.60888
 Alpha  occ. eigenvalues --   -0.59954  -0.59140  -0.58149  -0.57774  -0.57570
 Alpha  occ. eigenvalues --   -0.57149  -0.56326  -0.56076  -0.55687  -0.55452
 Alpha  occ. eigenvalues --   -0.54740  -0.54466  -0.53923  -0.53572  -0.53224
 Alpha  occ. eigenvalues --   -0.52796  -0.52600  -0.52315  -0.51986  -0.51667
 Alpha  occ. eigenvalues --   -0.51325  -0.51220  -0.50858  -0.50547  -0.50048
 Alpha  occ. eigenvalues --   -0.49783  -0.49397  -0.49149  -0.49105  -0.48726
 Alpha  occ. eigenvalues --   -0.48642  -0.48192  -0.47935  -0.47816  -0.47379
 Alpha  occ. eigenvalues --   -0.46937  -0.46734  -0.46423  -0.46050  -0.45764
 Alpha  occ. eigenvalues --   -0.45481  -0.45301  -0.45197  -0.44971  -0.44842
 Alpha  occ. eigenvalues --   -0.44527  -0.43931  -0.43692  -0.43657  -0.43170
 Alpha  occ. eigenvalues --   -0.42738  -0.42626  -0.42460  -0.42348  -0.41875
 Alpha  occ. eigenvalues --   -0.41302  -0.40923  -0.40391  -0.39866  -0.39611
 Alpha  occ. eigenvalues --   -0.39364  -0.36606  -0.36497  -0.35823  -0.35571
 Alpha  occ. eigenvalues --   -0.34499  -0.34400  -0.34126  -0.33906  -0.33671
 Alpha  occ. eigenvalues --   -0.33153  -0.32411  -0.32251  -0.31970  -0.31278
 Alpha  occ. eigenvalues --   -0.31062  -0.30909  -0.29873  -0.28518
 Alpha virt. eigenvalues --   -0.10218  -0.09142  -0.07670  -0.06490  -0.05932
 Alpha virt. eigenvalues --   -0.05695  -0.05220  -0.04917  -0.04668  -0.04176
 Alpha virt. eigenvalues --   -0.03500  -0.01958  -0.01777  -0.00866  -0.00243

 Mulliken charges:
               1
     1  N   -0.763369
     2  H    0.415816
     3  H    0.391750
     4  H    0.411534
     5  C   -0.122218
     6  H    0.252955
     7  C    0.642776
     8  C   -0.476820
     9  H    0.235060
    10  H    0.162851
    11  H    0.173060
    12  O   -0.562969
    13  N   -0.631774
    14  H    0.430189
    15  C   -0.064790
    16  H    0.196096
    17  C    0.626393
    18  C   -0.380685
    19  H    0.144991
    20  H    0.194385
    21  O   -0.486324
    22  C    0.084416
    23  C    0.025749
    24  H    0.165401
    25  C    0.066188
    26  C    0.327401
    27  C   -0.229621
    28  H    0.155832
    29  N   -0.686394
    30  H    0.341672
    31  C   -0.186256
    32  H    0.144453
    33  C   -0.164792
    34  H    0.146664
    35  C   -0.216938
    36  H    0.143320
    37  N   -0.602552
    38  H    0.329481
    39  C   -0.101546
    40  H    0.233798
    41  C    0.626392
    42  C   -0.041157
    43  H    0.135209
    44  H    0.161431
    45  O   -0.538985
    46  O   -0.624777
    47  H    0.413960
    48  N   -0.591129
    49  H    0.364413
    50  C   -0.087756
    51  H    0.154938
    52  C    0.623307
    53  C   -0.084570
    54  H    0.178966
    55  O   -0.518226
    56  C   -0.501598
    57  H    0.137568
    58  H    0.153928
    59  H    0.176539
    60  C   -0.441095
    61  H    0.139906
    62  H    0.144474
    63  H    0.164521
    64  N   -0.593617
    65  H    0.340359
    66  C   -0.039366
    67  H    0.177111
    68  C    0.616269
    69  C   -0.474750
    70  H    0.168807
    71  H    0.172962
    72  H    0.165177
    73  O   -0.562493
    74  N   -0.590647
    75  H    0.375763
    76  C   -0.032080
    77  H    0.149705
    78  C    0.605471
    79  C   -0.336984
    80  H    0.218088
    81  H    0.148985
    82  O   -0.648614
    83  C   -0.283569
    84  H    0.181684
    85  H    0.162635
    86  C   -0.190845
    87  H    0.189180
    88  H    0.154007
    89  N   -0.604584
    90  H    0.412435
    91  N   -0.755688
    92  H    0.373086
    93  H    0.377059
    94  N   -0.776119
    95  H    0.358794
    96  H    0.409857
    97  C    0.777729
    98  O   -0.557250
 Sum of Mulliken charges =   1.00000

 Dipole moment (field-independent basis, Debye):
    X=             -2.4198    Y=             15.9899    Z=             21.9530  Tot=             27.2665
 Quadrupole moment (field-independent basis, Debye-Ang):
   XX=           -179.3919   YY=           -208.5904   ZZ=            -78.9380
   XY=            -12.8920   XZ=            -13.1107   YZ=            101.5612

 Normal termination of Gaussian 16 at Thu Jun 23 19:22:02 2022.
