 Gaussian 16, Revision C.01,
 Gaussian 16:  ES64L-G16RevC.01  3-Jul-2019

 ----------------------------------------------------------------------
 # B3LYP/6-31G* empiricaldispersion=gd3 guess=read geom=check nosymm in
 tegral(ultrafinegrid)
 ----------------------------------------------------------------------

 ------------------------------------------------------
 Candidate Structure: Conf:197 Charge calc in gas phase
 ------------------------------------------------------
 Structure from the checkpoint file:  "conf-197.chk"
 Charge =  1 Multiplicity = 1

                          Input orientation:
 ---------------------------------------------------------------------
 Center     Atomic      Atomic             Coordinates (Angstroms)
 Number     Number       Type             X           Y           Z
 ---------------------------------------------------------------------
      1          7           0       -1.439959    4.771296    1.856313
      2          1           0       -0.800351    4.668512    2.655452
      3          1           0       -1.838715    5.710305    1.867933
      4          1           0       -0.780110    4.649671    0.929591
      5          6           0       -2.476514    3.700096    1.922641
      6          1           0       -3.242592    4.001441    2.646571
      7          6           0       -1.779017    2.479845    2.560148
      8          6           0       -3.118684    3.496702    0.551846
      9          1           0       -3.976206    2.822550    0.630831
     10          1           0       -3.500772    4.448246    0.168086
     11          1           0       -2.401247    3.098933   -0.171468
     12          8           0       -0.835063    2.663245    3.326763
     13          7           0       -2.309643    1.266399    2.287473
     14          1           0       -2.999833    1.155763    1.558458
     15          6           0       -2.000276    0.084262    3.070509
     16          1           0       -1.031625    0.265715    3.545729
     17          6           0       -1.888995   -1.114401    2.120130
     18          6           0       -3.075629   -0.161248    4.181628
     19          1           0       -2.720687   -0.962775    4.839417
     20          1           0       -3.991289   -0.531595    3.703747
     21          8           0       -2.249681   -1.035720    0.949579
     22          6           0       -3.361697    1.090394    4.951692
     23          6           0       -2.690627    1.563166    6.052712
     24          1           0       -1.911964    1.095322    6.639420
     25          6           0       -4.276017    2.130730    4.553475
     26          6           0       -4.090525    3.219746    5.449563
     27          6           0       -5.213022    2.259200    3.512494
     28          1           0       -5.389784    1.434422    2.826282
     29          7           0       -3.126259    2.835681    6.357822
     30          1           0       -2.803217    3.388541    7.136856
     31          6           0       -5.697163    4.527755    4.265177
     32          1           0       -6.259938    5.447653    4.136129
     33          6           0       -4.791088    4.423912    5.315810
     34          1           0       -4.634956    5.247344    6.007296
     35          6           0       -5.912583    3.452292    3.375144
     36          1           0       -6.642953    3.560597    2.578285
     37          7           0       -1.419178   -2.268850    2.692514
     38          1           0       -0.945193   -2.125948    3.576852
     39          6           0       -0.765766   -3.301223    1.886379
     40          1           0       -0.584979   -4.154238    2.552044
     41          6           0        0.628783   -2.773220    1.465010
     42          6           0       -1.643205   -3.834578    0.745478
     43          1           0       -1.737461   -3.094895   -0.053196
     44          1           0       -2.642375   -4.046819    1.145601
     45          8           0        1.166727   -1.891269    2.147432
     46          8           0       -0.998024   -5.031505    0.283879
     47          1           0       -1.532067   -5.408329   -0.432196
     48          7           0        1.198706   -3.326065    0.376204
     49          1           0        0.685494   -4.067941   -0.094432
     50          6           0        2.566073   -2.999706   -0.053963
     51          1           0        3.145866   -2.808532    0.858322
     52          6           0        2.498746   -1.681404   -0.867408
     53          6           0        3.210421   -4.158665   -0.831889
     54          1           0        2.680483   -4.247721   -1.789502
     55          8           0        2.652527   -1.634945   -2.094717
     56          6           0        4.684505   -3.839098   -1.127056
     57          1           0        5.252294   -3.724391   -0.194826
     58          1           0        5.142268   -4.656106   -1.694054
     59          1           0        4.790350   -2.923750   -1.714575
     60          6           0        3.099660   -5.482886   -0.059015
     61          1           0        3.591064   -5.404553    0.918842
     62          1           0        3.594970   -6.284073   -0.617153
     63          1           0        2.063853   -5.792682    0.113487
     64          7           0        2.225349   -0.600252   -0.100135
     65          1           0        2.074105   -0.786284    0.892676
     66          6           0        1.651820    0.632308   -0.609545
     67          1           0        1.520571    0.508039   -1.690524
     68          6           0        2.595235    1.821398   -0.371664
     69          6           0        0.288793    0.878137    0.067495
     70          1           0       -0.175154    1.805979   -0.275420
     71          1           0        0.415850    0.965234    1.152120
     72          1           0       -0.388665    0.046944   -0.133180
     73          8           0        3.677161    1.698930    0.227956
     74          7           0        2.183683    2.994797   -0.898294
     75          1           0        1.215910    3.028914   -1.211978
     76          6           0        2.540216    4.281214   -0.281110
     77          1           0        3.237232    4.080665    0.536672
     78          6           0        1.242676    4.859860    0.356500
     79          6           0        3.161935    5.300872   -1.247253
     80          1           0        2.521120    5.394291   -2.134876
     81          1           0        3.119140    6.264352   -0.727255
     82          8           0        1.341984    5.741813    1.208478
     83          6           0        4.623488    5.074250   -1.680916
     84          1           0        4.977466    6.004415   -2.139897
     85          1           0        5.262351    4.914673   -0.801468
     86          6           0        4.888116    3.963535   -2.710059
     87          1           0        5.838198    4.157636   -3.223851
     88          1           0        4.084626    3.972779   -3.459478
     89          7           0        4.953909    2.636772   -2.085812
     90          1           0        4.797523    2.580104   -1.075795
     91          7           0        4.708971    1.453895   -4.081143
     92          1           0        4.796473    0.566097   -4.555284
     93          1           0        4.921805    2.274928   -4.627024
     94          7           0        4.736583    0.322922   -2.056199
     95          1           0        4.167583   -0.435783   -2.441686
     96          1           0        4.608117    0.415175   -1.048209
     97          6           0        4.799113    1.483763   -2.734964
     98          8           0        0.141113    4.328735   -0.075841
 ---------------------------------------------------------------------

 SCF Done:  E(RB3LYP) =  -2360.20721915     A.U. after    1 cycles

 Alpha  occ. eigenvalues --  -19.25170 -19.21985 -19.21773 -19.21338 -19.21334
 Alpha  occ. eigenvalues --  -19.20909 -19.18748 -19.16578 -14.49454 -14.48644
 Alpha  occ. eigenvalues --  -14.48158 -14.46407 -14.45482 -14.45339 -14.45253
 Alpha  occ. eigenvalues --  -14.45200 -14.44480 -14.44374 -10.44589 -10.38484
 Alpha  occ. eigenvalues --  -10.38348 -10.38280 -10.38231 -10.38058 -10.35205
 Alpha  occ. eigenvalues --  -10.33730 -10.33730 -10.33245 -10.32809 -10.32607
 Alpha  occ. eigenvalues --  -10.32433 -10.32014 -10.30297 -10.29345 -10.29277
 Alpha  occ. eigenvalues --  -10.28763 -10.28276 -10.28155 -10.27459 -10.27235
 Alpha  occ. eigenvalues --  -10.26361 -10.26309 -10.26122 -10.25802 -10.25795
 Alpha  occ. eigenvalues --  -10.25615 -10.25572 -10.24898 -10.24865  -1.14131
 Alpha  occ. eigenvalues --   -1.13981  -1.13280  -1.12932  -1.12792  -1.12379
 Alpha  occ. eigenvalues --   -1.11878  -1.11206  -1.05260  -1.04435  -1.02873
 Alpha  occ. eigenvalues --   -1.02504  -1.02287  -1.01901  -1.01806  -1.01235
 Alpha  occ. eigenvalues --   -1.01135  -1.00649  -0.91266  -0.89443  -0.89202
 Alpha  occ. eigenvalues --   -0.88744  -0.86426  -0.86398  -0.85613  -0.83068
 Alpha  occ. eigenvalues --   -0.82774  -0.80896  -0.79420  -0.79058  -0.77278
 Alpha  occ. eigenvalues --   -0.75958  -0.75870  -0.75143  -0.74898  -0.73799
 Alpha  occ. eigenvalues --   -0.72967  -0.70793  -0.69596  -0.69466  -0.68419
 Alpha  occ. eigenvalues --   -0.68093  -0.67280  -0.66843  -0.66750  -0.66590
 Alpha  occ. eigenvalues --   -0.66216  -0.65547  -0.64646  -0.64405  -0.63576
 Alpha  occ. eigenvalues --   -0.63191  -0.62294  -0.61661  -0.61281  -0.60831
 Alpha  occ. eigenvalues --   -0.60167  -0.59889  -0.59515  -0.59039  -0.58443
 Alpha  occ. eigenvalues --   -0.57728  -0.57185  -0.56800  -0.56478  -0.55978
 Alpha  occ. eigenvalues --   -0.55607  -0.55394  -0.54732  -0.54627  -0.54340
 Alpha  occ. eigenvalues --   -0.54042  -0.53425  -0.52528  -0.52296  -0.52139
 Alpha  occ. eigenvalues --   -0.52092  -0.51964  -0.51512  -0.51105  -0.50753
 Alpha  occ. eigenvalues --   -0.50554  -0.50481  -0.50190  -0.50078  -0.49752
 Alpha  occ. eigenvalues --   -0.49398  -0.48994  -0.48846  -0.48643  -0.48491
 Alpha  occ. eigenvalues --   -0.48387  -0.47906  -0.47759  -0.47047  -0.46762
 Alpha  occ. eigenvalues --   -0.46599  -0.46428  -0.46197  -0.45932  -0.45780
 Alpha  occ. eigenvalues --   -0.45542  -0.45175  -0.45040  -0.44572  -0.44197
 Alpha  occ. eigenvalues --   -0.43657  -0.43617  -0.43444  -0.42594  -0.42167
 Alpha  occ. eigenvalues --   -0.42008  -0.41468  -0.40934  -0.40839  -0.40630
 Alpha  occ. eigenvalues --   -0.39885  -0.37959  -0.37733  -0.37066  -0.36687
 Alpha  occ. eigenvalues --   -0.36320  -0.35856  -0.35676  -0.35280  -0.34795
 Alpha  occ. eigenvalues --   -0.34576  -0.34441  -0.34063  -0.33653  -0.33350
 Alpha  occ. eigenvalues --   -0.33182  -0.30097  -0.29708  -0.27548
 Alpha virt. eigenvalues --   -0.09753  -0.09030  -0.08556  -0.08411  -0.07754
 Alpha virt. eigenvalues --   -0.07185  -0.06660  -0.04842  -0.04302  -0.02929
 Alpha virt. eigenvalues --   -0.02833  -0.02224  -0.01432  -0.00609  -0.00329

 Mulliken charges:
               1
     1  N   -0.775579
     2  H    0.401900
     3  H    0.376399
     4  H    0.462770
     5  C   -0.098609
     6  H    0.227467
     7  C    0.663107
     8  C   -0.487834
     9  H    0.172534
    10  H    0.175966
    11  H    0.194832
    12  O   -0.537850
    13  N   -0.603989
    14  H    0.350139
    15  C   -0.074673
    16  H    0.205511
    17  C    0.631813
    18  C   -0.361881
    19  H    0.158172
    20  H    0.164650
    21  O   -0.528432
    22  C    0.067138
    23  C    0.028557
    24  H    0.163189
    25  C    0.073006
    26  C    0.316415
    27  C   -0.228603
    28  H    0.122464
    29  N   -0.684635
    30  H    0.340458
    31  C   -0.161928
    32  H    0.141945
    33  C   -0.167649
    34  H    0.141491
    35  C   -0.150937
    36  H    0.135981
    37  N   -0.578605
    38  H    0.347143
    39  C   -0.080249
    40  H    0.203377
    41  C    0.630812
    42  C   -0.073724
    43  H    0.183224
    44  H    0.167503
    45  O   -0.564282
    46  O   -0.631763
    47  H    0.418938
    48  N   -0.623827
    49  H    0.378534
    50  C   -0.042899
    51  H    0.181627
    52  C    0.615602
    53  C   -0.101725
    54  H    0.151713
    55  O   -0.565228
    56  C   -0.459715
    57  H    0.149076
    58  H    0.161986
    59  H    0.149934
    60  C   -0.458737
    61  H    0.152320
    62  H    0.162899
    63  H    0.151981
    64  N   -0.587821
    65  H    0.389461
    66  C   -0.092966
    67  H    0.185344
    68  C    0.613497
    69  C   -0.504402
    70  H    0.174916
    71  H    0.179581
    72  H    0.194261
    73  O   -0.566368
    74  N   -0.575258
    75  H    0.358698
    76  C   -0.084956
    77  H    0.187797
    78  C    0.608405
    79  C   -0.267476
    80  H    0.144849
    81  H    0.190365
    82  O   -0.543385
    83  C   -0.315795
    84  H    0.174117
    85  H    0.169533
    86  C   -0.141718
    87  H    0.177486
    88  H    0.165781
    89  N   -0.598114
    90  H    0.394165
    91  N   -0.759131
    92  H    0.380039
    93  H    0.377780
    94  N   -0.789468
    95  H    0.394330
    96  H    0.388762
    97  C    0.766214
    98  O   -0.667742
 Sum of Mulliken charges =   1.00000

 Dipole moment (field-independent basis, Debye):
    X=              3.4264    Y=              4.0945    Z=             -1.8430  Tot=              5.6482
 Quadrupole moment (field-independent basis, Debye-Ang):
   XX=           -208.9861   YY=           -211.6057   ZZ=           -205.6854
   XY=             -1.0215   XZ=            -65.6106   YZ=             -1.9749

 Normal termination of Gaussian 16 at Thu Jun 23 19:21:58 2022.
