 Gaussian 16, Revision C.01,
 Gaussian 16:  ES64L-G16RevC.01  3-Jul-2019

 ----------------------------------------------------------------------
 # B3LYP/6-31G* empiricaldispersion=gd3 guess=read geom=check nosymm in
 tegral(ultrafinegrid)
 ----------------------------------------------------------------------

 ------------------------------------------------------
 Candidate Structure: Conf:746 Charge calc in gas phase
 ------------------------------------------------------
 Structure from the checkpoint file:  "conf-746.chk"
 Charge =  1 Multiplicity = 1

                          Input orientation:
 ---------------------------------------------------------------------
 Center     Atomic      Atomic             Coordinates (Angstroms)
 Number     Number       Type             X           Y           Z
 ---------------------------------------------------------------------
      1          7           0       -7.148556    4.605431    5.341178
      2          1           0       -6.702607    4.834373    6.238499
      3          1           0       -8.093399    4.996144    5.306141
      4          1           0       -6.533528    4.978430    4.531044
      5          6           0       -7.072655    3.118705    5.046942
      6          1           0       -6.658946    2.652049    5.938302
      7          6           0       -5.986541    3.092567    3.933924
      8          6           0       -8.423396    2.534725    4.653612
      9          1           0       -8.303781    1.468919    4.436595
     10          1           0       -9.147798    2.621820    5.469633
     11          1           0       -8.825667    3.013876    3.753853
     12          8           0       -5.623450    4.171052    3.452335
     13          7           0       -5.472685    1.904889    3.636157
     14          1           0       -5.858568    1.037900    4.009142
     15          6           0       -4.187415    1.698239    2.962734
     16          1           0       -4.128866    2.452377    2.174515
     17          6           0       -4.243769    0.245735    2.457959
     18          6           0       -2.930351    1.811562    3.917126
     19          1           0       -2.054744    1.508852    3.332403
     20          1           0       -3.067131    1.055147    4.694816
     21          8           0       -4.941963   -0.570052    3.059659
     22          6           0       -2.780860    3.151442    4.579921
     23          6           0       -2.222471    4.240982    3.955053
     24          1           0       -1.691125    4.296660    3.015134
     25          6           0       -3.376892    3.650025    5.793640
     26          6           0       -3.162856    5.065376    5.816705
     27          6           0       -4.137039    3.078019    6.831880
     28          1           0       -4.306668    2.004317    6.861466
     29          7           0       -2.449056    5.385626    4.686951
     30          1           0       -2.062624    6.293494    4.472313
     31          6           0       -4.425080    5.287939    7.836281
     32          1           0       -4.819930    5.893967    8.646766
     33          6           0       -3.672313    5.887744    6.829325
     34          1           0       -3.480585    6.957769    6.834072
     35          6           0       -4.653028    3.891430    7.838462
     36          1           0       -5.220594    3.448280    8.652029
     37          7           0       -3.448462   -0.022331    1.400943
     38          1           0       -2.775413    0.696423    1.149715
     39          6           0       -2.953095   -1.357413    1.098377
     40          1           0       -3.561251   -2.095566    1.625934
     41          6           0       -1.483530   -1.405815    1.562429
     42          6           0       -3.073298   -1.639123   -0.441213
     43          1           0       -2.578717   -0.816795   -0.980761
     44          1           0       -4.138964   -1.619215   -0.695357
     45          8           0       -0.887446   -0.372587    1.839088
     46          8           0       -2.540774   -2.881856   -0.819696
     47          1           0       -1.584925   -2.728206   -1.049532
     48          7           0       -0.893318   -2.629658    1.543437
     49          1           0       -1.421874   -3.324460    1.019560
     50          6           0        0.565718   -2.714947    1.397932
     51          1           0        1.010968   -2.039705    2.136049
     52          6           0        0.947425   -2.206555   -0.019250
     53          6           0        1.067753   -4.158056    1.637945
     54          1           0        2.156319   -4.121269    1.486481
     55          8           0        0.177701   -2.301083   -0.975305
     56          6           0        0.793366   -4.593532    3.083320
     57          1           0       -0.283716   -4.626313    3.282605
     58          1           0        1.202111   -5.593043    3.270094
     59          1           0        1.245697   -3.901358    3.803972
     60          6           0        0.486246   -5.162070    0.627547
     61          1           0       -0.594008   -5.297275    0.768510
     62          1           0        0.951279   -6.144768    0.762459
     63          1           0        0.648307   -4.846856   -0.407801
     64          7           0        2.149917   -1.678348   -0.141946
     65          1           0        2.784600   -1.575367    0.649618
     66          6           0        2.660621   -1.059042   -1.360199
     67          1           0        2.534201   -1.756696   -2.195744
     68          6           0        4.159889   -0.786011   -1.114975
     69          6           0        1.921230    0.258084   -1.671815
     70          1           0        2.347782    0.749135   -2.551867
     71          1           0        2.014636    0.940852   -0.819838
     72          1           0        0.862149    0.049001   -1.846643
     73          8           0        4.638056   -0.923386    0.024283
     74          7           0        4.819695   -0.365172   -2.195964
     75          1           0        4.293173   -0.070540   -3.045502
     76          6           0        5.971965    0.535289   -2.172545
     77          1           0        5.956239    1.118904   -1.243396
     78          6           0        5.771301    1.536281   -3.400585
     79          6           0        7.313776   -0.180194   -2.285407
     80          1           0        7.299935   -0.821156   -3.178963
     81          1           0        8.062087    0.602908   -2.454946
     82          8           0        6.727802    2.301201   -3.590382
     83          6           0        7.652036   -1.019436   -1.049639
     84          1           0        7.640310   -0.378272   -0.156960
     85          1           0        6.885145   -1.788202   -0.893046
     86          6           0        9.025794   -1.667334   -1.191950
     87          1           0        9.795747   -0.893947   -1.314132
     88          1           0        9.052665   -2.338241   -2.059905
     89          7           0        9.343448   -2.467275    0.017841
     90          1           0        8.672366   -2.404236    0.775757
     91          7           0       11.362183   -3.297774   -0.760379
     92          1           0       12.060422   -4.027407   -0.779321
     93          1           0       11.414335   -2.588362   -1.478222
     94          7           0       10.454412   -4.130785    1.196842
     95          1           0       11.341417   -4.501733    1.501955
     96          1           0        9.694076   -4.198882    1.856126
     97          6           0       10.378869   -3.285873    0.155619
     98          8           0        4.673058    1.389948   -4.007295
 ---------------------------------------------------------------------

 SCF Done:  E(RB3LYP) =  -2360.09265880     A.U. after    1 cycles

 Alpha  occ. eigenvalues --  -19.25858 -19.20723 -19.18760 -19.18419 -19.16850
 Alpha  occ. eigenvalues --  -19.14416 -19.06098 -19.04989 -14.57258 -14.51473
 Alpha  occ. eigenvalues --  -14.51395 -14.50793 -14.48132 -14.47016 -14.44159
 Alpha  occ. eigenvalues --  -14.41388 -14.40219 -14.35639 -10.47533 -10.42316
 Alpha  occ. eigenvalues --  -10.39205 -10.37685 -10.34894 -10.33535 -10.33422
 Alpha  occ. eigenvalues --  -10.32671 -10.32558 -10.31339 -10.30836 -10.30593
 Alpha  occ. eigenvalues --  -10.29634 -10.29263 -10.28699 -10.28619 -10.28570
 Alpha  occ. eigenvalues --  -10.28401 -10.28217 -10.28077 -10.28052 -10.27083
 Alpha  occ. eigenvalues --  -10.26555 -10.25538 -10.24820 -10.23985 -10.22908
 Alpha  occ. eigenvalues --  -10.22716 -10.21549 -10.21042 -10.20531  -1.18436
 Alpha  occ. eigenvalues --   -1.16041  -1.12719  -1.11379  -1.10611  -1.09015
 Alpha  occ. eigenvalues --   -1.07016  -1.06325  -1.05563  -1.04887  -1.04819
 Alpha  occ. eigenvalues --   -1.04401  -1.00833  -0.99097  -0.98293  -0.96949
 Alpha  occ. eigenvalues --   -0.93348  -0.93207  -0.91839  -0.90391  -0.89402
 Alpha  occ. eigenvalues --   -0.87170  -0.86429  -0.85753  -0.83012  -0.82097
 Alpha  occ. eigenvalues --   -0.81164  -0.81016  -0.79741  -0.79606  -0.77130
 Alpha  occ. eigenvalues --   -0.76027  -0.75471  -0.73888  -0.73810  -0.71906
 Alpha  occ. eigenvalues --   -0.71538  -0.71463  -0.71154  -0.70194  -0.69529
 Alpha  occ. eigenvalues --   -0.69204  -0.68541  -0.68452  -0.66982  -0.65831
 Alpha  occ. eigenvalues --   -0.65020  -0.64609  -0.64463  -0.63617  -0.63323
 Alpha  occ. eigenvalues --   -0.62772  -0.62665  -0.61877  -0.61545  -0.59945
 Alpha  occ. eigenvalues --   -0.59338  -0.58690  -0.58416  -0.57675  -0.57414
 Alpha  occ. eigenvalues --   -0.56868  -0.56459  -0.56372  -0.56057  -0.55467
 Alpha  occ. eigenvalues --   -0.54758  -0.54284  -0.53962  -0.53476  -0.52888
 Alpha  occ. eigenvalues --   -0.52850  -0.52504  -0.52246  -0.51893  -0.51195
 Alpha  occ. eigenvalues --   -0.51113  -0.50680  -0.50517  -0.50031  -0.49497
 Alpha  occ. eigenvalues --   -0.49082  -0.48904  -0.48602  -0.48484  -0.48331
 Alpha  occ. eigenvalues --   -0.48108  -0.47476  -0.47010  -0.46600  -0.46329
 Alpha  occ. eigenvalues --   -0.46114  -0.45564  -0.45186  -0.44781  -0.44110
 Alpha  occ. eigenvalues --   -0.44079  -0.43481  -0.43257  -0.43131  -0.43071
 Alpha  occ. eigenvalues --   -0.42802  -0.42561  -0.42394  -0.42152  -0.40960
 Alpha  occ. eigenvalues --   -0.40682  -0.39968  -0.39766  -0.39504  -0.39391
 Alpha  occ. eigenvalues --   -0.39035  -0.38607  -0.38351  -0.37810  -0.37763
 Alpha  occ. eigenvalues --   -0.37452  -0.36596  -0.36572  -0.35364  -0.35060
 Alpha  occ. eigenvalues --   -0.34790  -0.33467  -0.33052  -0.32455  -0.31843
 Alpha  occ. eigenvalues --   -0.31382  -0.30475  -0.29692  -0.29238  -0.28491
 Alpha  occ. eigenvalues --   -0.27335  -0.21196  -0.20953  -0.19261
 Alpha virt. eigenvalues --   -0.11484  -0.11264  -0.10803  -0.08466  -0.07687
 Alpha virt. eigenvalues --   -0.07288  -0.06768  -0.04694  -0.03621  -0.03541
 Alpha virt. eigenvalues --   -0.03240  -0.02802  -0.02337  -0.02086  -0.01990

 Mulliken charges:
               1
     1  N   -0.771306
     2  H    0.411467
     3  H    0.403202
     4  H    0.436715
     5  C   -0.091766
     6  H    0.218168
     7  C    0.667186
     8  C   -0.480375
     9  H    0.211662
    10  H    0.192520
    11  H    0.194106
    12  O   -0.539175
    13  N   -0.610938
    14  H    0.365107
    15  C   -0.066229
    16  H    0.190888
    17  C    0.625718
    18  C   -0.379615
    19  H    0.209974
    20  H    0.166817
    21  O   -0.532608
    22  C    0.068718
    23  C    0.032209
    24  H    0.176989
    25  C    0.072095
    26  C    0.319132
    27  C   -0.245055
    28  H    0.141241
    29  N   -0.677381
    30  H    0.346304
    31  C   -0.186812
    32  H    0.149536
    33  C   -0.167299
    34  H    0.150653
    35  C   -0.180438
    36  H    0.142854
    37  N   -0.572624
    38  H    0.347127
    39  C   -0.129617
    40  H    0.200082
    41  C    0.617387
    42  C   -0.027584
    43  H    0.140712
    44  H    0.160924
    45  O   -0.537146
    46  O   -0.647724
    47  H    0.446393
    48  N   -0.600807
    49  H    0.354068
    50  C   -0.068837
    51  H    0.171432
    52  C    0.659383
    53  C   -0.091885
    54  H    0.138775
    55  O   -0.585064
    56  C   -0.441210
    57  H    0.157291
    58  H    0.149061
    59  H    0.142757
    60  C   -0.475239
    61  H    0.150088
    62  H    0.152838
    63  H    0.177059
    64  N   -0.602692
    65  H    0.348974
    66  C   -0.039677
    67  H    0.177759
    68  C    0.593742
    69  C   -0.467119
    70  H    0.203147
    71  H    0.147590
    72  H    0.165472
    73  O   -0.589089
    74  N   -0.603481
    75  H    0.363947
    76  C   -0.084662
    77  H    0.138489
    78  C    0.588205
    79  C   -0.258954
    80  H    0.133992
    81  H    0.170664
    82  O   -0.582360
    83  C   -0.310816
    84  H    0.155339
    85  H    0.174780
    86  C   -0.146122
    87  H    0.180889
    88  H    0.184161
    89  N   -0.606066
    90  H    0.370297
    91  N   -0.759175
    92  H    0.382775
    93  H    0.398547
    94  N   -0.762559
    95  H    0.380056
    96  H    0.381370
    97  C    0.833912
    98  O   -0.613241
 Sum of Mulliken charges =   1.00000

 Dipole moment (field-independent basis, Debye):
    X=              1.0396    Y=             -1.7250    Z=             31.1288  Tot=             31.1939
 Quadrupole moment (field-independent basis, Debye-Ang):
   XX=            235.2567   YY=           -161.1912   ZZ=           -217.0969
   XY=           -286.6782   XZ=            -69.6344   YZ=            102.9987

 Normal termination of Gaussian 16 at Thu Jun 23 19:21:18 2022.
