 Gaussian 16, Revision C.01,
 Gaussian 16:  ES64L-G16RevC.01  3-Jul-2019

 ----------------------------------------------------------------------
 # B3LYP/6-31G* empiricaldispersion=gd3 guess=read geom=check nosymm in
 tegral(ultrafinegrid)
 ----------------------------------------------------------------------

 ------------------------------------------------------
 Candidate Structure: Conf:883 Charge calc in gas phase
 ------------------------------------------------------
 Structure from the checkpoint file:  "conf-883.chk"
 Charge =  1 Multiplicity = 1

                          Input orientation:
 ---------------------------------------------------------------------
 Center     Atomic      Atomic             Coordinates (Angstroms)
 Number     Number       Type             X           Y           Z
 ---------------------------------------------------------------------
      1          7           0       -7.370814    3.571957    0.352678
      2          1           0       -7.949805    4.408948    0.472609
      3          1           0       -7.798856    2.969495   -0.356803
      4          1           0       -6.409406    3.875792    0.047917
      5          6           0       -7.092905    2.837588    1.653988
      6          1           0       -7.891849    3.073066    2.360932
      7          6           0       -5.713632    3.384755    2.084634
      8          6           0       -6.978356    1.333650    1.375019
      9          1           0       -6.670532    0.810386    2.283490
     10          1           0       -7.939192    0.928187    1.040971
     11          1           0       -6.198018    1.140186    0.629035
     12          8           0       -5.009932    3.902725    1.204868
     13          7           0       -5.323545    3.156444    3.345127
     14          1           0       -5.937302    2.579616    3.912238
     15          6           0       -3.878933    2.923458    3.617088
     16          1           0       -3.327129    3.795999    3.262105
     17          6           0       -3.574933    1.656550    2.789726
     18          6           0       -3.655177    2.702775    5.112832
     19          1           0       -4.239209    1.817593    5.409254
     20          1           0       -4.082146    3.560067    5.649869
     21          8           0       -4.258510    0.649266    2.960569
     22          6           0       -2.215777    2.530766    5.515755
     23          6           0       -1.112077    2.196418    4.761456
     24          1           0       -0.992020    2.000059    3.707402
     25          6           0       -1.756087    2.657731    6.876961
     26          6           0       -0.361211    2.390177    6.878453
     27          6           0       -2.391830    2.971274    8.090487
     28          1           0       -3.459267    3.176022    8.120170
     29          7           0       -0.001924    2.115141    5.575667
     30          1           0        0.923253    1.875996    5.253247
     31          6           0       -0.249872    2.743937    9.231558
     32          1           0        0.315036    2.783538   10.158339
     33          6           0        0.405947    2.430201    8.047173
     34          1           0        1.472528    2.224246    8.029548
     35          6           0       -1.634961    3.012312    9.254073
     36          1           0       -2.113126    3.253161   10.199110
     37          7           0       -2.647331    1.803014    1.821625
     38          1           0       -2.008719    2.592442    1.831621
     39          6           0       -2.272520    0.729167    0.917759
     40          1           0       -2.788573   -0.173253    1.252302
     41          6           0       -0.742936    0.604123    1.010235
     42          6           0       -2.734530    1.106659   -0.513775
     43          1           0       -2.713334    0.225210   -1.159599
     44          1           0       -2.042443    1.854382   -0.928042
     45          8           0       -0.072847    1.615496    1.244228
     46          8           0       -4.070924    1.599218   -0.516527
     47          1           0       -4.058017    2.412854    0.016941
     48          7           0       -0.236620   -0.625123    0.835192
     49          1           0       -0.823284   -1.417647    0.588389
     50          6           0        1.192680   -0.919228    0.819047
     51          1           0        1.719193   -0.005325    0.524994
     52          6           0        1.357122   -2.031986   -0.233233
     53          6           0        1.714786   -1.384871    2.211215
     54          1           0        1.230908   -2.348811    2.422732
     55          8           0        0.453456   -2.857362   -0.398243
     56          6           0        3.238102   -1.588446    2.193489
     57          1           0        3.753828   -0.651794    1.943980
     58          1           0        3.587164   -1.902748    3.182753
     59          1           0        3.556829   -2.345910    1.472692
     60          6           0        1.322366   -0.393162    3.318281
     61          1           0        1.720569    0.605011    3.100396
     62          1           0        1.724616   -0.730957    4.280206
     63          1           0        0.237051   -0.308644    3.424673
     64          7           0        2.514768   -2.036903   -0.913387
     65          1           0        3.280419   -1.407204   -0.681762
     66          6           0        2.905654   -3.116030   -1.807505
     67          1           0        2.597792   -4.068639   -1.358150
     68          6           0        4.447153   -3.058156   -1.881749
     69          6           0        2.242395   -2.979351   -3.186812
     70          1           0        2.520862   -3.809648   -3.843281
     71          1           0        2.547386   -2.043081   -3.665283
     72          1           0        1.156163   -2.982086   -3.062380
     73          8           0        5.069651   -2.145064   -1.325829
     74          7           0        5.027037   -4.036333   -2.591714
     75          1           0        4.501456   -4.809602   -2.989726
     76          6           0        6.464221   -4.133384   -2.831323
     77          1           0        6.860332   -3.141211   -3.060584
     78          6           0        6.649645   -5.092465   -4.029615
     79          6           0        7.152958   -4.708424   -1.569930
     80          1           0        6.818815   -4.101555   -0.721159
     81          1           0        6.752238   -5.719644   -1.419491
     82          8           0        7.644938   -4.840205   -4.787107
     83          6           0        8.691808   -4.731939   -1.534496
     84          1           0        9.081453   -3.714743   -1.665561
     85          1           0        8.992078   -5.040637   -0.522392
     86          6           0        9.421585   -5.619779   -2.558142
     87          1           0       10.483700   -5.690079   -2.292478
     88          1           0        9.334117   -5.183714   -3.548966
     89          7           0        8.860465   -6.981430   -2.596727
     90          1           0        8.634104   -7.388403   -1.699037
     91          7           0        8.625161   -7.223542   -4.906798
     92          1           0        8.410401   -7.873227   -5.652437
     93          1           0        8.258423   -6.209659   -5.047263
     94          7           0        8.260100   -9.036944   -3.489988
     95          1           0        7.576876   -9.443044   -4.115141
     96          1           0        8.244393   -9.410960   -2.551310
     97          6           0        8.560265   -7.717748   -3.676481
     98          8           0        5.879812   -6.072252   -4.086857
 ---------------------------------------------------------------------

 SCF Done:  E(RB3LYP) =  -2360.13311154     A.U. after    1 cycles

 Alpha  occ. eigenvalues --  -19.28541 -19.23998 -19.21543 -19.19624 -19.17563
 Alpha  occ. eigenvalues --  -19.16208 -19.12827 -19.12188 -14.61390 -14.50737
 Alpha  occ. eigenvalues --  -14.46072 -14.44972 -14.44824 -14.43886 -14.43827
 Alpha  occ. eigenvalues --  -14.41366 -14.40847 -14.39697 -10.44956 -10.41962
 Alpha  occ. eigenvalues --  -10.40056 -10.38864 -10.36928 -10.34759 -10.34666
 Alpha  occ. eigenvalues --  -10.33203 -10.32646 -10.32529 -10.31958 -10.30294
 Alpha  occ. eigenvalues --  -10.29796 -10.28880 -10.28538 -10.28287 -10.27915
 Alpha  occ. eigenvalues --  -10.27589 -10.26055 -10.25469 -10.25385 -10.24420
 Alpha  occ. eigenvalues --  -10.24357 -10.24253 -10.24202 -10.23823 -10.23757
 Alpha  occ. eigenvalues --  -10.23482 -10.23277 -10.23128 -10.23016  -1.20763
 Alpha  occ. eigenvalues --   -1.15314  -1.13874  -1.11702  -1.11029  -1.09516
 Alpha  occ. eigenvalues --   -1.08693  -1.07890  -1.07175  -1.05905  -1.03899
 Alpha  occ. eigenvalues --   -1.02365  -1.00193  -0.98545  -0.98065  -0.97651
 Alpha  occ. eigenvalues --   -0.95950  -0.95621  -0.93859  -0.89935  -0.89116
 Alpha  occ. eigenvalues --   -0.87391  -0.85236  -0.84617  -0.83625  -0.82403
 Alpha  occ. eigenvalues --   -0.81170  -0.79142  -0.78626  -0.77859  -0.77481
 Alpha  occ. eigenvalues --   -0.76059  -0.75024  -0.74487  -0.73935  -0.73727
 Alpha  occ. eigenvalues --   -0.72928  -0.72143  -0.70559  -0.69938  -0.68763
 Alpha  occ. eigenvalues --   -0.68024  -0.67325  -0.66551  -0.66285  -0.64984
 Alpha  occ. eigenvalues --   -0.64871  -0.64342  -0.64092  -0.63616  -0.63444
 Alpha  occ. eigenvalues --   -0.62257  -0.61930  -0.61433  -0.61192  -0.60231
 Alpha  occ. eigenvalues --   -0.60094  -0.59292  -0.58565  -0.58180  -0.57291
 Alpha  occ. eigenvalues --   -0.56818  -0.55959  -0.55145  -0.54934  -0.54716
 Alpha  occ. eigenvalues --   -0.54130  -0.53946  -0.53424  -0.53106  -0.52760
 Alpha  occ. eigenvalues --   -0.52642  -0.52456  -0.52158  -0.51921  -0.51603
 Alpha  occ. eigenvalues --   -0.51518  -0.51467  -0.50515  -0.49838  -0.49497
 Alpha  occ. eigenvalues --   -0.49242  -0.49126  -0.48823  -0.48667  -0.48280
 Alpha  occ. eigenvalues --   -0.48149  -0.47672  -0.47259  -0.47162  -0.46925
 Alpha  occ. eigenvalues --   -0.46532  -0.46398  -0.46173  -0.45896  -0.45558
 Alpha  occ. eigenvalues --   -0.44866  -0.44601  -0.44287  -0.44043  -0.43938
 Alpha  occ. eigenvalues --   -0.43035  -0.42792  -0.42563  -0.42445  -0.41869
 Alpha  occ. eigenvalues --   -0.41602  -0.41291  -0.41248  -0.41068  -0.40365
 Alpha  occ. eigenvalues --   -0.39867  -0.39615  -0.39415  -0.39245  -0.38823
 Alpha  occ. eigenvalues --   -0.38702  -0.37419  -0.37131  -0.36039  -0.35382
 Alpha  occ. eigenvalues --   -0.35168  -0.33828  -0.33149  -0.33032  -0.32983
 Alpha  occ. eigenvalues --   -0.31521  -0.31237  -0.30321  -0.29945  -0.28238
 Alpha  occ. eigenvalues --   -0.27891  -0.27028  -0.26331  -0.26327
 Alpha virt. eigenvalues --   -0.14622  -0.11846  -0.08327  -0.06943  -0.06802
 Alpha virt. eigenvalues --   -0.06139  -0.05637  -0.05182  -0.03665  -0.03261
 Alpha virt. eigenvalues --   -0.02915  -0.02087  -0.02005  -0.01881  -0.00810

 Mulliken charges:
               1
     1  N   -0.742019
     2  H    0.420460
     3  H    0.423590
     4  H    0.433371
     5  C   -0.125345
     6  H    0.217702
     7  C    0.654930
     8  C   -0.504315
     9  H    0.235805
    10  H    0.184806
    11  H    0.229731
    12  O   -0.537943
    13  N   -0.572801
    14  H    0.357754
    15  C   -0.059348
    16  H    0.190854
    17  C    0.614895
    18  C   -0.370440
    19  H    0.174329
    20  H    0.170507
    21  O   -0.541003
    22  C    0.056520
    23  C   -0.010415
    24  H    0.163122
    25  C    0.079300
    26  C    0.319824
    27  C   -0.208103
    28  H    0.116163
    29  N   -0.706820
    30  H    0.342885
    31  C   -0.149561
    32  H    0.137897
    33  C   -0.159149
    34  H    0.134201
    35  C   -0.137703
    36  H    0.132496
    37  N   -0.606711
    38  H    0.360355
    39  C   -0.085771
    40  H    0.196778
    41  C    0.637813
    42  C   -0.051094
    43  H    0.175677
    44  H    0.157208
    45  O   -0.552852
    46  O   -0.647794
    47  H    0.421309
    48  N   -0.608068
    49  H    0.356039
    50  C   -0.049780
    51  H    0.175414
    52  C    0.616214
    53  C   -0.073983
    54  H    0.146075
    55  O   -0.555186
    56  C   -0.468291
    57  H    0.151529
    58  H    0.154882
    59  H    0.166996
    60  C   -0.462981
    61  H    0.154091
    62  H    0.149033
    63  H    0.151165
    64  N   -0.608138
    65  H    0.362054
    66  C   -0.046504
    67  H    0.177566
    68  C    0.622599
    69  C   -0.447090
    70  H    0.161172
    71  H    0.160676
    72  H    0.176940
    73  O   -0.558701
    74  N   -0.616685
    75  H    0.348205
    76  C   -0.005337
    77  H    0.165251
    78  C    0.580500
    79  C   -0.266084
    80  H    0.166388
    81  H    0.124504
    82  O   -0.622186
    83  C   -0.297630
    84  H    0.169347
    85  H    0.135868
    86  C   -0.153333
    87  H    0.163019
    88  H    0.230262
    89  N   -0.592432
    90  H    0.336522
    91  N   -0.747803
    92  H    0.339822
    93  H    0.428978
    94  N   -0.758435
    95  H    0.366251
    96  H    0.349643
    97  C    0.771076
    98  O   -0.590530
 Sum of Mulliken charges =   1.00000

 Dipole moment (field-independent basis, Debye):
    X=            -17.0759    Y=              1.1809    Z=              5.6408  Tot=             18.0222
 Quadrupole moment (field-independent basis, Debye-Ang):
   XX=             19.0958   YY=           -127.0162   ZZ=           -264.5463
   XY=           -205.5490   XZ=            -25.5429   YZ=             38.9302

 Normal termination of Gaussian 16 at Thu Jun 23 19:21:15 2022.
