 Gaussian 16, Revision C.01,
 Gaussian 16:  ES64L-G16RevC.01  3-Jul-2019

 ----------------------------------------------------------------------
 # B3LYP/6-31G* empiricaldispersion=gd3 guess=read geom=check nosymm in
 tegral(ultrafinegrid)
 ----------------------------------------------------------------------

 -----------------------------------------------------
 Candidate Structure: Conf:95 Charge calc in gas phase
 -----------------------------------------------------
 Structure from the checkpoint file:  "conf-95.chk"
 Charge =  1 Multiplicity = 1

                          Input orientation:
 ---------------------------------------------------------------------
 Center     Atomic      Atomic             Coordinates (Angstroms)
 Number     Number       Type             X           Y           Z
 ---------------------------------------------------------------------
      1          7           0       -7.001049    0.890229    5.374193
      2          1           0       -6.367503    0.428920    6.057385
      3          1           0       -7.965417    0.612946    5.574649
      4          1           0       -6.883119    1.923350    5.472104
      5          6           0       -6.586209    0.610784    3.946738
      6          1           0       -6.131490   -0.381293    3.933268
      7          6           0       -5.551648    1.730765    3.677926
      8          6           0       -7.786123    0.714633    3.008916
      9          1           0       -7.458659    0.539893    1.980089
     10          1           0       -8.548342   -0.034508    3.249252
     11          1           0       -8.227943    1.715319    3.057264
     12          8           0       -5.731154    2.815808    4.238243
     13          7           0       -4.538728    1.407209    2.874411
     14          1           0       -4.512783    0.523022    2.369228
     15          6           0       -3.381586    2.250454    2.611985
     16          1           0       -3.706788    3.293027    2.555214
     17          6           0       -2.800738    1.747830    1.279298
     18          6           0       -2.284939    2.097713    3.722792
     19          1           0       -1.513240    2.852817    3.537287
     20          1           0       -1.804580    1.121753    3.594571
     21          8           0       -3.164000    0.654578    0.823571
     22          6           0       -2.827522    2.227494    5.111475
     23          6           0       -2.924959    3.373922    5.860021
     24          1           0       -2.556010    4.367726    5.646468
     25          6           0       -3.494781    1.195994    5.862869
     26          6           0       -4.001941    1.801121    7.051739
     27          6           0       -3.738960   -0.170392    5.637584
     28          1           0       -3.338021   -0.661249    4.754735
     29          7           0       -3.629938    3.125325    7.019223
     30          1           0       -3.787331    3.796376    7.756321
     31          6           0       -5.004789   -0.260824    7.728510
     32          1           0       -5.569542   -0.848223    8.446717
     33          6           0       -4.756505    1.088199    7.989527
     34          1           0       -5.130903    1.561809    8.892734
     35          6           0       -4.492846   -0.887197    6.564993
     36          1           0       -4.671424   -1.947726    6.411433
     37          7           0       -1.849263    2.510920    0.724628
     38          1           0       -1.506436    3.353462    1.178150
     39          6           0       -1.000829    2.054028   -0.379711
     40          1           0       -1.631736    1.548709   -1.117495
     41          6           0        0.064039    1.083787    0.181495
     42          6           0       -0.323313    3.295047   -0.981697
     43          1           0       -1.076163    3.926981   -1.461934
     44          1           0        0.404737    2.978087   -1.738847
     45          8           0        1.205359    1.478538    0.446647
     46          8           0        0.275908    4.068339    0.046796
     47          1           0        1.015403    3.515338    0.368855
     48          7           0       -0.357130   -0.178043    0.399972
     49          1           0       -1.306941   -0.422269    0.145256
     50          6           0        0.520249   -1.220745    0.947486
     51          1           0        1.251034   -0.705592    1.580198
     52          6           0        1.245279   -1.885726   -0.251538
     53          6           0       -0.265344   -2.245610    1.782408
     54          1           0       -0.907712   -2.802347    1.088062
     55          8           0        0.857961   -2.951823   -0.727639
     56          6           0        0.705501   -3.244511    2.429342
     57          1           0        1.398888   -2.732770    3.109570
     58          1           0        0.154167   -3.989587    3.013378
     59          1           0        1.284864   -3.773851    1.669418
     60          6           0       -1.138391   -1.567314    2.849776
     61          1           0       -0.525309   -0.951627    3.521790
     62          1           0       -1.639143   -2.325736    3.463614
     63          1           0       -1.908681   -0.929030    2.404066
     64          7           0        2.276614   -1.166161   -0.740070
     65          1           0        2.531868   -0.259753   -0.351237
     66          6           0        2.988168   -1.546541   -1.949184
     67          1           0        3.275920   -2.601527   -1.866162
     68          6           0        4.243093   -0.657513   -2.022930
     69          6           0        2.119315   -1.365010   -3.207299
     70          1           0        2.664105   -1.672593   -4.105401
     71          1           0        1.837663   -0.312031   -3.318199
     72          1           0        1.217014   -1.974606   -3.114284
     73          8           0        4.336127    0.368480   -1.343591
     74          7           0        5.173373   -1.060112   -2.907121
     75          1           0        5.101539   -1.939320   -3.410259
     76          6           0        6.388823   -0.311375   -3.207805
     77          1           0        6.151429    0.753557   -3.268323
     78          6           0        6.917350   -0.834564   -4.561957
     79          6           0        7.430584   -0.563500   -2.090637
     80          1           0        6.930225   -0.353243   -1.139038
     81          1           0        7.657742   -1.637822   -2.102783
     82          8           0        7.501276    0.031128   -5.296932
     83          6           0        8.731654    0.259302   -2.113445
     84          1           0        8.494232    1.329783   -2.075666
     85          1           0        9.275761    0.038997   -1.183243
     86          6           0        9.688502    0.060955   -3.303163
     87          1           0       10.649738    0.543485   -3.086829
     88          1           0        9.261558    0.510327   -4.194948
     89          7           0        9.933983   -1.366446   -3.572159
     90          1           0       10.046732   -1.952863   -2.756050
     91          7           0        9.585677   -1.370204   -5.880415
     92          1           0        9.643323   -1.931538   -6.720814
     93          1           0        8.719765   -0.712706   -5.822402
     94          7           0       10.365602   -3.285625   -4.804276
     95          1           0        9.898184   -3.895098   -5.462610
     96          1           0       10.638288   -3.739120   -3.942957
     97          6           0        9.925395   -1.992687   -4.757300
     98          8           0        6.820473   -2.061359   -4.767311
 ---------------------------------------------------------------------

 SCF Done:  E(RB3LYP) =  -2360.16045228     A.U. after    1 cycles

 Alpha  occ. eigenvalues --  -19.25564 -19.23026 -19.21396 -19.19882 -19.15851
 Alpha  occ. eigenvalues --  -19.14875 -19.12325 -19.11639 -14.58753 -14.49071
 Alpha  occ. eigenvalues --  -14.48816 -14.46663 -14.44503 -14.44293 -14.43846
 Alpha  occ. eigenvalues --  -14.40284 -14.39656 -14.38672 -10.42776 -10.39974
 Alpha  occ. eigenvalues --  -10.39896 -10.39525 -10.36792 -10.35249 -10.33288
 Alpha  occ. eigenvalues --  -10.33092 -10.32967 -10.32557 -10.32021 -10.31985
 Alpha  occ. eigenvalues --  -10.30983 -10.30694 -10.30548 -10.30272 -10.30174
 Alpha  occ. eigenvalues --  -10.29955 -10.29739 -10.29712 -10.29191 -10.28804
 Alpha  occ. eigenvalues --  -10.27481 -10.27271 -10.25741 -10.24918 -10.24761
 Alpha  occ. eigenvalues --  -10.23934 -10.22902 -10.22500 -10.22066  -1.18174
 Alpha  occ. eigenvalues --   -1.14892  -1.12932  -1.11805  -1.08819  -1.08797
 Alpha  occ. eigenvalues --   -1.08198  -1.07816  -1.06645  -1.05840  -1.05312
 Alpha  occ. eigenvalues --   -1.02887  -1.00063  -0.98066  -0.97038  -0.96275
 Alpha  occ. eigenvalues --   -0.95487  -0.95143  -0.94944  -0.92913  -0.91189
 Alpha  occ. eigenvalues --   -0.88092  -0.86972  -0.85003  -0.84271  -0.84027
 Alpha  occ. eigenvalues --   -0.82910  -0.81503  -0.80605  -0.78061  -0.77504
 Alpha  occ. eigenvalues --   -0.76894  -0.74868  -0.73498  -0.72946  -0.72576
 Alpha  occ. eigenvalues --   -0.72237  -0.71464  -0.71263  -0.70437  -0.69936
 Alpha  occ. eigenvalues --   -0.69605  -0.68963  -0.67595  -0.66415  -0.65720
 Alpha  occ. eigenvalues --   -0.65587  -0.64706  -0.64202  -0.63743  -0.62544
 Alpha  occ. eigenvalues --   -0.62275  -0.61451  -0.61264  -0.60741  -0.60362
 Alpha  occ. eigenvalues --   -0.59480  -0.58957  -0.58430  -0.58147  -0.57800
 Alpha  occ. eigenvalues --   -0.57645  -0.56971  -0.56155  -0.55914  -0.55634
 Alpha  occ. eigenvalues --   -0.55047  -0.54741  -0.54455  -0.54074  -0.53797
 Alpha  occ. eigenvalues --   -0.53479  -0.52842  -0.52249  -0.51961  -0.51754
 Alpha  occ. eigenvalues --   -0.51671  -0.51417  -0.50953  -0.50943  -0.50655
 Alpha  occ. eigenvalues --   -0.50227  -0.49831  -0.49705  -0.49300  -0.49150
 Alpha  occ. eigenvalues --   -0.48677  -0.48302  -0.48040  -0.47802  -0.47494
 Alpha  occ. eigenvalues --   -0.46889  -0.46688  -0.46396  -0.46173  -0.46073
 Alpha  occ. eigenvalues --   -0.45659  -0.45103  -0.45056  -0.44557  -0.44356
 Alpha  occ. eigenvalues --   -0.43933  -0.43696  -0.42816  -0.41934  -0.41829
 Alpha  occ. eigenvalues --   -0.41085  -0.41010  -0.40642  -0.40563  -0.40332
 Alpha  occ. eigenvalues --   -0.40051  -0.39865  -0.39227  -0.39156  -0.38970
 Alpha  occ. eigenvalues --   -0.38477  -0.38055  -0.37634  -0.37064  -0.36727
 Alpha  occ. eigenvalues --   -0.34917  -0.34836  -0.34178  -0.33934  -0.32592
 Alpha  occ. eigenvalues --   -0.32523  -0.31138  -0.29995  -0.29317  -0.28937
 Alpha  occ. eigenvalues --   -0.28771  -0.27688  -0.26380  -0.25702
 Alpha virt. eigenvalues --   -0.12789  -0.12104  -0.09418  -0.09248  -0.08537
 Alpha virt. eigenvalues --   -0.06123  -0.04781  -0.04651  -0.03703  -0.02885
 Alpha virt. eigenvalues --   -0.02250  -0.01777  -0.01590  -0.01469  -0.01012

 Mulliken charges:
               1
     1  N   -0.761210
     2  H    0.423625
     3  H    0.402647
     4  H    0.420364
     5  C   -0.104005
     6  H    0.205305
     7  C    0.665386
     8  C   -0.475993
     9  H    0.212942
    10  H    0.186667
    11  H    0.198858
    12  O   -0.536219
    13  N   -0.606613
    14  H    0.368062
    15  C   -0.055978
    16  H    0.198548
    17  C    0.649579
    18  C   -0.382765
    19  H    0.173566
    20  H    0.186770
    21  O   -0.557808
    22  C    0.083527
    23  C    0.037159
    24  H    0.180462
    25  C    0.054717
    26  C    0.323837
    27  C   -0.224927
    28  H    0.159749
    29  N   -0.682534
    30  H    0.348884
    31  C   -0.208475
    32  H    0.159683
    33  C   -0.176983
    34  H    0.158379
    35  C   -0.189784
    36  H    0.154570
    37  N   -0.598093
    38  H    0.359890
    39  C   -0.090974
    40  H    0.185864
    41  C    0.630831
    42  C   -0.056239
    43  H    0.163883
    44  H    0.173564
    45  O   -0.542418
    46  O   -0.637440
    47  H    0.428127
    48  N   -0.609797
    49  H    0.363438
    50  C   -0.046105
    51  H    0.172667
    52  C    0.629667
    53  C   -0.093497
    54  H    0.156445
    55  O   -0.540996
    56  C   -0.460964
    57  H    0.139987
    58  H    0.145292
    59  H    0.186508
    60  C   -0.475929
    61  H    0.147477
    62  H    0.144344
    63  H    0.139001
    64  N   -0.627216
    65  H    0.377151
    66  C   -0.032707
    67  H    0.169141
    68  C    0.615815
    69  C   -0.451135
    70  H    0.160458
    71  H    0.146835
    72  H    0.180990
    73  O   -0.551979
    74  N   -0.617267
    75  H    0.344583
    76  C   -0.002136
    77  H    0.162152
    78  C    0.578571
    79  C   -0.265612
    80  H    0.168415
    81  H    0.122544
    82  O   -0.623365
    83  C   -0.298160
    84  H    0.168010
    85  H    0.135060
    86  C   -0.152143
    87  H    0.161538
    88  H    0.228872
    89  N   -0.590066
    90  H    0.336516
    91  N   -0.745940
    92  H    0.338441
    93  H    0.426929
    94  N   -0.756579
    95  H    0.366263
    96  H    0.348011
    97  C    0.766039
    98  O   -0.592551
 Sum of Mulliken charges =   1.00000

 Dipole moment (field-independent basis, Debye):
    X=            -15.4182    Y=              1.0445    Z=             20.7256  Tot=             25.8527
 Quadrupole moment (field-independent basis, Debye-Ang):
   XX=             34.8786   YY=           -258.3474   ZZ=           -142.1259
   XY=            -78.5994   XZ=           -171.3835   YZ=             50.5557

 Normal termination of Gaussian 16 at Thu Jun 23 19:21:47 2022.
