 Gaussian 16, Revision C.01,
 Gaussian 16:  ES64L-G16RevC.01  3-Jul-2019

 ----------------------------------------------------------------------
 # B3LYP/6-31G* empiricaldispersion=gd3 guess=read geom=check nosymm in
 tegral(ultrafinegrid)
 ----------------------------------------------------------------------

 ------------------------------------------------------
 Candidate Structure: Conf:449 Charge calc in gas phase
 ------------------------------------------------------
 Structure from the checkpoint file:  "conf-449.chk"
 Charge =  1 Multiplicity = 1

                          Input orientation:
 ---------------------------------------------------------------------
 Center     Atomic      Atomic             Coordinates (Angstroms)
 Number     Number       Type             X           Y           Z
 ---------------------------------------------------------------------
      1          7           0       -5.201025   -2.459390   -0.470136
      2          1           0       -3.955265   -3.484287   -0.712140
      3          1           0       -6.084945   -2.820793   -0.826450
      4          1           0       -5.298400   -2.345018    0.541044
      5          6           0       -4.925584   -1.130727   -1.053915
      6          1           0       -4.524491   -1.289440   -2.057657
      7          6           0       -3.864057   -0.443629   -0.184223
      8          6           0       -6.168186   -0.224623   -1.109388
      9          1           0       -5.927353    0.741761   -1.564388
     10          1           0       -6.954556   -0.694149   -1.710960
     11          1           0       -6.558526   -0.045817   -0.101246
     12          8           0       -3.829470   -0.623823    1.039055
     13          7           0       -3.066679    0.435501   -0.828410
     14          1           0       -2.977489    0.422805   -1.840565
     15          6           0       -2.199094    1.369363   -0.143340
     16          1           0       -2.774812    1.896211    0.626081
     17          6           0       -1.647982    2.325911   -1.210139
     18          6           0       -0.970273    0.672793    0.542391
     19          1           0       -0.223945    0.454296   -0.227112
     20          1           0       -1.338870   -0.282289    0.920008
     21          8           0       -1.670099    2.016309   -2.401730
     22          6           0       -0.402954    1.459040    1.690528
     23          6           0        0.636699    2.362810    1.712202
     24          1           0        1.283564    2.706055    0.917615
     25          6           0       -0.930130    1.421984    3.035832
     26          6           0       -0.155782    2.314685    3.826712
     27          6           0       -1.989428    0.709365    3.627636
     28          1           0       -2.622947    0.069447    3.017788
     29          7           0        0.811107    2.858075    2.999805
     30          1           0        1.363360    3.675317    3.217966
     31          6           0       -1.437216    1.761110    5.763958
     32          1           0       -1.663678    1.891688    6.818252
     33          6           0       -0.390927    2.490999    5.196102
     34          1           0        0.192322    3.190635    5.789563
     35          6           0       -2.228126    0.883679    4.987008
     36          1           0       -3.050299    0.355376    5.460650
     37          7           0       -1.000221    3.418861   -0.744025
     38          1           0       -1.011921    3.604430    0.249386
     39          6           0       -0.039048    4.160941   -1.560237
     40          1           0       -0.432721    4.166257   -2.581297
     41          6           0        1.350401    3.458464   -1.550685
     42          6           0        0.093388    5.595801   -1.061505
     43          1           0        0.811208    6.118141   -1.706594
     44          1           0        0.523726    5.591558   -0.045621
     45          8           0        2.363528    4.052738   -1.181957
     46          8           0       -1.200935    6.171619   -1.089965
     47          1           0       -1.111676    7.123027   -0.929649
     48          7           0        1.314024    2.150464   -1.911491
     49          1           0        0.452409    1.774638   -2.309535
     50          6           0        2.464994    1.275281   -2.120011
     51          1           0        3.048854    1.650722   -2.973636
     52          6           0        1.836226   -0.078550   -2.534527
     53          6           0        3.439741    1.199502   -0.897642
     54          1           0        3.435094    2.213667   -0.491667
     55          8           0        0.614983   -0.177892   -2.681835
     56          6           0        2.987234    0.229393    0.204708
     57          1           0        3.058496   -0.815413   -0.118789
     58          1           0        3.641770    0.350091    1.080564
     59          1           0        1.957299    0.420007    0.515101
     60          6           0        4.891985    0.916400   -1.315703
     61          1           0        5.055077   -0.115342   -1.654086
     62          1           0        5.562304    1.064929   -0.462179
     63          1           0        5.217601    1.592268   -2.113133
     64          7           0        2.661944   -1.130179   -2.715612
     65          1           0        3.659080   -1.015929   -2.605551
     66          6           0        2.156624   -2.450670   -3.122481
     67          1           0        1.408472   -2.276924   -3.902786
     68          6           0        1.471767   -3.170376   -1.925753
     69          6           0        3.306174   -3.294246   -3.661394
     70          1           0        2.928055   -4.250947   -4.029979
     71          1           0        4.024430   -3.514063   -2.865992
     72          1           0        3.807108   -2.777195   -4.486098
     73          8           0        2.071547   -4.004050   -1.249605
     74          7           0        0.181709   -2.813290   -1.712227
     75          1           0       -0.236181   -2.077933   -2.277873
     76          6           0       -0.721234   -3.559837   -0.856716
     77          1           0       -0.481969   -4.623806   -0.944684
     78          6           0       -2.146539   -3.274690   -1.335294
     79          6           0       -0.717165   -3.171118    0.655809
     80          1           0       -1.498110   -2.421644    0.838423
     81          1           0       -1.019433   -4.057712    1.222833
     82          8           0       -3.041812   -3.979059   -0.671968
     83          6           0        0.611547   -2.620663    1.164307
     84          1           0        1.421350   -3.334715    0.987648
     85          1           0        0.848278   -1.714061    0.597574
     86          6           0        0.498042   -2.267066    2.646394
     87          1           0        0.485138   -3.175942    3.260681
     88          1           0       -0.427553   -1.708652    2.832582
     89          7           0        1.621203   -1.404181    3.050765
     90          1           0        2.414327   -1.348934    2.422706
     91          7           0        0.727210   -0.721146    5.087557
     92          1           0        0.357069    0.104021    5.554405
     93          1           0        0.106590   -1.518373    5.078830
     94          7           0        2.497551    0.442113    4.131173
     95          1           0        2.474368    1.050535    4.937937
     96          1           0        2.739707    0.896564    3.259619
     97          6           0        1.591435   -0.558677    4.076046
     98          8           0       -2.391476   -2.391930   -2.145682
 ---------------------------------------------------------------------

 SCF Done:  E(RB3LYP) =  -2360.19906028     A.U. after    1 cycles

 Alpha  occ. eigenvalues --  -19.23550 -19.22264 -19.21708 -19.20878 -19.20559
 Alpha  occ. eigenvalues --  -19.20491 -19.20484 -19.19075 -14.51826 -14.51331
 Alpha  occ. eigenvalues --  -14.51143 -14.49538 -14.46004 -14.45275 -14.44158
 Alpha  occ. eigenvalues --  -14.44061 -14.42770 -14.42488 -10.47672 -10.38661
 Alpha  occ. eigenvalues --  -10.38511 -10.37963 -10.37598 -10.37171 -10.36137
 Alpha  occ. eigenvalues --  -10.35167 -10.33524 -10.33150 -10.33132 -10.32894
 Alpha  occ. eigenvalues --  -10.31855 -10.31789 -10.31633 -10.31256 -10.30650
 Alpha  occ. eigenvalues --  -10.30643 -10.29986 -10.29715 -10.29653 -10.29384
 Alpha  occ. eigenvalues --  -10.29207 -10.29104 -10.29029 -10.28867 -10.28537
 Alpha  occ. eigenvalues --  -10.28000 -10.27377 -10.25984 -10.25840  -1.16495
 Alpha  occ. eigenvalues --   -1.15923  -1.13990  -1.13266  -1.12112  -1.11808
 Alpha  occ. eigenvalues --   -1.10765  -1.09743  -1.09294  -1.07290  -1.05793
 Alpha  occ. eigenvalues --   -1.04542  -1.02197  -1.01942  -1.00949  -1.00598
 Alpha  occ. eigenvalues --   -0.99634  -0.98525  -0.95154  -0.91404  -0.90683
 Alpha  occ. eigenvalues --   -0.90325  -0.86906  -0.86100  -0.84752  -0.84396
 Alpha  occ. eigenvalues --   -0.84170  -0.83250  -0.81653  -0.80585  -0.79421
 Alpha  occ. eigenvalues --   -0.79007  -0.77047  -0.76829  -0.73917  -0.73381
 Alpha  occ. eigenvalues --   -0.73142  -0.72650  -0.71441  -0.70398  -0.70292
 Alpha  occ. eigenvalues --   -0.69781  -0.68934  -0.68765  -0.68161  -0.67160
 Alpha  occ. eigenvalues --   -0.66743  -0.66260  -0.65339  -0.65219  -0.64889
 Alpha  occ. eigenvalues --   -0.64403  -0.64045  -0.63465  -0.61789  -0.60998
 Alpha  occ. eigenvalues --   -0.60681  -0.59799  -0.59410  -0.59154  -0.58629
 Alpha  occ. eigenvalues --   -0.58115  -0.57995  -0.57643  -0.57187  -0.56634
 Alpha  occ. eigenvalues --   -0.56528  -0.56021  -0.55385  -0.55144  -0.54970
 Alpha  occ. eigenvalues --   -0.54553  -0.54444  -0.53976  -0.53927  -0.53598
 Alpha  occ. eigenvalues --   -0.53095  -0.52749  -0.52643  -0.52472  -0.51921
 Alpha  occ. eigenvalues --   -0.51543  -0.50870  -0.50454  -0.50215  -0.50127
 Alpha  occ. eigenvalues --   -0.49965  -0.49697  -0.49372  -0.49228  -0.49037
 Alpha  occ. eigenvalues --   -0.48671  -0.48409  -0.48153  -0.47601  -0.47191
 Alpha  occ. eigenvalues --   -0.46738  -0.46468  -0.46305  -0.46139  -0.45828
 Alpha  occ. eigenvalues --   -0.45629  -0.45573  -0.45366  -0.44965  -0.44697
 Alpha  occ. eigenvalues --   -0.44410  -0.44297  -0.44165  -0.43785  -0.43630
 Alpha  occ. eigenvalues --   -0.43429  -0.43283  -0.43187  -0.42653  -0.42045
 Alpha  occ. eigenvalues --   -0.41527  -0.40535  -0.38869  -0.37607  -0.36898
 Alpha  occ. eigenvalues --   -0.36755  -0.35629  -0.35346  -0.35288  -0.34819
 Alpha  occ. eigenvalues --   -0.34397  -0.34208  -0.34127  -0.33933  -0.33828
 Alpha  occ. eigenvalues --   -0.32682  -0.32245  -0.31913  -0.31557
 Alpha virt. eigenvalues --   -0.13284  -0.12681  -0.09455  -0.08569  -0.07712
 Alpha virt. eigenvalues --   -0.07434  -0.07029  -0.06092  -0.05759  -0.05337
 Alpha virt. eigenvalues --   -0.04933  -0.04020  -0.03912  -0.02687  -0.02288

 Mulliken charges:
               1
     1  N   -0.785465
     2  H    0.469180
     3  H    0.334819
     4  H    0.343611
     5  C   -0.056435
     6  H    0.191712
     7  C    0.638511
     8  C   -0.461289
     9  H    0.170236
    10  H    0.165144
    11  H    0.165707
    12  O   -0.560372
    13  N   -0.613156
    14  H    0.377471
    15  C   -0.018999
    16  H    0.179324
    17  C    0.605865
    18  C   -0.394541
    19  H    0.184901
    20  H    0.186188
    21  O   -0.528106
    22  C    0.042736
    23  C   -0.062185
    24  H    0.203062
    25  C    0.054719
    26  C    0.306254
    27  C   -0.225455
    28  H    0.205170
    29  N   -0.696438
    30  H    0.346366
    31  C   -0.176464
    32  H    0.161011
    33  C   -0.223641
    34  H    0.150845
    35  C   -0.163598
    36  H    0.157464
    37  N   -0.585244
    38  H    0.343406
    39  C   -0.085627
    40  H    0.216146
    41  C    0.625529
    42  C   -0.037757
    43  H    0.165574
    44  H    0.118099
    45  O   -0.541589
    46  O   -0.614236
    47  H    0.407479
    48  N   -0.678012
    49  H    0.416889
    50  C   -0.022856
    51  H    0.185420
    52  C    0.613430
    53  C   -0.107279
    54  H    0.193743
    55  O   -0.535687
    56  C   -0.514907
    57  H    0.168865
    58  H    0.124681
    59  H    0.166355
    60  C   -0.474152
    61  H    0.141296
    62  H    0.163051
    63  H    0.177269
    64  N   -0.616547
    65  H    0.348525
    66  C   -0.043508
    67  H    0.186353
    68  C    0.615347
    69  C   -0.477601
    70  H    0.185460
    71  H    0.175108
    72  H    0.159397
    73  O   -0.534930
    74  N   -0.627204
    75  H    0.389401
    76  C   -0.009243
    77  H    0.195710
    78  C    0.577968
    79  C   -0.304742
    80  H    0.168205
    81  H    0.171083
    82  O   -0.605918
    83  C   -0.330749
    84  H    0.203421
    85  H    0.167607
    86  C   -0.151998
    87  H    0.185858
    88  H    0.181632
    89  N   -0.600765
    90  H    0.381259
    91  N   -0.736718
    92  H    0.381692
    93  H    0.380534
    94  N   -0.739739
    95  H    0.368390
    96  H    0.378541
    97  C    0.773821
    98  O   -0.499686
 Sum of Mulliken charges =   1.00000

 Dipole moment (field-independent basis, Debye):
    X=              3.0879    Y=              3.3761    Z=             12.5478  Tot=             13.3559
 Quadrupole moment (field-independent basis, Debye-Ang):
   XX=           -230.1331   YY=           -252.9672   ZZ=           -206.7828
   XY=             14.8141   XZ=              4.3272   YZ=             13.4825

 Normal termination of Gaussian 16 at Thu Jun 23 19:21:43 2022.
