 Gaussian 16, Revision C.01,
 Gaussian 16:  ES64L-G16RevC.01  3-Jul-2019

 ----------------------------------------------------------------------
 # B3LYP/6-31G* empiricaldispersion=gd3 guess=read geom=check nosymm in
 tegral(ultrafinegrid)
 ----------------------------------------------------------------------

 ------------------------------------------------------
 Candidate Structure: Conf:370 Charge calc in gas phase
 ------------------------------------------------------
 Structure from the checkpoint file:  "conf-370.chk"
 Charge =  1 Multiplicity = 1

                          Input orientation:
 ---------------------------------------------------------------------
 Center     Atomic      Atomic             Coordinates (Angstroms)
 Number     Number       Type             X           Y           Z
 ---------------------------------------------------------------------
      1          7           0       -7.609710    1.799841    5.171198
      2          1           0       -7.760062    1.095701    5.898420
      3          1           0       -8.488019    2.302643    5.016370
      4          1           0       -6.833902    2.474449    5.479041
      5          6           0       -7.011928    1.236497    3.894523
      6          1           0       -6.967601    0.149273    3.995300
      7          6           0       -5.580756    1.847469    3.902159
      8          6           0       -7.832189    1.647451    2.672989
      9          1           0       -7.362842    1.258111    1.765598
     10          1           0       -8.847788    1.241847    2.722304
     11          1           0       -7.877670    2.738131    2.580809
     12          8           0       -5.318521    2.679488    4.788326
     13          7           0       -4.761721    1.447530    2.945501
     14          1           0       -5.024131    0.768296    2.228366
     15          6           0       -3.400582    1.946950    2.764305
     16          1           0       -3.398981    3.030501    2.911153
     17          6           0       -3.043068    1.591687    1.310299
     18          6           0       -2.414216    1.290700    3.786344
     19          1           0       -2.521070    0.202772    3.711970
     20          1           0       -2.751795    1.593312    4.784922
     21          8           0       -3.670098    0.687488    0.732007
     22          6           0       -1.002363    1.697252    3.510163
     23          6           0       -0.041873    0.918129    2.911899
     24          1           0       -0.072527   -0.131526    2.658695
     25          6           0       -0.485995    3.045252    3.520593
     26          6           0        0.797014    3.000262    2.902098
     27          6           0       -0.998379    4.286987    3.942417
     28          1           0       -1.966208    4.347126    4.435441
     29          7           0        1.053184    1.682100    2.580057
     30          1           0        1.746758    1.376428    1.910909
     31          6           0        1.026126    5.364283    3.113316
     32          1           0        1.594932    6.277433    2.964891
     33          6           0        1.563574    4.152018    2.694493
     34          1           0        2.540904    4.098888    2.223585
     35          6           0       -0.239638    5.432184    3.733216
     36          1           0       -0.621526    6.396633    4.055021
     37          7           0       -2.030866    2.278749    0.774106
     38          1           0       -1.567827    2.982945    1.339045
     39          6           0       -1.400633    1.940611   -0.504769
     40          1           0       -2.200607    1.751599   -1.227567
     41          6           0       -0.515514    0.681318   -0.341115
     42          6           0       -0.550918    3.118364   -0.968527
     43          1           0       -0.112849    2.865342   -1.944145
     44          1           0        0.279177    3.258645   -0.261558
     45          8           0        0.707504    0.767585   -0.203594
     46          8           0       -1.405473    4.251106   -1.025772
     47          1           0       -0.868587    5.017526   -1.277457
     48          7           0       -1.189964   -0.487209   -0.322510
     49          1           0       -2.197966   -0.467301   -0.427721
     50          6           0       -0.518570   -1.783231   -0.170549
     51          1           0        0.357969   -1.610804    0.464747
     52          6           0       -0.056195   -2.224362   -1.582881
     53          6           0       -1.441484   -2.824758    0.482601
     54          1           0       -2.265856   -3.004834   -0.219684
     55          8           0       -0.735457   -2.979594   -2.276141
     56          6           0       -0.687689   -4.149266    0.673307
     57          1           0        0.182710   -4.013614    1.328848
     58          1           0       -1.340675   -4.895661    1.138550
     59          1           0       -0.347026   -4.548946   -0.284525
     60          6           0       -2.012255   -2.330111    1.820374
     61          1           0       -1.206742   -2.152661    2.545799
     62          1           0       -2.672534   -3.091827    2.250576
     63          1           0       -2.588397   -1.405688    1.711531
     64          7           0        1.107798   -1.669073   -1.981019
     65          1           0        1.588753   -0.977395   -1.409882
     66          6           0        1.633205   -1.844382   -3.323924
     67          1           0        1.599572   -2.912242   -3.570013
     68          6           0        3.090283   -1.349502   -3.301262
     69          6           0        0.809389   -1.066556   -4.366719
     70          1           0        1.205941   -1.222393   -5.375086
     71          1           0        0.841456    0.005658   -4.143654
     72          1           0       -0.227007   -1.412579   -4.336600
     73          8           0        3.503892   -0.623899   -2.393299
     74          7           0        3.834329   -1.726367   -4.358378
     75          1           0        3.482655   -2.361151   -5.067789
     76          6           0        5.203820   -1.283050   -4.582793
     77          1           0        5.283030   -0.222858   -4.332052
     78          6           0        5.559575   -1.481297   -6.068696
     79          6           0        6.179717   -2.094866   -3.686308
     80          1           0        5.974262   -1.804496   -2.651518
     81          1           0        5.893413   -3.152849   -3.768865
     82          8           0        6.394248   -0.707647   -6.569233
     83          6           0        7.683487   -1.921347   -4.012697
     84          1           0        7.830537   -1.035933   -4.639756
     85          1           0        8.253091   -1.768822   -3.087738
     86          6           0        8.304844   -3.146370   -4.709421
     87          1           0        8.174724   -4.037849   -4.086624
     88          1           0        9.386908   -3.023393   -4.825031
     89          7           0        7.713084   -3.471575   -6.014695
     90          1           0        6.722420   -3.715110   -5.982623
     91          7           0        9.283219   -2.407041   -7.397611
     92          1           0        9.382104   -1.715885   -8.127605
     93          1           0        9.896260   -2.273058   -6.607919
     94          7           0        7.167537   -3.003284   -8.197533
     95          1           0        7.396181   -2.489693   -9.038786
     96          1           0        6.177668   -2.873897   -7.860739
     97          6           0        8.047219   -2.917534   -7.190262
     98          8           0        5.049459   -2.531134   -6.608925
 ---------------------------------------------------------------------

 SCF Done:  E(RB3LYP) =  -2360.14719219     A.U. after    1 cycles

 Alpha  occ. eigenvalues --  -19.27744 -19.22520 -19.21968 -19.19296 -19.15695
 Alpha  occ. eigenvalues --  -19.15059 -19.12964 -19.11723 -14.60768 -14.50193
 Alpha  occ. eigenvalues --  -14.45955 -14.44590 -14.44547 -14.43361 -14.43307
 Alpha  occ. eigenvalues --  -14.40888 -14.39601 -14.38949 -10.44344 -10.42085
 Alpha  occ. eigenvalues --  -10.39557 -10.39223 -10.36412 -10.34713 -10.34555
 Alpha  occ. eigenvalues --  -10.32951 -10.32176 -10.31696 -10.30936 -10.30021
 Alpha  occ. eigenvalues --  -10.29439 -10.29197 -10.29135 -10.29063 -10.29042
 Alpha  occ. eigenvalues --  -10.27312 -10.25962 -10.25869 -10.25842 -10.25828
 Alpha  occ. eigenvalues --  -10.25419 -10.25350 -10.25138 -10.25057 -10.24264
 Alpha  occ. eigenvalues --  -10.23680 -10.22818 -10.22610 -10.22162  -1.20150
 Alpha  occ. eigenvalues --   -1.14710  -1.14100  -1.11124  -1.09362  -1.08424
 Alpha  occ. eigenvalues --   -1.07742  -1.06854  -1.06765  -1.05379  -1.04953
 Alpha  occ. eigenvalues --   -1.02414  -0.99673  -0.98178  -0.96947  -0.96275
 Alpha  occ. eigenvalues --   -0.95917  -0.95071  -0.94265  -0.91056  -0.89828
 Alpha  occ. eigenvalues --   -0.86957  -0.85545  -0.84233  -0.84027  -0.81965
 Alpha  occ. eigenvalues --   -0.81553  -0.80515  -0.79535  -0.78230  -0.76825
 Alpha  occ. eigenvalues --   -0.76518  -0.74914  -0.74426  -0.73529  -0.72500
 Alpha  occ. eigenvalues --   -0.72427  -0.71032  -0.70244  -0.69599  -0.69214
 Alpha  occ. eigenvalues --   -0.68717  -0.66802  -0.66295  -0.65836  -0.65111
 Alpha  occ. eigenvalues --   -0.64756  -0.64374  -0.63719  -0.63452  -0.62531
 Alpha  occ. eigenvalues --   -0.61329  -0.61124  -0.61031  -0.60721  -0.60146
 Alpha  occ. eigenvalues --   -0.59783  -0.59111  -0.58147  -0.57235  -0.56891
 Alpha  occ. eigenvalues --   -0.56561  -0.56156  -0.55650  -0.55481  -0.55015
 Alpha  occ. eigenvalues --   -0.54711  -0.54534  -0.54318  -0.54076  -0.53066
 Alpha  occ. eigenvalues --   -0.52669  -0.52390  -0.52168  -0.51412  -0.51321
 Alpha  occ. eigenvalues --   -0.50596  -0.50496  -0.50334  -0.50093  -0.49698
 Alpha  occ. eigenvalues --   -0.49405  -0.49230  -0.48734  -0.48674  -0.48258
 Alpha  occ. eigenvalues --   -0.48165  -0.47745  -0.47645  -0.47353  -0.47148
 Alpha  occ. eigenvalues --   -0.46373  -0.46308  -0.45664  -0.45405  -0.45161
 Alpha  occ. eigenvalues --   -0.44955  -0.44312  -0.43976  -0.43820  -0.43182
 Alpha  occ. eigenvalues --   -0.42536  -0.42306  -0.42247  -0.41819  -0.41279
 Alpha  occ. eigenvalues --   -0.41014  -0.40860  -0.40793  -0.40250  -0.40164
 Alpha  occ. eigenvalues --   -0.39871  -0.39836  -0.39478  -0.39071  -0.38960
 Alpha  occ. eigenvalues --   -0.38799  -0.37438  -0.36974  -0.36719  -0.35151
 Alpha  occ. eigenvalues --   -0.34747  -0.34404  -0.33745  -0.32403  -0.32226
 Alpha  occ. eigenvalues --   -0.30016  -0.29479  -0.29406  -0.28825  -0.28776
 Alpha  occ. eigenvalues --   -0.28265  -0.27543  -0.27436  -0.25256
 Alpha virt. eigenvalues --   -0.13014  -0.11931  -0.08862  -0.08073  -0.07020
 Alpha virt. eigenvalues --   -0.05869  -0.05359  -0.05073  -0.04689  -0.02332
 Alpha virt. eigenvalues --   -0.02153  -0.01857  -0.01581  -0.00889  -0.00732

 Mulliken charges:
               1
     1  N   -0.758505
     2  H    0.418780
     3  H    0.415942
     4  H    0.437781
     5  C   -0.106485
     6  H    0.226357
     7  C    0.655164
     8  C   -0.482674
     9  H    0.221071
    10  H    0.197547
    11  H    0.198047
    12  O   -0.542617
    13  N   -0.605508
    14  H    0.373521
    15  C   -0.065201
    16  H    0.199532
    17  C    0.642365
    18  C   -0.354271
    19  H    0.166094
    20  H    0.176733
    21  O   -0.575242
    22  C    0.038276
    23  C    0.010076
    24  H    0.171251
    25  C    0.031705
    26  C    0.302974
    27  C   -0.223428
    28  H    0.129971
    29  N   -0.658198
    30  H    0.362618
    31  C   -0.152428
    32  H    0.143179
    33  C   -0.166388
    34  H    0.149258
    35  C   -0.135975
    36  H    0.136420
    37  N   -0.580597
    38  H    0.375439
    39  C   -0.071638
    40  H    0.191858
    41  C    0.648560
    42  C   -0.063445
    43  H    0.163214
    44  H    0.159038
    45  O   -0.559535
    46  O   -0.624399
    47  H    0.409545
    48  N   -0.615433
    49  H    0.365210
    50  C   -0.039378
    51  H    0.156589
    52  C    0.630367
    53  C   -0.095912
    54  H    0.156071
    55  O   -0.541760
    56  C   -0.461005
    57  H    0.137508
    58  H    0.147362
    59  H    0.185939
    60  C   -0.476938
    61  H    0.141879
    62  H    0.147110
    63  H    0.145282
    64  N   -0.620970
    65  H    0.373535
    66  C   -0.036609
    67  H    0.170795
    68  C    0.616113
    69  C   -0.450742
    70  H    0.158638
    71  H    0.148178
    72  H    0.181269
    73  O   -0.551702
    74  N   -0.619317
    75  H    0.347025
    76  C   -0.004582
    77  H    0.168536
    78  C    0.577160
    79  C   -0.292650
    80  H    0.175800
    81  H    0.130650
    82  O   -0.582638
    83  C   -0.273024
    84  H    0.185721
    85  H    0.145472
    86  C   -0.178329
    87  H    0.178154
    88  H    0.146227
    89  N   -0.570478
    90  H    0.370432
    91  N   -0.751848
    92  H    0.366279
    93  H    0.363829
    94  N   -0.734224
    95  H    0.337058
    96  H    0.402483
    97  C    0.761784
    98  O   -0.646701
 Sum of Mulliken charges =   1.00000

 Dipole moment (field-independent basis, Debye):
    X=            -17.3005    Y=              5.5138    Z=             12.7252  Tot=             22.1730
 Quadrupole moment (field-independent basis, Debye-Ang):
   XX=             59.9523   YY=           -256.1441   ZZ=           -164.1195
   XY=            -72.4430   XZ=           -209.1874   YZ=             32.6168

 Normal termination of Gaussian 16 at Thu Jun 23 19:21:29 2022.
