 Gaussian 16, Revision C.01,
 Gaussian 16:  ES64L-G16RevC.01  3-Jul-2019

 ----------------------------------------------------------------------
 # B3LYP/6-31G* empiricaldispersion=gd3 guess=read geom=check nosymm in
 tegral(ultrafinegrid)
 ----------------------------------------------------------------------

 ------------------------------------------------------
 Candidate Structure: Conf:817 Charge calc in gas phase
 ------------------------------------------------------
 Structure from the checkpoint file:  "conf-817.chk"
 Charge =  1 Multiplicity = 1

                          Input orientation:
 ---------------------------------------------------------------------
 Center     Atomic      Atomic             Coordinates (Angstroms)
 Number     Number       Type             X           Y           Z
 ---------------------------------------------------------------------
      1          7           0       -8.132413    7.159763    2.621438
      2          1           0       -8.046652    6.551482    3.474579
      3          1           0       -8.948149    7.772545    2.697167
      4          1           0       -7.248934    7.709554    2.581849
      5          6           0       -8.114171    6.336251    1.348201
      6          1           0       -8.763218    5.472442    1.508615
      7          6           0       -6.620826    5.944359    1.263738
      8          6           0       -8.562738    7.183434    0.162059
      9          1           0       -8.520151    6.580057   -0.749284
     10          1           0       -9.592884    7.535606    0.284394
     11          1           0       -7.895079    8.041076    0.030959
     12          8           0       -5.803975    6.797770    1.623173
     13          7           0       -6.329433    4.703695    0.870180
     14          1           0       -7.026797    4.051143    0.518857
     15          6           0       -5.039405    4.090584    1.144398
     16          1           0       -4.265994    4.855667    1.054587
     17          6           0       -4.879903    2.950083    0.124485
     18          6           0       -5.033767    3.460550    2.584846
     19          1           0       -3.997536    3.216289    2.844315
     20          1           0       -5.583859    2.514527    2.528829
     21          8           0       -5.888628    2.395407   -0.308679
     22          6           0       -5.664733    4.337715    3.622898
     23          6           0       -6.964357    4.270046    4.027509
     24          1           0       -7.722946    3.538644    3.780872
     25          6           0       -5.080352    5.496503    4.274862
     26          6           0       -6.089835    6.094568    5.058768
     27          6           0       -3.804654    6.074512    4.241726
     28          1           0       -3.016259    5.642403    3.632668
     29          7           0       -7.296892    5.384975    4.837032
     30          1           0       -7.932712    5.249303    5.618318
     31          6           0       -4.585078    7.782203    5.795741
     32          1           0       -4.367552    8.663772    6.391069
     33          6           0       -5.867733    7.236394    5.826535
     34          1           0       -6.652988    7.676661    6.435564
     35          6           0       -3.568344    7.210895    5.007896
     36          1           0       -2.583470    7.667619    5.000845
     37          7           0       -3.609258    2.611011   -0.149540
     38          1           0       -2.842299    3.004973    0.389307
     39          6           0       -3.228783    1.436104   -0.911412
     40          1           0       -4.083479    0.753528   -0.943328
     41          6           0       -2.017983    0.811679   -0.187481
     42          6           0       -2.835359    1.801449   -2.352279
     43          1           0       -2.522463    0.886563   -2.878857
     44          1           0       -1.967359    2.480496   -2.316771
     45          8           0       -1.391832    1.463566    0.650996
     46          8           0       -3.960684    2.408957   -2.959195
     47          1           0       -3.726958    2.624134   -3.874900
     48          7           0       -1.707478   -0.437598   -0.579064
     49          1           0       -2.190015   -0.864543   -1.366544
     50          6           0       -0.429388   -1.083567   -0.294370
     51          1           0        0.256132   -0.316596    0.081235
     52          6           0        0.041944   -1.629325   -1.659679
     53          6           0       -0.569061   -2.203915    0.771100
     54          1           0       -1.234643   -2.967451    0.343258
     55          8           0       -0.795571   -1.971044   -2.503782
     56          6           0        0.786482   -2.853798    1.088203
     57          1           0        1.496815   -2.108711    1.470257
     58          1           0        0.664945   -3.618904    1.862717
     59          1           0        1.240812   -3.328844    0.214492
     60          6           0       -1.212694   -1.649407    2.049754
     61          1           0       -0.598549   -0.848970    2.478696
     62          1           0       -1.314646   -2.442458    2.799131
     63          1           0       -2.207237   -1.238051    1.853596
     64          7           0        1.367085   -1.691551   -1.844580
     65          1           0        2.034750   -1.473870   -1.106419
     66          6           0        1.995786   -2.248603   -3.033042
     67          1           0        1.497942   -3.191856   -3.288370
     68          6           0        3.465156   -2.526671   -2.638249
     69          6           0        1.894183   -1.288708   -4.229974
     70          1           0        2.367618   -1.714263   -5.120063
     71          1           0        2.391942   -0.341513   -3.996308
     72          1           0        0.840211   -1.095988   -4.447935
     73          8           0        3.887674   -2.177031   -1.525852
     74          7           0        4.191574   -3.143415   -3.576387
     75          1           0        3.868938   -3.245641   -4.550509
     76          6           0        5.648972   -3.199479   -3.599530
     77          1           0        6.050764   -2.207648   -3.355154
     78          6           0        6.044322   -3.564643   -5.095078
     79          6           0        6.243889   -4.205535   -2.605982
     80          1           0        7.327134   -4.045184   -2.614245
     81          1           0        5.861812   -4.004170   -1.597960
     82          8           0        7.224462   -3.944334   -5.246224
     83          6           0        5.966186   -5.647687   -3.038696
     84          1           0        4.889785   -5.858644   -3.027452
     85          1           0        6.334177   -5.731662   -4.068969
     86          6           0        6.706258   -6.672255   -2.187167
     87          1           0        6.266736   -6.775106   -1.187399
     88          1           0        7.760123   -6.380611   -2.087636
     89          7           0        6.641970   -7.989807   -2.864798
     90          1           0        6.338836   -7.960257   -3.832254
     91          7           0        7.761428   -9.173604   -1.217376
     92          1           0        7.867989  -10.040609   -0.711349
     93          1           0        7.989814   -8.319391   -0.730078
     94          7           0        6.882604  -10.298614   -3.040337
     95          1           0        7.512178  -11.076766   -2.900761
     96          1           0        6.364725  -10.297743   -3.908344
     97          6           0        7.097713   -9.135274   -2.385467
     98          8           0        5.100184   -3.468705   -5.922211
 ---------------------------------------------------------------------

 SCF Done:  E(RB3LYP) =  -2360.08051103     A.U. after    1 cycles

 Alpha  occ. eigenvalues --  -19.24158 -19.20488 -19.19482 -19.17978 -19.15616
 Alpha  occ. eigenvalues --  -19.13489 -19.05921 -19.05040 -14.57763 -14.50428
 Alpha  occ. eigenvalues --  -14.50227 -14.49710 -14.48936 -14.47552 -14.43489
 Alpha  occ. eigenvalues --  -14.41516 -14.39296 -14.35445 -10.46381 -10.41440
 Alpha  occ. eigenvalues --  -10.39250 -10.36851 -10.35053 -10.33246 -10.32674
 Alpha  occ. eigenvalues --  -10.32276 -10.31987 -10.31939 -10.31668 -10.30145
 Alpha  occ. eigenvalues --  -10.29945 -10.29887 -10.29404 -10.29256 -10.28563
 Alpha  occ. eigenvalues --  -10.28370 -10.27826 -10.27761 -10.27755 -10.27186
 Alpha  occ. eigenvalues --  -10.25999 -10.24205 -10.23969 -10.23219 -10.21814
 Alpha  occ. eigenvalues --  -10.21707 -10.21191 -10.20478 -10.20358  -1.16961
 Alpha  occ. eigenvalues --   -1.14911  -1.12036  -1.11518  -1.09800  -1.07936
 Alpha  occ. eigenvalues --   -1.07753  -1.07444  -1.04858  -1.04223  -1.03819
 Alpha  occ. eigenvalues --   -1.03291  -1.00090  -0.99045  -0.98220  -0.95865
 Alpha  occ. eigenvalues --   -0.93509  -0.92659  -0.91727  -0.90327  -0.90218
 Alpha  occ. eigenvalues --   -0.86407  -0.86059  -0.85322  -0.83005  -0.82647
 Alpha  occ. eigenvalues --   -0.81623  -0.80312  -0.79407  -0.78606  -0.76267
 Alpha  occ. eigenvalues --   -0.76033  -0.75204  -0.72785  -0.72679  -0.72249
 Alpha  occ. eigenvalues --   -0.71574  -0.71437  -0.70494  -0.70454  -0.69621
 Alpha  occ. eigenvalues --   -0.68849  -0.68604  -0.67655  -0.66425  -0.66016
 Alpha  occ. eigenvalues --   -0.64783  -0.64264  -0.63899  -0.63361  -0.62939
 Alpha  occ. eigenvalues --   -0.62534  -0.62276  -0.61412  -0.60994  -0.60597
 Alpha  occ. eigenvalues --   -0.58480  -0.58438  -0.57623  -0.57444  -0.57062
 Alpha  occ. eigenvalues --   -0.56749  -0.56569  -0.56133  -0.55452  -0.55093
 Alpha  occ. eigenvalues --   -0.54572  -0.54468  -0.53367  -0.53053  -0.52730
 Alpha  occ. eigenvalues --   -0.52632  -0.52508  -0.52087  -0.51569  -0.51079
 Alpha  occ. eigenvalues --   -0.50953  -0.50499  -0.50353  -0.50036  -0.49751
 Alpha  occ. eigenvalues --   -0.48812  -0.48645  -0.48533  -0.48059  -0.47608
 Alpha  occ. eigenvalues --   -0.47147  -0.47126  -0.46311  -0.46230  -0.45397
 Alpha  occ. eigenvalues --   -0.45248  -0.44974  -0.44511  -0.44300  -0.43977
 Alpha  occ. eigenvalues --   -0.43400  -0.43236  -0.43101  -0.42877  -0.42606
 Alpha  occ. eigenvalues --   -0.42448  -0.42319  -0.41557  -0.40756  -0.40216
 Alpha  occ. eigenvalues --   -0.39905  -0.39733  -0.39350  -0.38905  -0.38532
 Alpha  occ. eigenvalues --   -0.38383  -0.38222  -0.38038  -0.37606  -0.37255
 Alpha  occ. eigenvalues --   -0.36991  -0.36590  -0.36304  -0.35151  -0.33907
 Alpha  occ. eigenvalues --   -0.33336  -0.33314  -0.32912  -0.32466  -0.32005
 Alpha  occ. eigenvalues --   -0.31375  -0.31025  -0.29510  -0.29080  -0.27500
 Alpha  occ. eigenvalues --   -0.26340  -0.21286  -0.20674  -0.19480
 Alpha virt. eigenvalues --   -0.11268  -0.11114  -0.10453  -0.08495  -0.07859
 Alpha virt. eigenvalues --   -0.06479  -0.06048  -0.04036  -0.03894  -0.03022
 Alpha virt. eigenvalues --   -0.02474  -0.02407  -0.01618  -0.01478  -0.00911

 Mulliken charges:
               1
     1  N   -0.764617
     2  H    0.439526
     3  H    0.398643
     4  H    0.422820
     5  C   -0.108738
     6  H    0.197782
     7  C    0.658598
     8  C   -0.469136
     9  H    0.214387
    10  H    0.180658
    11  H    0.200404
    12  O   -0.529487
    13  N   -0.595308
    14  H    0.359889
    15  C   -0.069375
    16  H    0.196690
    17  C    0.645927
    18  C   -0.370773
    19  H    0.187630
    20  H    0.178568
    21  O   -0.534941
    22  C    0.110804
    23  C   -0.078718
    24  H    0.165884
    25  C    0.144339
    26  C    0.218417
    27  C   -0.187581
    28  H    0.146889
    29  N   -0.722143
    30  H    0.354983
    31  C   -0.142559
    32  H    0.154416
    33  C   -0.188965
    34  H    0.140282
    35  C   -0.133532
    36  H    0.154981
    37  N   -0.594230
    38  H    0.352494
    39  C   -0.089938
    40  H    0.197283
    41  C    0.615463
    42  C   -0.022581
    43  H    0.152232
    44  H    0.136448
    45  O   -0.545708
    46  O   -0.609746
    47  H    0.404468
    48  N   -0.602561
    49  H    0.356792
    50  C   -0.059782
    51  H    0.173084
    52  C    0.618712
    53  C   -0.069141
    54  H    0.137387
    55  O   -0.561971
    56  C   -0.466500
    57  H    0.150098
    58  H    0.147254
    59  H    0.164788
    60  C   -0.443059
    61  H    0.155533
    62  H    0.143186
    63  H    0.144590
    64  N   -0.609606
    65  H    0.358881
    66  C   -0.038194
    67  H    0.171869
    68  C    0.602927
    69  C   -0.458943
    70  H    0.182457
    71  H    0.153229
    72  H    0.169609
    73  O   -0.568268
    74  N   -0.621679
    75  H    0.359602
    76  C   -0.063325
    77  H    0.150855
    78  C    0.565801
    79  C   -0.257537
    80  H    0.151183
    81  H    0.144800
    82  O   -0.605537
    83  C   -0.325444
    84  H    0.154600
    85  H    0.195297
    86  C   -0.148026
    87  H    0.173300
    88  H    0.184766
    89  N   -0.597693
    90  H    0.374710
    91  N   -0.756963
    92  H    0.380312
    93  H    0.395503
    94  N   -0.759513
    95  H    0.378268
    96  H    0.382446
    97  C    0.821307
    98  O   -0.602226
 Sum of Mulliken charges =   1.00000

 Dipole moment (field-independent basis, Debye):
    X=            -20.6587    Y=              0.2104    Z=             16.8567  Tot=             26.6641
 Quadrupole moment (field-independent basis, Debye-Ang):
   XX=             52.4131   YY=            193.8403   ZZ=           -294.3580
   XY=           -401.8696   XZ=            -53.4281   YZ=             96.7049

 Normal termination of Gaussian 16 at Thu Jun 23 19:21:16 2022.
