 Gaussian 16, Revision C.01,
 Gaussian 16:  ES64L-G16RevC.01  3-Jul-2019

 ----------------------------------------------------------------------
 # B3LYP/6-31G* empiricaldispersion=gd3 guess=read geom=check nosymm in
 tegral(ultrafinegrid)
 ----------------------------------------------------------------------

 ------------------------------------------------------
 Candidate Structure: Conf:123 Charge calc in gas phase
 ------------------------------------------------------
 Structure from the checkpoint file:  "conf-123.chk"
 Charge =  1 Multiplicity = 1

                          Input orientation:
 ---------------------------------------------------------------------
 Center     Atomic      Atomic             Coordinates (Angstroms)
 Number     Number       Type             X           Y           Z
 ---------------------------------------------------------------------
      1          7           0       -6.791689    6.543132    4.840033
      2          1           0       -6.869746    6.053649    5.754473
      3          1           0       -7.542073    7.234554    4.764552
      4          1           0       -5.854193    7.002747    4.800518
      5          6           0       -6.763249    5.565067    3.686928
      6          1           0       -7.367899    4.704748    3.979593
      7          6           0       -5.258488    5.216045    3.589115
      8          6           0       -7.272899    6.226090    2.408743
      9          1           0       -7.214115    5.511847    1.582566
     10          1           0       -8.318375    6.537516    2.508423
     11          1           0       -6.655559    7.092727    2.150476
     12          8           0       -4.451546    6.102394    3.886270
     13          7           0       -4.965773    3.973651    3.206203
     14          1           0       -5.682726    3.312828    2.913678
     15          6           0       -3.622862    3.405751    3.208831
     16          1           0       -2.910670    4.196701    2.959594
     17          6           0       -3.636269    2.284157    2.157872
     18          6           0       -3.269822    2.799167    4.605323
     19          1           0       -2.236551    2.438086    4.558503
     20          1           0       -3.906914    1.919963    4.760772
     21          8           0       -4.719978    1.745212    1.879589
     22          6           0       -3.446405    3.781701    5.722380
     23          6           0       -2.507562    4.662810    6.198925
     24          1           0       -1.459147    4.751133    5.948793
     25          6           0       -4.681396    4.110710    6.386877
     26          6           0       -4.419730    5.227535    7.236777
     27          6           0       -5.986939    3.592410    6.332854
     28          1           0       -6.208279    2.725919    5.715646
     29          7           0       -3.085213    5.531028    7.101862
     30          1           0       -2.589643    6.238510    7.623591
     31          6           0       -6.712310    5.317450    7.908036
     32          1           0       -7.508349    5.755876    8.502903
     33          6           0       -5.421202    5.839923    7.997212
     34          1           0       -5.203343    6.686554    8.642126
     35          6           0       -6.991972    4.196728    7.087318
     36          1           0       -7.998868    3.789008    7.070326
     37          7           0       -2.443783    1.938140    1.673751
     38          1           0       -1.599608    2.470588    1.895879
     39          6           0       -2.153455    0.826186    0.771357
     40          1           0       -2.426357   -0.122190    1.251447
     41          6           0       -0.618755    0.880054    0.582963
     42          6           0       -2.935489    0.892725   -0.569727
     43          1           0       -2.397129    0.320872   -1.332136
     44          1           0       -2.949790    1.945551   -0.899872
     45          8           0        0.035757    1.817083    1.051202
     46          8           0       -4.216737    0.323302   -0.478387
     47          1           0       -4.671354    0.758231    0.268631
     48          7           0       -0.093405   -0.151806   -0.094629
     49          1           0       -0.689447   -0.840125   -0.547821
     50          6           0        1.290100   -0.203744   -0.557910
     51          1           0        1.695412    0.812679   -0.519085
     52          6           0        1.197616   -0.714144   -2.009663
     53          6           0        2.166452   -1.135762    0.326009
     54          1           0        1.759002   -2.150893    0.215744
     55          8           0        0.278385   -1.471291   -2.337080
     56          6           0        3.631886   -1.139478   -0.136516
     57          1           0        4.057996   -0.128391   -0.092225
     58          1           0        4.231299   -1.776430    0.522473
     59          1           0        3.754654   -1.508699   -1.158097
     60          6           0        2.072524   -0.726265    1.802726
     61          1           0        2.417976    0.304112    1.944862
     62          1           0        2.695228   -1.385426    2.417553
     63          1           0        1.045836   -0.789531    2.175211
     64          7           0        2.157263   -0.292873   -2.849703
     65          1           0        2.958961    0.244733   -2.527667
     66          6           0        2.309551   -0.812417   -4.200119
     67          1           0        2.112247   -1.891545   -4.181755
     68          6           0        3.785230   -0.568634   -4.580710
     69          6           0        1.330227   -0.145327   -5.178768
     70          1           0        1.432444   -0.561353   -6.185981
     71          1           0        1.516264    0.932483   -5.228653
     72          1           0        0.307652   -0.317651   -4.832527
     73          8           0        4.535155    0.065693   -3.828080
     74          7           0        4.164470   -1.075284   -5.762506
     75          1           0        3.540362   -1.611080   -6.361130
     76          6           0        5.489215   -0.894151   -6.345533
     77          1           0        5.806731    0.142438   -6.200899
     78          6           0        5.341050   -1.204541   -7.858005
     79          6           0        6.494687   -1.842718   -5.631802
     80          1           0        6.302175   -1.716473   -4.562282
     81          1           0        6.222088   -2.876527   -5.884510
     82          8           0        6.198496   -0.654360   -8.634253
     83          6           0        8.004717   -1.602333   -5.874110
     84          1           0        8.180247   -0.567358   -6.195150
     85          1           0        8.541304   -1.716217   -4.924825
     86          6           0        8.685770   -2.556257   -6.870289
     87          1           0        8.481385   -3.595121   -6.582294
     88          1           0        9.772681   -2.406740   -6.843022
     89          7           0        8.186191   -2.310132   -8.224296
     90          1           0        7.661515   -1.416128   -8.337658
     91          7           0        8.195464   -4.519145   -8.991331
     92          1           0        7.957181   -5.171328   -9.724345
     93          1           0        9.065187   -4.704635   -8.513332
     94          7           0        6.927684   -2.858243  -10.060908
     95          1           0        6.496063   -3.558083  -10.646978
     96          1           0        6.390001   -1.989095   -9.853201
     97          6           0        7.769732   -3.233018   -9.089834
     98          8           0        4.454905   -2.011737   -8.188048
 ---------------------------------------------------------------------

 SCF Done:  E(RB3LYP) =  -2360.16186431     A.U. after    2 cycles

 Alpha  occ. eigenvalues --  -19.25227 -19.22266 -19.19320 -19.18819 -19.16732
 Alpha  occ. eigenvalues --  -19.15585 -19.12626 -19.12110 -14.58401 -14.48793
 Alpha  occ. eigenvalues --  -14.48517 -14.45380 -14.45204 -14.42645 -14.42055
 Alpha  occ. eigenvalues --  -14.42050 -14.40550 -14.38948 -10.42465 -10.39765
 Alpha  occ. eigenvalues --  -10.39703 -10.39137 -10.36362 -10.34602 -10.33788
 Alpha  occ. eigenvalues --  -10.33007 -10.32672 -10.32544 -10.32252 -10.31170
 Alpha  occ. eigenvalues --  -10.30377 -10.30162 -10.30113 -10.30023 -10.30003
 Alpha  occ. eigenvalues --  -10.29972 -10.29747 -10.29471 -10.29027 -10.28845
 Alpha  occ. eigenvalues --  -10.28508 -10.27746 -10.25325 -10.24925 -10.24272
 Alpha  occ. eigenvalues --  -10.22825 -10.22347 -10.22306 -10.22218  -1.17855
 Alpha  occ. eigenvalues --   -1.14007  -1.12579  -1.11179  -1.08719  -1.08599
 Alpha  occ. eigenvalues --   -1.08529  -1.07250  -1.06874  -1.05644  -1.05409
 Alpha  occ. eigenvalues --   -1.01897  -0.99355  -0.98331  -0.97237  -0.96873
 Alpha  occ. eigenvalues --   -0.96332  -0.95285  -0.95231  -0.92552  -0.90845
 Alpha  occ. eigenvalues --   -0.87513  -0.86280  -0.84711  -0.84298  -0.83532
 Alpha  occ. eigenvalues --   -0.82376  -0.81679  -0.80280  -0.78092  -0.77159
 Alpha  occ. eigenvalues --   -0.76094  -0.73264  -0.73253  -0.73037  -0.72622
 Alpha  occ. eigenvalues --   -0.72400  -0.71133  -0.70824  -0.70228  -0.70125
 Alpha  occ. eigenvalues --   -0.69574  -0.67490  -0.67076  -0.65970  -0.65708
 Alpha  occ. eigenvalues --   -0.65047  -0.64631  -0.64333  -0.63097  -0.62917
 Alpha  occ. eigenvalues --   -0.62111  -0.61988  -0.61538  -0.61025  -0.59908
 Alpha  occ. eigenvalues --   -0.59317  -0.58619  -0.58085  -0.57633  -0.57308
 Alpha  occ. eigenvalues --   -0.57001  -0.56689  -0.55954  -0.55711  -0.55114
 Alpha  occ. eigenvalues --   -0.54405  -0.54192  -0.53989  -0.53813  -0.53491
 Alpha  occ. eigenvalues --   -0.52847  -0.52664  -0.52496  -0.52379  -0.52021
 Alpha  occ. eigenvalues --   -0.51522  -0.51417  -0.51040  -0.50725  -0.50570
 Alpha  occ. eigenvalues --   -0.49870  -0.49283  -0.49135  -0.48996  -0.48628
 Alpha  occ. eigenvalues --   -0.48309  -0.48163  -0.47981  -0.47800  -0.47278
 Alpha  occ. eigenvalues --   -0.47143  -0.46323  -0.45825  -0.45586  -0.45288
 Alpha  occ. eigenvalues --   -0.44791  -0.44748  -0.44458  -0.44300  -0.44143
 Alpha  occ. eigenvalues --   -0.43842  -0.43631  -0.42954  -0.42661  -0.42096
 Alpha  occ. eigenvalues --   -0.41387  -0.41066  -0.40345  -0.40302  -0.39914
 Alpha  occ. eigenvalues --   -0.39500  -0.38837  -0.38801  -0.38774  -0.38653
 Alpha  occ. eigenvalues --   -0.38309  -0.38018  -0.37552  -0.36318  -0.35658
 Alpha  occ. eigenvalues --   -0.34722  -0.34050  -0.33669  -0.32714  -0.32348
 Alpha  occ. eigenvalues --   -0.31574  -0.30838  -0.30742  -0.30391  -0.29663
 Alpha  occ. eigenvalues --   -0.29381  -0.28010  -0.26827  -0.26303
 Alpha virt. eigenvalues --   -0.12523  -0.11770  -0.09084  -0.08548  -0.07882
 Alpha virt. eigenvalues --   -0.05145  -0.04622  -0.04275  -0.03248  -0.02769
 Alpha virt. eigenvalues --   -0.02539  -0.01397  -0.01311  -0.01216  -0.00753

 Mulliken charges:
               1
     1  N   -0.760772
     2  H    0.422544
     3  H    0.402133
     4  H    0.420401
     5  C   -0.103958
     6  H    0.204101
     7  C    0.668362
     8  C   -0.475389
     9  H    0.213429
    10  H    0.186309
    11  H    0.198744
    12  O   -0.538025
    13  N   -0.604592
    14  H    0.365146
    15  C   -0.060412
    16  H    0.195773
    17  C    0.648801
    18  C   -0.363870
    19  H    0.180112
    20  H    0.175843
    21  O   -0.571697
    22  C    0.080389
    23  C    0.035068
    24  H    0.181087
    25  C    0.063462
    26  C    0.325539
    27  C   -0.225977
    28  H    0.148518
    29  N   -0.682039
    30  H    0.348702
    31  C   -0.204291
    32  H    0.159204
    33  C   -0.171444
    34  H    0.158115
    35  C   -0.194881
    36  H    0.154913
    37  N   -0.631040
    38  H    0.368023
    39  C   -0.068476
    40  H    0.193091
    41  C    0.609670
    42  C   -0.027158
    43  H    0.170635
    44  H    0.131601
    45  O   -0.547307
    46  O   -0.633463
    47  H    0.423772
    48  N   -0.608875
    49  H    0.362947
    50  C   -0.058047
    51  H    0.174054
    52  C    0.618601
    53  C   -0.071461
    54  H    0.141769
    55  O   -0.553273
    56  C   -0.468008
    57  H    0.149339
    58  H    0.154429
    59  H    0.164708
    60  C   -0.443646
    61  H    0.156743
    62  H    0.148745
    63  H    0.141506
    64  N   -0.608789
    65  H    0.361095
    66  C   -0.045218
    67  H    0.179873
    68  C    0.622256
    69  C   -0.448925
    70  H    0.162722
    71  H    0.157908
    72  H    0.179988
    73  O   -0.561229
    74  N   -0.618680
    75  H    0.353971
    76  C   -0.021948
    77  H    0.166322
    78  C    0.583648
    79  C   -0.276408
    80  H    0.173798
    81  H    0.139554
    82  O   -0.645488
    83  C   -0.302534
    84  H    0.171791
    85  H    0.156216
    86  C   -0.148919
    87  H    0.157222
    88  H    0.164094
    89  N   -0.602438
    90  H    0.405852
    91  N   -0.754023
    92  H    0.360641
    93  H    0.366316
    94  N   -0.753924
    95  H    0.345797
    96  H    0.411472
    97  C    0.755658
    98  O   -0.565898
 Sum of Mulliken charges =   1.00000

 Dipole moment (field-independent basis, Debye):
    X=            -12.1652    Y=             16.7096    Z=             13.8991  Tot=             24.9075
 Quadrupole moment (field-independent basis, Debye-Ang):
   XX=             -5.3004   YY=            -91.3635   ZZ=            -87.5871
   XY=           -237.5149   XZ=           -219.3059   YZ=            205.2613

 Normal termination of Gaussian 16 at Thu Jun 23 19:22:09 2022.
