 Gaussian 16, Revision C.01,
 Gaussian 16:  ES64L-G16RevC.01  3-Jul-2019

 ----------------------------------------------------------------------
 # B3LYP/6-31G* empiricaldispersion=gd3 guess=read geom=check nosymm in
 tegral(ultrafinegrid)
 ----------------------------------------------------------------------

 ------------------------------------------------------
 Candidate Structure: Conf:205 Charge calc in gas phase
 ------------------------------------------------------
 Structure from the checkpoint file:  "conf-205.chk"
 Charge =  1 Multiplicity = 1

                          Input orientation:
 ---------------------------------------------------------------------
 Center     Atomic      Atomic             Coordinates (Angstroms)
 Number     Number       Type             X           Y           Z
 ---------------------------------------------------------------------
      1          7           0       -0.896819    2.488310   -1.009682
      2          1           0       -1.196978    3.386505   -1.391001
      3          1           0       -0.343502    1.897206   -1.776601
      4          1           0       -0.185215    2.686916   -0.285038
      5          6           0       -2.004098    1.716406   -0.373431
      6          1           0       -2.953245    2.046748   -0.805379
      7          6           0       -1.933125    1.992783    1.138715
      8          6           0       -1.799247    0.208541   -0.603480
      9          1           0       -2.633139   -0.345049   -0.163863
     10          1           0       -1.745667   -0.016925   -1.671077
     11          1           0       -0.874512   -0.130088   -0.124359
     12          8           0       -0.869706    2.377029    1.632917
     13          7           0       -3.028385    1.678736    1.850738
     14          1           0       -3.857408    1.353432    1.368229
     15          6           0       -2.998036    1.487660    3.308583
     16          1           0       -2.126605    2.042707    3.666952
     17          6           0       -2.777170   -0.020881    3.585273
     18          6           0       -4.271156    2.014294    3.962792
     19          1           0       -4.230880    1.743985    5.025197
     20          1           0       -5.131362    1.455259    3.569032
     21          8           0       -3.597520   -0.707297    4.180158
     22          6           0       -4.470965    3.491113    3.782796
     23          6           0       -3.560043    4.431495    3.365016
     24          1           0       -2.529786    4.313415    3.056343
     25          6           0       -5.695513    4.200327    4.056287
     26          6           0       -5.458337    5.574512    3.784529
     27          6           0       -6.966671    3.802508    4.504692
     28          1           0       -7.171647    2.757903    4.724747
     29          7           0       -4.149689    5.683312    3.357906
     30          1           0       -3.679028    6.546526    3.136952
     31          6           0       -7.694665    6.126469    4.393592
     32          1           0       -8.485602    6.857703    4.533963
     33          6           0       -6.447362    6.549684    3.948792
     34          1           0       -6.248813    7.597341    3.739032
     35          6           0       -7.953012    4.766715    4.667918
     36          1           0       -8.939561    4.474021    5.015757
     37          7           0       -1.623947   -0.515169    3.056364
     38          1           0       -0.931139    0.094417    2.632156
     39          6           0       -1.288385   -1.922570    3.108661
     40          1           0       -1.405559   -2.300947    4.130503
     41          6           0        0.143652   -2.092200    2.621246
     42          6           0       -2.222757   -2.770406    2.183154
     43          1           0       -2.171396   -2.348140    1.169451
     44          1           0       -3.240078   -2.656560    2.564130
     45          8           0        0.708617   -1.253798    1.916210
     46          8           0       -1.894218   -4.145226    2.196110
     47          1           0       -1.223496   -4.293823    1.497840
     48          7           0        0.708943   -3.286625    2.956368
     49          1           0        0.049800   -3.986680    3.285354
     50          6           0        1.833939   -3.785611    2.181091
     51          1           0        2.674762   -3.095719    2.321738
     52          6           0        1.425970   -3.807749    0.686865
     53          6           0        2.236987   -5.195280    2.677067
     54          1           0        1.356649   -5.841581    2.545490
     55          8           0        0.294798   -4.155117    0.345268
     56          6           0        3.385787   -5.783058    1.844775
     57          1           0        4.273056   -5.136727    1.892324
     58          1           0        3.672959   -6.761988    2.241039
     59          1           0        3.114649   -5.915677    0.793090
     60          6           0        2.615149   -5.160450    4.165562
     61          1           0        3.495406   -4.524905    4.324721
     62          1           0        2.859794   -6.167859    4.517997
     63          1           0        1.807059   -4.770692    4.790761
     64          7           0        2.418934   -3.451600   -0.164023
     65          1           0        3.291645   -3.163703    0.259457
     66          6           0        2.387732   -3.245878   -1.620663
     67          1           0        3.041099   -3.997438   -2.084971
     68          6           0        3.107252   -1.898752   -1.808769
     69          6           0        1.001632   -3.332991   -2.257892
     70          1           0        1.091088   -3.119556   -3.328478
     71          1           0        0.298314   -2.632279   -1.800826
     72          1           0        0.584292   -4.330993   -2.132125
     73          8           0        4.296074   -1.795757   -1.418368
     74          7           0        2.432776   -0.865547   -2.302205
     75          1           0        1.439148   -0.920674   -2.512414
     76          6           0        2.933387    0.501634   -2.209204
     77          1           0        3.513760    0.575518   -1.284448
     78          6           0        1.734045    1.458020   -2.042913
     79          6           0        3.808196    0.924167   -3.418116
     80          1           0        4.297537    0.035736   -3.837259
     81          1           0        3.156613    1.310562   -4.207882
     82          8           0        1.950137    2.577052   -1.561621
     83          6           0        4.854270    1.985914   -3.012566
     84          1           0        4.972986    2.730435   -3.806274
     85          1           0        4.487525    2.530708   -2.136767
     86          6           0        6.255480    1.410116   -2.753966
     87          1           0        6.873459    2.179860   -2.274471
     88          1           0        6.728930    1.139618   -3.707599
     89          7           0        6.220412    0.209670   -1.899953
     90          1           0        5.327464   -0.268982   -1.734138
     91          7           0        8.530311   -0.064362   -1.783310
     92          1           0        9.335941   -0.664929   -1.693547
     93          1           0        8.693990    0.902176   -2.019296
     94          7           0        7.104139   -1.790879   -1.160929
     95          1           0        7.844200   -2.279406   -0.679507
     96          1           0        6.155043   -2.161922   -1.118102
     97          6           0        7.282238   -0.538176   -1.612342
     98          8           0        0.602329    0.983674   -2.430648
 ---------------------------------------------------------------------

 SCF Done:  E(RB3LYP) =  -2360.18910155     A.U. after    1 cycles

 Alpha  occ. eigenvalues --  -19.24257 -19.22231 -19.21210 -19.20367 -19.20350
 Alpha  occ. eigenvalues --  -19.19717 -19.18546 -19.17874 -14.51301 -14.50158
 Alpha  occ. eigenvalues --  -14.49751 -14.49405 -14.46881 -14.46270 -14.46149
 Alpha  occ. eigenvalues --  -14.43692 -14.42843 -14.42769 -10.46699 -10.40407
 Alpha  occ. eigenvalues --  -10.39163 -10.38336 -10.36743 -10.36550 -10.35726
 Alpha  occ. eigenvalues --  -10.35330 -10.34857 -10.34367 -10.32000 -10.31855
 Alpha  occ. eigenvalues --  -10.31125 -10.30192 -10.29940 -10.29149 -10.28908
 Alpha  occ. eigenvalues --  -10.28298 -10.28249 -10.27434 -10.26909 -10.26368
 Alpha  occ. eigenvalues --  -10.25963 -10.25513 -10.25054 -10.23428 -10.23224
 Alpha  occ. eigenvalues --  -10.22834 -10.22769 -10.22666 -10.22202  -1.15661
 Alpha  occ. eigenvalues --   -1.15024  -1.14336  -1.13250  -1.12440  -1.11751
 Alpha  occ. eigenvalues --   -1.10398  -1.07846  -1.05834  -1.04413  -1.03988
 Alpha  occ. eigenvalues --   -1.03471  -1.02790  -1.02641  -1.02481  -1.02379
 Alpha  occ. eigenvalues --   -1.00842  -0.99210  -0.90607  -0.89369  -0.88548
 Alpha  occ. eigenvalues --   -0.88010  -0.87441  -0.85791  -0.84376  -0.83601
 Alpha  occ. eigenvalues --   -0.81394  -0.79073  -0.78870  -0.77831  -0.76862
 Alpha  occ. eigenvalues --   -0.76682  -0.76469  -0.75548  -0.75238  -0.73002
 Alpha  occ. eigenvalues --   -0.72453  -0.71848  -0.70900  -0.69216  -0.68941
 Alpha  occ. eigenvalues --   -0.68342  -0.67784  -0.66821  -0.66534  -0.66393
 Alpha  occ. eigenvalues --   -0.65789  -0.65461  -0.64446  -0.64259  -0.63858
 Alpha  occ. eigenvalues --   -0.63633  -0.63436  -0.62625  -0.61509  -0.60341
 Alpha  occ. eigenvalues --   -0.59665  -0.59315  -0.59112  -0.58799  -0.58466
 Alpha  occ. eigenvalues --   -0.58182  -0.57722  -0.57322  -0.56983  -0.56053
 Alpha  occ. eigenvalues --   -0.55509  -0.55211  -0.54904  -0.53851  -0.53728
 Alpha  occ. eigenvalues --   -0.53443  -0.53112  -0.52776  -0.52512  -0.52387
 Alpha  occ. eigenvalues --   -0.51549  -0.51457  -0.50923  -0.50725  -0.50286
 Alpha  occ. eigenvalues --   -0.50148  -0.49658  -0.49564  -0.49037  -0.48978
 Alpha  occ. eigenvalues --   -0.48756  -0.48545  -0.48126  -0.47855  -0.47686
 Alpha  occ. eigenvalues --   -0.47645  -0.47287  -0.47139  -0.46861  -0.46760
 Alpha  occ. eigenvalues --   -0.46535  -0.46482  -0.46096  -0.46005  -0.45902
 Alpha  occ. eigenvalues --   -0.45420  -0.45108  -0.44735  -0.44586  -0.43777
 Alpha  occ. eigenvalues --   -0.43564  -0.43051  -0.42276  -0.42125  -0.42052
 Alpha  occ. eigenvalues --   -0.41901  -0.41313  -0.39660  -0.39515  -0.39256
 Alpha  occ. eigenvalues --   -0.38784  -0.37934  -0.37634  -0.37474  -0.36794
 Alpha  occ. eigenvalues --   -0.36263  -0.36113  -0.35083  -0.34989  -0.34785
 Alpha  occ. eigenvalues --   -0.34294  -0.34142  -0.32994  -0.31828  -0.31763
 Alpha  occ. eigenvalues --   -0.31571  -0.31032  -0.26633  -0.24890
 Alpha virt. eigenvalues --   -0.10790  -0.10077  -0.08733  -0.07058  -0.06786
 Alpha virt. eigenvalues --   -0.05912  -0.05491  -0.04483  -0.04053  -0.03553
 Alpha virt. eigenvalues --   -0.03319  -0.01846  -0.01678  -0.01090  -0.00763

 Mulliken charges:
               1
     1  N   -0.778737
     2  H    0.381587
     3  H    0.452399
     4  H    0.411122
     5  C   -0.086330
     6  H    0.184343
     7  C    0.634457
     8  C   -0.480680
     9  H    0.172617
    10  H    0.193127
    11  H    0.203003
    12  O   -0.539134
    13  N   -0.569789
    14  H    0.345047
    15  C   -0.110571
    16  H    0.205240
    17  C    0.638279
    18  C   -0.348786
    19  H    0.189291
    20  H    0.156940
    21  O   -0.511000
    22  C    0.070362
    23  C   -0.015237
    24  H    0.155634
    25  C    0.072319
    26  C    0.317428
    27  C   -0.211014
    28  H    0.129532
    29  N   -0.704452
    30  H    0.328792
    31  C   -0.149982
    32  H    0.133235
    33  C   -0.162896
    34  H    0.127431
    35  C   -0.139893
    36  H    0.130813
    37  N   -0.655120
    38  H    0.367010
    39  C   -0.036254
    40  H    0.188075
    41  C    0.598255
    42  C   -0.053578
    43  H    0.130807
    44  H    0.191185
    45  O   -0.551327
    46  O   -0.649587
    47  H    0.435475
    48  N   -0.604445
    49  H    0.352637
    50  C   -0.034613
    51  H    0.155947
    52  C    0.652782
    53  C   -0.111172
    54  H    0.156369
    55  O   -0.557646
    56  C   -0.462784
    57  H    0.129022
    58  H    0.170335
    59  H    0.159435
    60  C   -0.445158
    61  H    0.146184
    62  H    0.163437
    63  H    0.164731
    64  N   -0.609357
    65  H    0.342140
    66  C   -0.003386
    67  H    0.177553
    68  C    0.618848
    69  C   -0.477573
    70  H    0.160846
    71  H    0.179061
    72  H    0.204782
    73  O   -0.607046
    74  N   -0.592465
    75  H    0.378148
    76  C   -0.059719
    77  H    0.176476
    78  C    0.604016
    79  C   -0.294992
    80  H    0.152584
    81  H    0.183313
    82  O   -0.557363
    83  C   -0.302402
    84  H    0.173763
    85  H    0.204918
    86  C   -0.162882
    87  H    0.170520
    88  H    0.178462
    89  N   -0.644514
    90  H    0.430580
    91  N   -0.764235
    92  H    0.377677
    93  H    0.385280
    94  N   -0.788886
    95  H    0.364893
    96  H    0.411853
    97  C    0.810919
    98  O   -0.646310
 Sum of Mulliken charges =   1.00000

 Dipole moment (field-independent basis, Debye):
    X=             22.1948    Y=             -0.1865    Z=             -7.2591  Tot=             23.3525
 Quadrupole moment (field-independent basis, Debye-Ang):
   XX=            -78.0360   YY=           -232.3523   ZZ=           -272.5351
   XY=            -49.0913   XZ=            -29.7678   YZ=             -3.9682

 Normal termination of Gaussian 16 at Thu Jun 23 19:21:34 2022.
