 Gaussian 16, Revision C.01,
 Gaussian 16:  ES64L-G16RevC.01  3-Jul-2019

 ----------------------------------------------------------------------
 # B3LYP/6-31G* empiricaldispersion=gd3 guess=read geom=check nosymm in
 tegral(ultrafinegrid)
 ----------------------------------------------------------------------

 ------------------------------------------------------
 Candidate Structure: Conf:797 Charge calc in gas phase
 ------------------------------------------------------
 Structure from the checkpoint file:  "conf-797.chk"
 Charge =  1 Multiplicity = 1

                          Input orientation:
 ---------------------------------------------------------------------
 Center     Atomic      Atomic             Coordinates (Angstroms)
 Number     Number       Type             X           Y           Z
 ---------------------------------------------------------------------
      1          7           0       -7.706492    3.151619    4.609948
      2          1           0       -7.647096    2.550152    5.459935
      3          1           0       -8.621076    3.607173    4.558780
      4          1           0       -6.931308    3.844096    4.704277
      5          6           0       -7.349143    2.368308    3.368782
      6          1           0       -7.748505    1.359393    3.495364
      7          6           0       -5.801363    2.365630    3.403159
      8          6           0       -7.900715    3.052796    2.120287
      9          1           0       -7.596947    2.488327    1.234419
     10          1           0       -8.995239    3.092857    2.135309
     11          1           0       -7.500765    4.067800    2.024560
     12          8           0       -5.230706    3.260095    4.038110
     13          7           0       -5.207591    1.381307    2.734086
     14          1           0       -5.741988    0.623270    2.309960
     15          6           0       -3.801416    1.032069    2.900777
     16          1           0       -3.178623    1.901598    2.672833
     17          6           0       -3.549958   -0.100809    1.891848
     18          6           0       -3.511535    0.546227    4.363761
     19          1           0       -3.381929    1.432726    4.990250
     20          1           0       -2.554000    0.014175    4.360065
     21          8           0       -4.488565   -0.807929    1.506847
     22          6           0       -4.627755   -0.300146    4.906689
     23          6           0       -4.966638   -1.577838    4.529931
     24          1           0       -4.465553   -2.248820    3.847744
     25          6           0       -5.676315    0.149425    5.789661
     26          6           0       -6.630312   -0.905800    5.890609
     27          6           0       -5.901703    1.333320    6.515346
     28          1           0       -5.178319    2.142572    6.483341
     29          7           0       -6.164484   -1.941258    5.113700
     30          1           0       -6.598280   -2.848277    5.027143
     31          6           0       -8.015160    0.402020    7.329797
     32          1           0       -8.906373    0.517522    7.939276
     33          6           0       -7.802407   -0.790257    6.647532
     34          1           0       -8.517507   -1.605745    6.707123
     35          6           0       -7.069065    1.453769    7.273451
     36          1           0       -7.225533    2.342254    7.881605
     37          7           0       -2.268834   -0.282677    1.542354
     38          1           0       -1.547517    0.386608    1.798228
     39          6           0       -1.842107   -1.234598    0.531950
     40          1           0       -2.223714   -2.234052    0.773580
     41          6           0       -0.309543   -1.193742    0.528182
     42          6           0       -2.352193   -0.816474   -0.881794
     43          1           0       -3.443590   -0.773939   -0.837841
     44          1           0       -2.079725   -1.601987   -1.605927
     45          8           0        0.295442   -0.280597    1.087762
     46          8           0       -1.883418    0.453051   -1.254126
     47          1           0       -0.954270    0.370536   -1.563772
     48          7           0        0.306991   -2.149012   -0.220531
     49          1           0       -0.284589   -2.773720   -0.757084
     50          6           0        1.643126   -1.897523   -0.790359
     51          1           0        2.176791   -1.278978   -0.064474
     52          6           0        1.417155   -1.088547   -2.089362
     53          6           0        2.428114   -3.191843   -1.048269
     54          1           0        1.924681   -3.720850   -1.868059
     55          8           0        1.496485   -1.600892   -3.193916
     56          6           0        3.853360   -2.844363   -1.517659
     57          1           0        4.428862   -2.375054   -0.711372
     58          1           0        4.369268   -3.770496   -1.814427
     59          1           0        3.828274   -2.144337   -2.357854
     60          6           0        2.468544   -4.087778    0.195744
     61          1           0        2.949276   -3.569968    1.034890
     62          1           0        3.039060   -5.001377   -0.007235
     63          1           0        1.465781   -4.382732    0.519187
     64          7           0        0.987133    0.218900   -1.885578
     65          1           0        1.256906    0.560639   -0.965189
     66          6           0        1.357901    1.178020   -2.936707
     67          1           0        0.938863    0.815462   -3.878381
     68          6           0        2.907790    1.171188   -3.045433
     69          6           0        0.806854    2.567822   -2.607424
     70          1           0        1.104541    3.288717   -3.374170
     71          1           0        1.205417    2.923572   -1.649294
     72          1           0       -0.286444    2.549416   -2.545761
     73          8           0        3.579951    0.542644   -2.207482
     74          7           0        3.390036    1.847586   -4.085306
     75          1           0        2.826061    2.534152   -4.625823
     76          6           0        4.778297    2.248074   -4.280988
     77          1           0        5.241799    2.448824   -3.307349
     78          6           0        4.726694    3.590345   -5.131452
     79          6           0        5.606101    1.196661   -5.025793
     80          1           0        5.196081    1.067549   -6.037099
     81          1           0        6.612914    1.613623   -5.137706
     82          8           0        5.838882    4.040087   -5.446628
     83          6           0        5.618076   -0.149714   -4.300809
     84          1           0        5.923624   -0.013030   -3.257551
     85          1           0        4.595422   -0.545797   -4.272735
     86          6           0        6.520622   -1.185136   -4.961449
     87          1           0        7.571047   -0.872216   -4.925683
     88          1           0        6.233953   -1.346149   -6.008685
     89          7           0        6.384730   -2.460150   -4.217648
     90          1           0        5.585620   -2.518947   -3.594199
     91          7           0        8.143929   -3.576469   -5.237076
     92          1           0        8.950604   -4.171112   -5.112187
     93          1           0        8.203519   -2.864839   -5.951482
     94          7           0        7.114522   -4.500163   -3.378481
     95          1           0        7.437814   -5.426877   -3.617920
     96          1           0        6.452750   -4.432144   -2.617156
     97          6           0        7.200060   -3.498204   -4.282033
     98          8           0        3.554415    3.988609   -5.386821
 ---------------------------------------------------------------------

 SCF Done:  E(RB3LYP) =  -2360.09304929     A.U. after    3 cycles

 Alpha  occ. eigenvalues --  -19.25264 -19.21702 -19.21067 -19.20079 -19.18883
 Alpha  occ. eigenvalues --  -19.14122 -19.05436 -19.04246 -14.58347 -14.50672
 Alpha  occ. eigenvalues --  -14.50584 -14.50030 -14.48184 -14.48124 -14.45266
 Alpha  occ. eigenvalues --  -14.45137 -14.41449 -14.35938 -10.46676 -10.42239
 Alpha  occ. eigenvalues --  -10.39701 -10.38648 -10.37932 -10.35416 -10.34171
 Alpha  occ. eigenvalues --  -10.32634 -10.32405 -10.32099 -10.32056 -10.31720
 Alpha  occ. eigenvalues --  -10.31032 -10.30687 -10.30475 -10.29526 -10.29502
 Alpha  occ. eigenvalues --  -10.29418 -10.29149 -10.29101 -10.28923 -10.28163
 Alpha  occ. eigenvalues --  -10.27297 -10.27195 -10.25877 -10.24888 -10.23995
 Alpha  occ. eigenvalues --  -10.23353 -10.22462 -10.21162 -10.20715  -1.17765
 Alpha  occ. eigenvalues --   -1.15228  -1.13829  -1.12933  -1.12486  -1.10599
 Alpha  occ. eigenvalues --   -1.08069  -1.08003  -1.05316  -1.05105  -1.04149
 Alpha  occ. eigenvalues --   -1.03603  -1.01936  -1.01430  -0.98488  -0.97731
 Alpha  occ. eigenvalues --   -0.94495  -0.93054  -0.92423  -0.90304  -0.89722
 Alpha  occ. eigenvalues --   -0.88624  -0.86930  -0.86585  -0.84312  -0.83849
 Alpha  occ. eigenvalues --   -0.82130  -0.81622  -0.80057  -0.79210  -0.77846
 Alpha  occ. eigenvalues --   -0.76899  -0.76490  -0.76096  -0.73478  -0.73091
 Alpha  occ. eigenvalues --   -0.72777  -0.72554  -0.71124  -0.71068  -0.70492
 Alpha  occ. eigenvalues --   -0.69400  -0.69253  -0.68548  -0.67814  -0.66620
 Alpha  occ. eigenvalues --   -0.66514  -0.65707  -0.65068  -0.64349  -0.63971
 Alpha  occ. eigenvalues --   -0.63712  -0.63398  -0.62094  -0.61905  -0.61018
 Alpha  occ. eigenvalues --   -0.59239  -0.59076  -0.58701  -0.58180  -0.57938
 Alpha  occ. eigenvalues --   -0.57765  -0.57586  -0.57321  -0.56851  -0.56041
 Alpha  occ. eigenvalues --   -0.55908  -0.55575  -0.55061  -0.54354  -0.54181
 Alpha  occ. eigenvalues --   -0.53439  -0.53384  -0.53294  -0.52964  -0.52314
 Alpha  occ. eigenvalues --   -0.52284  -0.51835  -0.51576  -0.51336  -0.51012
 Alpha  occ. eigenvalues --   -0.50639  -0.50172  -0.50000  -0.48894  -0.48697
 Alpha  occ. eigenvalues --   -0.48637  -0.48330  -0.48094  -0.47638  -0.47186
 Alpha  occ. eigenvalues --   -0.46928  -0.46582  -0.46260  -0.46008  -0.45845
 Alpha  occ. eigenvalues --   -0.45649  -0.45157  -0.44883  -0.44055  -0.43610
 Alpha  occ. eigenvalues --   -0.43399  -0.42910  -0.42752  -0.42047  -0.41793
 Alpha  occ. eigenvalues --   -0.41584  -0.41295  -0.40917  -0.40576  -0.40036
 Alpha  occ. eigenvalues --   -0.39751  -0.39410  -0.38931  -0.38161  -0.38089
 Alpha  occ. eigenvalues --   -0.37793  -0.37117  -0.36515  -0.36041  -0.35872
 Alpha  occ. eigenvalues --   -0.35444  -0.34915  -0.34814  -0.33280  -0.33087
 Alpha  occ. eigenvalues --   -0.32881  -0.32754  -0.30725  -0.30438  -0.28221
 Alpha  occ. eigenvalues --   -0.27166  -0.20501  -0.20372  -0.18593
 Alpha virt. eigenvalues --   -0.11715  -0.11540  -0.10844  -0.09385  -0.08355
 Alpha virt. eigenvalues --   -0.08030  -0.07538  -0.07177  -0.04561  -0.04157
 Alpha virt. eigenvalues --   -0.03434  -0.03076  -0.02525  -0.02147  -0.01452

 Mulliken charges:
               1
     1  N   -0.751459
     2  H    0.411246
     3  H    0.403078
     4  H    0.417323
     5  C   -0.120620
     6  H    0.216059
     7  C    0.672588
     8  C   -0.471037
     9  H    0.214688
    10  H    0.186234
    11  H    0.198487
    12  O   -0.543285
    13  N   -0.607992
    14  H    0.368004
    15  C   -0.038244
    16  H    0.196904
    17  C    0.640912
    18  C   -0.381568
    19  H    0.188059
    20  H    0.183998
    21  O   -0.560641
    22  C    0.060116
    23  C    0.026680
    24  H    0.182996
    25  C    0.070922
    26  C    0.313357
    27  C   -0.249390
    28  H    0.167631
    29  N   -0.684546
    30  H    0.347258
    31  C   -0.149662
    32  H    0.154789
    33  C   -0.161199
    34  H    0.154068
    35  C   -0.226173
    36  H    0.153523
    37  N   -0.610973
    38  H    0.368093
    39  C   -0.056689
    40  H    0.170211
    41  C    0.606748
    42  C   -0.055255
    43  H    0.183623
    44  H    0.126875
    45  O   -0.529337
    46  O   -0.648324
    47  H    0.450241
    48  N   -0.606626
    49  H    0.337563
    50  C   -0.062220
    51  H    0.199425
    52  C    0.627458
    53  C   -0.088062
    54  H    0.147173
    55  O   -0.509629
    56  C   -0.494887
    57  H    0.168183
    58  H    0.098581
    59  H    0.206405
    60  C   -0.445329
    61  H    0.154146
    62  H    0.141846
    63  H    0.150763
    64  N   -0.643445
    65  H    0.353388
    66  C   -0.067374
    67  H    0.189341
    68  C    0.624364
    69  C   -0.483275
    70  H    0.207087
    71  H    0.154257
    72  H    0.164749
    73  O   -0.596473
    74  N   -0.607681
    75  H    0.361980
    76  C   -0.078921
    77  H    0.143512
    78  C    0.587987
    79  C   -0.259661
    80  H    0.138408
    81  H    0.165850
    82  O   -0.586327
    83  C   -0.315355
    84  H    0.169898
    85  H    0.171040
    86  C   -0.149937
    87  H    0.178603
    88  H    0.182224
    89  N   -0.609924
    90  H    0.383973
    91  N   -0.754757
    92  H    0.380706
    93  H    0.395540
    94  N   -0.772175
    95  H    0.376684
    96  H    0.387579
    97  C    0.813345
    98  O   -0.618316
 Sum of Mulliken charges =   1.00000

 Dipole moment (field-independent basis, Debye):
    X=            -17.5709    Y=            -19.6599    Z=             16.7637  Tot=             31.2453
 Quadrupole moment (field-independent basis, Debye-Ang):
   XX=             81.5261   YY=           -237.8744   ZZ=           -224.8088
   XY=           -215.0789   XZ=           -179.5623   YZ=            144.9655

 Normal termination of Gaussian 16 at Thu Jun 23 19:21:56 2022.
