 Gaussian 16, Revision C.01,
 Gaussian 16:  ES64L-G16RevC.01  3-Jul-2019

 ----------------------------------------------------------------------
 # B3LYP/6-31G* empiricaldispersion=gd3 guess=read geom=check nosymm in
 tegral(ultrafinegrid)
 ----------------------------------------------------------------------

 ------------------------------------------------------
 Candidate Structure: Conf:879 Charge calc in gas phase
 ------------------------------------------------------
 Structure from the checkpoint file:  "conf-879.chk"
 Charge =  1 Multiplicity = 1

                          Input orientation:
 ---------------------------------------------------------------------
 Center     Atomic      Atomic             Coordinates (Angstroms)
 Number     Number       Type             X           Y           Z
 ---------------------------------------------------------------------
      1          7           0       -5.384269    2.532137    5.300621
      2          1           0       -4.530402    3.144054    5.334606
      3          1           0       -5.579904    2.147803    6.228530
      4          1           0       -6.164165    3.141876    4.981553
      5          6           0       -5.262945    1.469144    4.226172
      6          1           0       -4.246867    1.071192    4.276991
      7          6           0       -5.513586    2.296341    2.944163
      8          6           0       -6.318266    0.387796    4.431370
      9          1           0       -6.228085   -0.359814    3.638084
     10          1           0       -6.190308   -0.123871    5.391660
     11          1           0       -7.322253    0.820601    4.376534
     12          8           0       -6.399592    3.153448    2.998813
     13          7           0       -4.717190    2.060436    1.901315
     14          1           0       -4.026972    1.311632    1.887072
     15          6           0       -4.563190    3.002678    0.807987
     16          1           0       -5.546785    3.384929    0.525910
     17          6           0       -3.862383    2.226236   -0.314438
     18          6           0       -3.588225    4.193100    1.192132
     19          1           0       -3.849116    5.048669    0.560576
     20          1           0       -2.573082    3.901970    0.903474
     21          8           0       -3.269083    1.178871   -0.048620
     22          6           0       -3.613705    4.580030    2.638430
     23          6           0       -2.823992    4.042660    3.611145
     24          1           0       -2.011395    3.333649    3.520080
     25          6           0       -4.513946    5.511481    3.295400
     26          6           0       -4.214849    5.490181    4.674718
     27          6           0       -5.548354    6.335801    2.832997
     28          1           0       -5.812275    6.352286    1.779934
     29          7           0       -3.225679    4.500105    4.890068
     30          1           0       -2.519258    4.651727    5.604297
     31          6           0       -5.906098    7.102877    5.118950
     32          1           0       -6.449743    7.740967    5.809037
     33          6           0       -4.897258    6.272793    5.605665
     34          1           0       -4.644450    6.252863    6.662628
     35          6           0       -6.231001    7.128270    3.749344
     36          1           0       -7.029877    7.778681    3.406528
     37          7           0       -3.812443    2.828330   -1.514989
     38          1           0       -4.369852    3.649234   -1.710715
     39          6           0       -2.775552    2.484050   -2.479803
     40          1           0       -3.001511    1.514119   -2.936100
     41          6           0       -1.408376    2.467204   -1.749062
     42          6           0       -2.727281    3.575093   -3.551454
     43          1           0       -2.048175    3.249476   -4.351931
     44          1           0       -2.315746    4.488239   -3.096050
     45          8           0       -1.137181    3.352942   -0.937161
     46          8           0       -4.056483    3.777368   -4.020364
     47          1           0       -4.040633    4.484450   -4.683252
     48          7           0       -0.580138    1.473220   -2.102530
     49          1           0       -0.824316    0.807806   -2.828996
     50          6           0        0.777487    1.335291   -1.598658
     51          1           0        1.141482    2.337347   -1.347426
     52          6           0        1.607787    0.732942   -2.742827
     53          6           0        0.867981    0.432024   -0.330682
     54          1           0        1.937637    0.311417   -0.118678
     55          8           0        1.067954    0.090038   -3.641983
     56          6           0        0.189987    1.099439    0.875017
     57          1           0       -0.891060    1.176677    0.720511
     58          1           0        0.368020    0.498857    1.775913
     59          1           0        0.576920    2.109654    1.049110
     60          6           0        0.296410   -0.968226   -0.585751
     61          1           0       -0.769011   -0.912051   -0.841011
     62          1           0        0.395214   -1.578629    0.318777
     63          1           0        0.837715   -1.475001   -1.388128
     64          7           0        2.944010    0.968998   -2.667106
     65          1           0        3.271872    1.305594   -1.769037
     66          6           0        3.891898    0.091977   -3.343607
     67          1           0        3.466191   -0.144882   -4.322298
     68          6           0        4.036546   -1.223964   -2.529723
     69          6           0        5.241500    0.803480   -3.507140
     70          1           0        5.971191    0.160387   -4.006901
     71          1           0        5.657847    1.066608   -2.526579
     72          1           0        5.121222    1.721678   -4.090351
     73          8           0        3.489510   -1.354932   -1.428907
     74          7           0        4.797266   -2.155110   -3.125710
     75          1           0        5.413532   -1.925435   -3.918813
     76          6           0        5.395587   -3.293051   -2.439504
     77          1           0        5.712024   -2.985392   -1.435083
     78          6           0        6.672387   -3.699196   -3.293974
     79          6           0        4.439861   -4.485276   -2.292343
     80          1           0        4.946857   -5.216483   -1.653918
     81          1           0        3.513051   -4.163287   -1.801381
     82          8           0        7.156210   -4.815249   -3.011440
     83          6           0        4.163232   -5.133546   -3.651679
     84          1           0        3.626311   -4.439843   -4.309980
     85          1           0        5.145406   -5.350991   -4.089551
     86          6           0        3.400962   -6.448996   -3.547724
     87          1           0        2.344714   -6.300239   -3.291755
     88          1           0        3.868917   -7.089833   -2.788758
     89          7           0        3.473433   -7.138271   -4.859249
     90          1           0        4.146035   -6.748707   -5.510932
     91          7           0        2.201667   -8.976335   -4.250266
     92          1           0        1.534592   -9.682861   -4.523667
     93          1           0        2.195087   -8.677039   -3.286188
     94          7           0        2.928495   -8.759735   -6.438226
     95          1           0        2.827573   -9.752092   -6.601004
     96          1           0        3.419114   -8.241908   -7.154446
     97          6           0        2.884901   -8.279635   -5.174764
     98          8           0        6.993731   -2.867538   -4.183746
 ---------------------------------------------------------------------

 SCF Done:  E(RB3LYP) =  -2360.08098984     A.U. after    2 cycles

 Alpha  occ. eigenvalues --  -19.24180 -19.22702 -19.20777 -19.17317 -19.16215
 Alpha  occ. eigenvalues --  -19.12963 -19.06056 -19.05144 -14.57886 -14.50708
 Alpha  occ. eigenvalues --  -14.50462 -14.49939 -14.48857 -14.47574 -14.44500
 Alpha  occ. eigenvalues --  -14.41635 -14.39680 -14.35120 -10.46626 -10.41449
 Alpha  occ. eigenvalues --  -10.39286 -10.37719 -10.34863 -10.33674 -10.32985
 Alpha  occ. eigenvalues --  -10.32107 -10.32040 -10.31976 -10.31914 -10.31402
 Alpha  occ. eigenvalues --  -10.30831 -10.29616 -10.28979 -10.28678 -10.28660
 Alpha  occ. eigenvalues --  -10.28364 -10.27870 -10.27832 -10.27760 -10.27300
 Alpha  occ. eigenvalues --  -10.25949 -10.24060 -10.23508 -10.23407 -10.21544
 Alpha  occ. eigenvalues --  -10.21318 -10.21164 -10.20560 -10.20517  -1.16955
 Alpha  occ. eigenvalues --   -1.15162  -1.13010  -1.11982  -1.10035  -1.09234
 Alpha  occ. eigenvalues --   -1.07909  -1.07718  -1.04359  -1.04283  -1.04061
 Alpha  occ. eigenvalues --   -1.03553  -1.00895  -0.99126  -0.98127  -0.96337
 Alpha  occ. eigenvalues --   -0.93550  -0.92443  -0.91758  -0.90253  -0.90152
 Alpha  occ. eigenvalues --   -0.86655  -0.86271  -0.84945  -0.83152  -0.82929
 Alpha  occ. eigenvalues --   -0.81772  -0.80488  -0.79410  -0.78832  -0.76391
 Alpha  occ. eigenvalues --   -0.76216  -0.75686  -0.73024  -0.72276  -0.72099
 Alpha  occ. eigenvalues --   -0.71614  -0.71430  -0.70619  -0.70598  -0.70161
 Alpha  occ. eigenvalues --   -0.68817  -0.68549  -0.68272  -0.66832  -0.65978
 Alpha  occ. eigenvalues --   -0.64970  -0.64269  -0.64168  -0.63598  -0.62895
 Alpha  occ. eigenvalues --   -0.62824  -0.61882  -0.61497  -0.61292  -0.60242
 Alpha  occ. eigenvalues --   -0.59189  -0.58676  -0.58395  -0.57670  -0.57346
 Alpha  occ. eigenvalues --   -0.56831  -0.56547  -0.56495  -0.55999  -0.55688
 Alpha  occ. eigenvalues --   -0.54800  -0.54505  -0.54314  -0.53494  -0.53241
 Alpha  occ. eigenvalues --   -0.52753  -0.52507  -0.51982  -0.51630  -0.51479
 Alpha  occ. eigenvalues --   -0.50966  -0.50394  -0.50303  -0.49909  -0.49528
 Alpha  occ. eigenvalues --   -0.49084  -0.48611  -0.48513  -0.48341  -0.48138
 Alpha  occ. eigenvalues --   -0.47833  -0.47053  -0.46401  -0.46004  -0.45805
 Alpha  occ. eigenvalues --   -0.45433  -0.44983  -0.44705  -0.44336  -0.44088
 Alpha  occ. eigenvalues --   -0.43429  -0.43299  -0.43263  -0.42683  -0.42409
 Alpha  occ. eigenvalues --   -0.42106  -0.41819  -0.41700  -0.41446  -0.41200
 Alpha  occ. eigenvalues --   -0.40062  -0.39860  -0.39649  -0.38917  -0.38803
 Alpha  occ. eigenvalues --   -0.38354  -0.38231  -0.37578  -0.37299  -0.37093
 Alpha  occ. eigenvalues --   -0.36971  -0.36487  -0.36274  -0.35314  -0.35191
 Alpha  occ. eigenvalues --   -0.34753  -0.34290  -0.33370  -0.32592  -0.31839
 Alpha  occ. eigenvalues --   -0.31062  -0.30922  -0.29956  -0.29426  -0.26827
 Alpha  occ. eigenvalues --   -0.26147  -0.21414  -0.20783  -0.19543
 Alpha virt. eigenvalues --   -0.11455  -0.11059  -0.10696  -0.08494  -0.07930
 Alpha virt. eigenvalues --   -0.07058  -0.06750  -0.04397  -0.04049  -0.03087
 Alpha virt. eigenvalues --   -0.02758  -0.02315  -0.02100  -0.01711  -0.01177

 Mulliken charges:
               1
     1  N   -0.765527
     2  H    0.442681
     3  H    0.399014
     4  H    0.423414
     5  C   -0.106217
     6  H    0.199205
     7  C    0.653656
     8  C   -0.469664
     9  H    0.211316
    10  H    0.179422
    11  H    0.200589
    12  O   -0.529931
    13  N   -0.601209
    14  H    0.363340
    15  C   -0.055516
    16  H    0.192410
    17  C    0.638804
    18  C   -0.396478
    19  H    0.167536
    20  H    0.234695
    21  O   -0.532703
    22  C    0.109199
    23  C   -0.075500
    24  H    0.178439
    25  C    0.138835
    26  C    0.210538
    27  C   -0.181935
    28  H    0.142535
    29  N   -0.720461
    30  H    0.355904
    31  C   -0.143528
    32  H    0.154012
    33  C   -0.194419
    34  H    0.141406
    35  C   -0.136082
    36  H    0.152936
    37  N   -0.598545
    38  H    0.349942
    39  C   -0.023587
    40  H    0.175727
    41  C    0.637638
    42  C   -0.075196
    43  H    0.162451
    44  H    0.159860
    45  O   -0.557486
    46  O   -0.626821
    47  H    0.411554
    48  N   -0.598373
    49  H    0.352216
    50  C   -0.076417
    51  H    0.169059
    52  C    0.633704
    53  C   -0.068041
    54  H    0.160919
    55  O   -0.549157
    56  C   -0.467327
    57  H    0.165006
    58  H    0.126399
    59  H    0.140482
    60  C   -0.461824
    61  H    0.136141
    62  H    0.135851
    63  H    0.184411
    64  N   -0.571883
    65  H    0.330039
    66  C   -0.080857
    67  H    0.185938
    68  C    0.610003
    69  C   -0.469379
    70  H    0.196447
    71  H    0.149592
    72  H    0.158718
    73  O   -0.560303
    74  N   -0.611882
    75  H    0.356765
    76  C   -0.063495
    77  H    0.148329
    78  C    0.563947
    79  C   -0.253498
    80  H    0.149603
    81  H    0.138981
    82  O   -0.606092
    83  C   -0.327589
    84  H    0.159639
    85  H    0.194768
    86  C   -0.147001
    87  H    0.173015
    88  H    0.183383
    89  N   -0.597527
    90  H    0.375422
    91  N   -0.757285
    92  H    0.379737
    93  H    0.394493
    94  N   -0.759209
    95  H    0.378036
    96  H    0.382861
    97  C    0.821343
    98  O   -0.604362
 Sum of Mulliken charges =   1.00000

 Dipole moment (field-independent basis, Debye):
    X=            -27.4039    Y=             -7.4085    Z=              6.8068  Tot=             29.1923
 Quadrupole moment (field-independent basis, Debye-Ang):
   XX=           -297.3880   YY=              4.2047   ZZ=            -80.3011
   XY=            -59.9276   XZ=            -77.4340   YZ=            165.8257

 Normal termination of Gaussian 16 at Thu Jun 23 19:21:34 2022.
