 Gaussian 16, Revision C.01,
 Gaussian 16:  ES64L-G16RevC.01  3-Jul-2019

 ----------------------------------------------------------------------
 # B3LYP/6-31G* empiricaldispersion=gd3 guess=read geom=check nosymm in
 tegral(ultrafinegrid)
 ----------------------------------------------------------------------

 ------------------------------------------------------
 Candidate Structure: Conf:607 Charge calc in gas phase
 ------------------------------------------------------
 Structure from the checkpoint file:  "conf-607.chk"
 Charge =  1 Multiplicity = 1

                          Input orientation:
 ---------------------------------------------------------------------
 Center     Atomic      Atomic             Coordinates (Angstroms)
 Number     Number       Type             X           Y           Z
 ---------------------------------------------------------------------
      1          7           0       -9.742268    1.896487   -4.733888
      2          1           0       -9.816426    0.857301   -4.775144
      3          1           0      -10.643485    2.329998   -4.520361
      4          1           0       -9.076884    2.092505   -3.952578
      5          6           0       -9.198428    2.302309   -6.088771
      6          1           0      -10.066924    2.428156   -6.743606
      7          6           0       -8.398518    1.046000   -6.531069
      8          6           0       -8.382776    3.590217   -5.989871
      9          1           0       -8.184481    3.982972   -6.991222
     10          1           0       -7.419577    3.411180   -5.503902
     11          1           0       -8.937951    4.364296   -5.450673
     12          8           0       -8.575257    0.003052   -5.896185
     13          7           0       -7.544365    1.174577   -7.566538
     14          1           0       -7.291434    2.126519   -7.808682
     15          6           0       -6.387404    0.259261   -7.601862
     16          1           0       -6.746774   -0.743651   -7.376762
     17          6           0       -5.447517    0.769129   -6.477813
     18          6           0       -5.721062    0.264227   -8.977570
     19          1           0       -5.201843    1.214786   -9.155789
     20          1           0       -6.487677    0.157962   -9.755380
     21          8           0       -5.409594    1.985976   -6.247762
     22          6           0       -4.739958   -0.912262   -9.080645
     23          7           0       -3.966903   -0.928232  -10.193486
     24          1           0       -3.335128   -1.706438  -10.327180
     25          1           0       -4.042099   -0.237089  -10.925047
     26          8           0       -4.679918   -1.777018   -8.213402
     27          7           0       -4.806836   -0.158949   -5.754264
     28          1           0       -4.737862   -1.120360   -6.089263
     29          6           0       -4.017631    0.193418   -4.581115
     30          1           0       -3.579964    1.183157   -4.750111
     31          6           0       -2.923764   -0.877426   -4.426023
     32          6           0       -4.880222    0.228093   -3.293899
     33          1           0       -5.185717   -0.793496   -3.040761
     34          1           0       -4.264597    0.591362   -2.464710
     35          8           0       -3.073117   -2.000355   -4.901794
     36          6           0       -6.122223    1.110317   -3.449901
     37          1           0       -6.816327    0.664576   -4.170526
     38          1           0       -5.853689    2.092660   -3.855953
     39          6           0       -6.870462    1.335398   -2.167991
     40          8           0       -6.551859    1.041950   -1.049184
     41          8           0       -8.076016    2.003654   -2.409979
     42          7           0       -1.862159   -0.500337   -3.685308
     43          1           0       -1.727100    0.460346   -3.388072
     44          6           0       -0.742829   -1.391107   -3.401464
     45          1           0       -1.149230   -2.386328   -3.201843
     46          6           0       -0.041944   -0.804059   -2.174701
     47          6           0        0.230968   -1.439637   -4.604138
     48          1           0        0.519686   -0.404668   -4.825625
     49          1           0       -0.345260   -1.810739   -5.460902
     50          8           0        0.054813    0.424627   -2.055581
     51          6           0        1.498768   -2.293639   -4.421001
     52          1           0        2.045411   -1.918166   -3.545225
     53          6           0        1.176509   -3.779144   -4.199715
     54          1           0        0.613153   -4.185076   -5.049150
     55          1           0        0.573119   -3.957074   -3.300523
     56          1           0        2.095519   -4.365646   -4.093424
     57          6           0        2.412500   -2.120628   -5.643207
     58          1           0        1.920175   -2.482901   -6.554832
     59          1           0        2.674366   -1.067529   -5.797018
     60          1           0        3.343595   -2.685096   -5.519786
     61          7           0        0.487281   -1.677006   -1.295726
     62          1           0        0.428615   -2.667027   -1.495093
     63          6           0        1.293850   -1.265518   -0.138020
     64          1           0        0.923209   -0.285811    0.172822
     65          6           0        2.765772   -1.063656   -0.564440
     66          6           0        1.150047   -2.259501    1.011082
     67          1           0        1.640329   -3.203840    0.739083
     68          1           0        1.711003   -1.835983    1.849254
     69          8           0        3.698573   -1.712884   -0.091136
     70          6           0       -0.299487   -2.517213    1.463224
     71          1           0       -0.849942   -2.987045    0.633645
     72          6           0       -0.300210   -3.500249    2.642486
     73          1           0        0.216241   -3.066311    3.508004
     74          1           0        0.208212   -4.437255    2.385072
     75          1           0       -1.322641   -3.744888    2.952029
     76          6           0       -1.023631   -1.214409    1.835154
     77          1           0       -0.450298   -0.653931    2.583924
     78          1           0       -1.165543   -0.560905    0.966922
     79          1           0       -2.014008   -1.426455    2.254099
     80          7           0        2.920023   -0.121943   -1.534883
     81          1           0        2.121500    0.476194   -1.728975
     82          6           0        4.234449    0.342003   -1.979017
     83          1           0        4.925966   -0.473455   -1.755429
     84          6           0        4.577885    1.546527   -1.085700
     85          6           0        4.277338    0.622170   -3.496488
     86          1           0        4.161623   -0.365034   -3.968649
     87          8           0        4.307852    2.707973   -1.392948
     88          6           0        5.648189    1.189428   -3.920032
     89          1           0        5.631660    1.317274   -5.010196
     90          1           0        5.762468    2.193050   -3.493323
     91          6           0        3.138160    1.524145   -3.999900
     92          1           0        3.210489    2.521251   -3.560036
     93          1           0        2.149240    1.115872   -3.761736
     94          1           0        3.197247    1.618130   -5.090753
     95          6           0        6.850532    0.318309   -3.536289
     96          1           0        7.773627    0.720580   -3.967029
     97          1           0        6.731177   -0.710010   -3.900934
     98          1           0        6.999126    0.275021   -2.451711
     99          7           0        5.113580    1.209404    0.119396
    100          1           0        5.199539    0.220048    0.324889
    101          6           0        5.072609    2.157539    1.245562
    102          1           0        4.212328    2.809087    1.064982
    103          6           0        6.373575    2.998501    1.239470
    104          6           0        4.898790    1.426361    2.586250
    105          1           0        4.514655    2.140445    3.320480
    106          1           0        5.877302    1.090562    2.941067
    107          8           0        7.279838    2.802361    2.045442
    108          6           0        3.903134    0.283016    2.428489
    109          7           0        4.416668   -0.963249    2.642309
    110          1           0        5.408204   -1.085695    2.789702
    111          1           0        3.926316   -1.739582    2.214495
    112          8           0        2.741441    0.468814    2.073398
    113          7           0        6.412116    3.912676    0.242472
    114          1           0        5.640853    3.954726   -0.421693
    115          6           0        7.611948    4.662956   -0.092201
    116          1           0        8.261194    4.638986    0.788550
    117          6           0        7.167981    6.091247   -0.428565
    118          6           0        8.363489    4.044752   -1.303463
    119          1           0        7.668947    4.094327   -2.154282
    120          8           0        6.228166    6.291203   -1.196523
    121          6           0        9.617949    4.861314   -1.647250
    122          1           0       10.313596    4.884669   -0.798034
    123          1           0       10.146823    4.411626   -2.494685
    124          1           0        9.378833    5.895669   -1.914318
    125          6           0        8.722433    2.576410   -1.041737
    126          1           0        9.383019    2.482586   -0.172083
    127          1           0        9.236442    2.150190   -1.910941
    128          1           0        7.830833    1.972621   -0.849520
    129          7           0        7.881094    7.085999    0.151662
    130          1           0        8.708360    6.886739    0.702048
    131          6           0        7.666883    8.485034   -0.175662
    132          1           0        7.548971    8.586914   -1.261263
    133          6           0        8.889259    9.260677    0.287068
    134          6           0        6.388383    9.059518    0.489491
    135          1           0        5.582723    8.374558    0.207925
    136          1           0        6.169712   10.024922    0.020447
    137          8           0        8.791683   10.559257    0.029375
    138          6           0        6.420107    9.220627    2.026330
    139          1           0        6.934262    8.359427    2.474573
    140          1           0        5.382031    9.148121    2.370456
    141          6           0        7.008458   10.552088    2.583611
    142          1           0        6.966361   11.315257    1.797547
    143          1           0        6.345383   10.906599    3.380812
    144          6           0        8.453067   10.502896    3.150961
    145          1           0        8.437447   10.708488    4.230478
    146          1           0        8.885148    9.508958    3.021280
    147          7           0        9.363542   11.446666    2.447253
    148          1           0       10.317823   11.318995    2.781487
    149          1           0        9.102648   12.409632    2.658572
    150          1           0        9.247057   11.040654    0.812960
    151          8           0        9.792625    8.745412    0.929899
    152          1           0       -8.474644    2.159408   -1.531335
 ---------------------------------------------------------------------

 SCF Done:  E(RB3LYP) =  -3473.97797858     A.U. after    2 cycles

 Alpha  occ. eigenvalues --  -19.32409 -19.27585 -19.25757 -19.21811 -19.21125
 Alpha  occ. eigenvalues --  -19.19454 -19.19407 -19.19366 -19.17604 -19.16741
 Alpha  occ. eigenvalues --  -19.16404 -19.15872 -19.14279 -19.13907 -14.59443
 Alpha  occ. eigenvalues --  -14.49831 -14.45395 -14.45203 -14.43902 -14.43807
 Alpha  occ. eigenvalues --  -14.41024 -14.40890 -14.39969 -14.38565 -14.38439
 Alpha  occ. eigenvalues --  -14.37991 -10.44265 -10.43608 -10.41379 -10.39100
 Alpha  occ. eigenvalues --  -10.38910 -10.36812 -10.36333 -10.34799 -10.34325
 Alpha  occ. eigenvalues --  -10.34142 -10.33476 -10.33456 -10.33451 -10.32560
 Alpha  occ. eigenvalues --  -10.31457 -10.31043 -10.30984 -10.30618 -10.30561
 Alpha  occ. eigenvalues --  -10.28988 -10.28755 -10.27782 -10.27745 -10.26134
 Alpha  occ. eigenvalues --  -10.25446 -10.25148 -10.24951 -10.24915 -10.23883
 Alpha  occ. eigenvalues --  -10.23748 -10.23722 -10.23492 -10.23222 -10.22829
 Alpha  occ. eigenvalues --  -10.22165 -10.21995 -10.21879 -10.21754 -10.21697
 Alpha  occ. eigenvalues --  -10.21646 -10.21411 -10.21329 -10.21109 -10.20270
 Alpha  occ. eigenvalues --  -10.19872  -1.21944  -1.19892  -1.14188  -1.13721
 Alpha  occ. eigenvalues --   -1.13268  -1.12938  -1.11800  -1.11772  -1.11041
 Alpha  occ. eigenvalues --   -1.09300  -1.08395  -1.07472  -1.06495  -1.06300
 Alpha  occ. eigenvalues --   -1.05636  -1.03126  -1.02021  -1.00390  -1.00052
 Alpha  occ. eigenvalues --   -1.00026  -0.97927  -0.96954  -0.95118  -0.94889
 Alpha  occ. eigenvalues --   -0.94703  -0.93738  -0.93533  -0.90667  -0.89014
 Alpha  occ. eigenvalues --   -0.87800  -0.86133  -0.85383  -0.84437  -0.83649
 Alpha  occ. eigenvalues --   -0.82640  -0.82082  -0.81831  -0.81695  -0.79697
 Alpha  occ. eigenvalues --   -0.78456  -0.78407  -0.77340  -0.75573  -0.75492
 Alpha  occ. eigenvalues --   -0.74643  -0.74626  -0.74147  -0.72939  -0.72674
 Alpha  occ. eigenvalues --   -0.72568  -0.72097  -0.71091  -0.71016  -0.70469
 Alpha  occ. eigenvalues --   -0.69587  -0.69238  -0.68609  -0.67968  -0.67196
 Alpha  occ. eigenvalues --   -0.66744  -0.66264  -0.66143  -0.65893  -0.64569
 Alpha  occ. eigenvalues --   -0.64386  -0.63749  -0.63446  -0.63394  -0.62613
 Alpha  occ. eigenvalues --   -0.62594  -0.62438  -0.62075  -0.61316  -0.61107
 Alpha  occ. eigenvalues --   -0.60841  -0.60569  -0.60525  -0.60100  -0.60036
 Alpha  occ. eigenvalues --   -0.59346  -0.59219  -0.59165  -0.58600  -0.58322
 Alpha  occ. eigenvalues --   -0.57521  -0.56577  -0.56522  -0.55954  -0.55704
 Alpha  occ. eigenvalues --   -0.55304  -0.54731  -0.54307  -0.54246  -0.54013
 Alpha  occ. eigenvalues --   -0.53966  -0.53854  -0.53663  -0.53395  -0.53083
 Alpha  occ. eigenvalues --   -0.52852  -0.52504  -0.52378  -0.52253  -0.51862
 Alpha  occ. eigenvalues --   -0.51446  -0.51174  -0.51035  -0.50809  -0.50678
 Alpha  occ. eigenvalues --   -0.50543  -0.50435  -0.50147  -0.50046  -0.49714
 Alpha  occ. eigenvalues --   -0.49613  -0.48808  -0.48679  -0.48527  -0.48179
 Alpha  occ. eigenvalues --   -0.48079  -0.48013  -0.47777  -0.47511  -0.47429
 Alpha  occ. eigenvalues --   -0.47295  -0.47140  -0.46806  -0.46609  -0.46157
 Alpha  occ. eigenvalues --   -0.46096  -0.45715  -0.45608  -0.45511  -0.45425
 Alpha  occ. eigenvalues --   -0.45214  -0.44985  -0.44799  -0.44548  -0.44401
 Alpha  occ. eigenvalues --   -0.44290  -0.44193  -0.43912  -0.43783  -0.43441
 Alpha  occ. eigenvalues --   -0.43384  -0.43118  -0.42814  -0.42560  -0.42263
 Alpha  occ. eigenvalues --   -0.42091  -0.42040  -0.41775  -0.41639  -0.41445
 Alpha  occ. eigenvalues --   -0.41330  -0.40985  -0.40920  -0.40726  -0.40597
 Alpha  occ. eigenvalues --   -0.40251  -0.40235  -0.40033  -0.39671  -0.39567
 Alpha  occ. eigenvalues --   -0.39154  -0.39067  -0.38843  -0.38670  -0.38525
 Alpha  occ. eigenvalues --   -0.37620  -0.37231  -0.37213  -0.37141  -0.37006
 Alpha  occ. eigenvalues --   -0.36908  -0.36511  -0.36482  -0.36363  -0.36351
 Alpha  occ. eigenvalues --   -0.36239  -0.36115  -0.35719  -0.35323  -0.35227
 Alpha  occ. eigenvalues --   -0.35009  -0.34703  -0.33919  -0.33249  -0.33051
 Alpha  occ. eigenvalues --   -0.32632  -0.32344  -0.32054  -0.31248  -0.30639
 Alpha  occ. eigenvalues --   -0.30321  -0.29849  -0.29486  -0.29013  -0.28511
 Alpha  occ. eigenvalues --   -0.28060  -0.27340  -0.26702
 Alpha virt. eigenvalues --   -0.14100  -0.10618  -0.09823  -0.08499  -0.06809
 Alpha virt. eigenvalues --   -0.06379  -0.05505  -0.05023  -0.04623  -0.04089
 Alpha virt. eigenvalues --   -0.03185  -0.02819  -0.02138  -0.01674  -0.01370

 Mulliken charges:
               1
     1  N   -0.777597
     2  H    0.424493
     3  H    0.406381
     4  H    0.448148
     5  C   -0.116892
     6  H    0.229674
     7  C    0.653386
     8  C   -0.496293
     9  H    0.199948
    10  H    0.229162
    11  H    0.186780
    12  O   -0.518215
    13  N   -0.577322
    14  H    0.354408
    15  C   -0.065253
    16  H    0.223870
    17  C    0.605741
    18  C   -0.406807
    19  H    0.183757
    20  H    0.198513
    21  O   -0.568347
    22  C    0.624382
    23  N   -0.746051
    24  H    0.364910
    25  H    0.351703
    26  O   -0.501510
    27  N   -0.600775
    28  H    0.398635
    29  C   -0.064500
    30  H    0.181736
    31  C    0.623917
    32  C   -0.257994
    33  H    0.179451
    34  H    0.182784
    35  O   -0.527516
    36  C   -0.401730
    37  H    0.178255
    38  H    0.216231
    39  C    0.608137
    40  O   -0.411004
    41  O   -0.638346
    42  N   -0.622000
    43  H    0.353631
    44  C   -0.043343
    45  H    0.175220
    46  C    0.629068
    47  C   -0.263881
    48  H    0.152927
    49  H    0.164474
    50  O   -0.565881
    51  C   -0.102835
    52  H    0.149414
    53  C   -0.450999
    54  H    0.157226
    55  H    0.121377
    56  H    0.159585
    57  C   -0.449482
    58  H    0.142235
    59  H    0.155366
    60  H    0.151832
    61  N   -0.600108
    62  H    0.347609
    63  C   -0.083213
    64  H    0.221008
    65  C    0.653695
    66  C   -0.297425
    67  H    0.138977
    68  H    0.176356
    69  O   -0.559328
    70  C   -0.069754
    71  H    0.108154
    72  C   -0.443344
    73  H    0.150229
    74  H    0.141232
    75  H    0.144984
    76  C   -0.457459
    77  H    0.165598
    78  H    0.145358
    79  H    0.141739
    80  N   -0.634409
    81  H    0.385348
    82  C   -0.070597
    83  H    0.177409
    84  C    0.638807
    85  C   -0.080100
    86  H    0.132306
    87  O   -0.533812
    88  C   -0.271494
    89  H    0.133688
    90  H    0.170079
    91  C   -0.494585
    92  H    0.195276
    93  H    0.141849
    94  H    0.137659
    95  C   -0.460351
    96  H    0.154535
    97  H    0.140564
    98  H    0.150513
    99  N   -0.609116
   100  H    0.351476
   101  C   -0.057517
   102  H    0.193394
   103  C    0.628656
   104  C   -0.383861
   105  H    0.189796
   106  H    0.180092
   107  O   -0.536749
   108  C    0.574821
   109  N   -0.735555
   110  H    0.339828
   111  H    0.369402
   112  O   -0.530027
   113  N   -0.620343
   114  H    0.379750
   115  C   -0.050289
   116  H    0.165400
   117  C    0.627043
   118  C   -0.075654
   119  H    0.145823
   120  O   -0.547640
   121  C   -0.461931
   122  H    0.145365
   123  H    0.148324
   124  H    0.157101
   125  C   -0.458152
   126  H    0.156631
   127  H    0.140086
   128  H    0.152233
   129  N   -0.615546
   130  H    0.351308
   131  C   -0.030156
   132  H    0.183600
   133  C    0.598546
   134  C   -0.267343
   135  H    0.175719
   136  H    0.152796
   137  O   -0.608623
   138  C   -0.285510
   139  H    0.147313
   140  H    0.142640
   141  C   -0.280492
   142  H    0.156548
   143  H    0.141063
   144  C   -0.160693
   145  H    0.141019
   146  H    0.186053
   147  N   -0.770157
   148  H    0.333881
   149  H    0.322400
   150  H    0.453606
   151  O   -0.505164
   152  H    0.429630
 Sum of Mulliken charges =   1.00000

 Dipole moment (field-independent basis, Debye):
    X=            -33.2318    Y=             10.4611    Z=            -25.4128  Tot=             43.1231
 Quadrupole moment (field-independent basis, Debye-Ang):
   XX=            -49.6652   YY=           -331.2153   ZZ=           -190.8275
   XY=            -64.8660   XZ=            226.0126   YZ=            -10.9800

 Normal termination of Gaussian 16 at Mon Jul  4 20:52:19 2022.
