 Gaussian 16, Revision C.01,
 Gaussian 16:  ES64L-G16RevC.01  3-Jul-2019

 ----------------------------------------------------------------------
 # B3LYP/6-31G* empiricaldispersion=gd3 guess=read geom=check nosymm in
 tegral(ultrafinegrid)
 ----------------------------------------------------------------------

 ------------------------------------------------------
 Candidate Structure: Conf:474 Charge calc in gas phase
 ------------------------------------------------------
 Structure from the checkpoint file:  "conf-474.chk"
 Charge =  1 Multiplicity = 1

                          Input orientation:
 ---------------------------------------------------------------------
 Center     Atomic      Atomic             Coordinates (Angstroms)
 Number     Number       Type             X           Y           Z
 ---------------------------------------------------------------------
      1          7           0       -4.765099   -8.080558   -4.723414
      2          1           0       -3.990116   -8.665713   -5.045425
      3          1           0       -5.622626   -8.639918   -4.733280
      4          1           0       -4.563917   -7.717929   -3.731716
      5          6           0       -4.900307   -6.773300   -5.483241
      6          1           0       -4.137634   -6.761532   -6.265974
      7          6           0       -4.569225   -5.718573   -4.386292
      8          6           0       -6.300427   -6.615847   -6.072664
      9          1           0       -6.377805   -5.655520   -6.589354
     10          1           0       -7.061301   -6.630698   -5.284559
     11          1           0       -6.514602   -7.403565   -6.801975
     12          8           0       -4.368247   -6.138046   -3.232918
     13          7           0       -4.542537   -4.455600   -4.770203
     14          1           0       -4.713954   -4.151317   -5.733077
     15          6           0       -4.327558   -3.315596   -3.879187
     16          1           0       -4.935852   -3.431287   -2.978193
     17          6           0       -4.786141   -2.098956   -4.716538
     18          6           0       -2.842246   -3.198808   -3.472333
     19          1           0       -2.246958   -2.850141   -4.321868
     20          1           0       -2.488656   -4.196195   -3.185608
     21          8           0       -4.906472   -2.221062   -5.937962
     22          6           0       -2.632629   -2.259289   -2.280070
     23          7           0       -1.356703   -2.081772   -1.904611
     24          1           0       -1.100025   -1.437687   -1.145718
     25          1           0       -0.598802   -2.456364   -2.457135
     26          8           0       -3.593633   -1.740124   -1.695157
     27          7           0       -5.014250   -0.967177   -4.018521
     28          1           0       -4.712574   -1.014827   -3.040126
     29          6           0       -4.865068    0.329474   -4.671434
     30          1           0       -5.096457    0.178432   -5.731113
     31          6           0       -3.357296    0.694551   -4.561971
     32          6           0       -5.813120    1.373656   -4.061966
     33          1           0       -5.508996    1.602061   -3.037954
     34          1           0       -5.737055    2.310420   -4.627335
     35          8           0       -2.519970   -0.199073   -4.393295
     36          6           0       -7.275334    0.926952   -4.053576
     37          1           0       -7.358165   -0.090536   -3.650913
     38          1           0       -7.705884    0.892975   -5.060074
     39          6           0       -8.123745    1.821293   -3.172636
     40          8           0       -7.701933    2.569745   -2.316845
     41          8           0       -9.439648    1.662774   -3.431788
     42          7           0       -3.007178    1.996704   -4.636089
     43          1           0       -3.722044    2.711453   -4.642924
     44          6           0       -1.624897    2.435980   -4.385880
     45          1           0       -0.995720    1.591694   -4.677827
     46          6           0       -1.437348    2.675492   -2.865723
     47          6           0       -1.283730    3.676905   -5.212473
     48          1           0       -1.838448    4.530043   -4.803257
     49          1           0       -1.638906    3.507922   -6.238053
     50          8           0       -1.124130    3.770222   -2.405789
     51          6           0        0.218321    4.028504   -5.249772
     52          1           0        0.560219    4.133718   -4.213828
     53          6           0        1.054709    2.939031   -5.937678
     54          1           0        0.721816    2.783662   -6.972397
     55          1           0        1.000698    1.975327   -5.418431
     56          1           0        2.111265    3.228078   -5.969001
     57          6           0        0.412213    5.379354   -5.952563
     58          1           0        0.063592    5.334899   -6.992870
     59          1           0       -0.142944    6.175514   -5.443714
     60          1           0        1.470025    5.664642   -5.968669
     61          7           0       -1.685051    1.584736   -2.090740
     62          1           0       -1.836492    0.684959   -2.534770
     63          6           0       -1.640097    1.650852   -0.628209
     64          1           0       -1.633240    2.714271   -0.383356
     65          6           0       -0.295866    1.021534   -0.243399
     66          6           0       -2.842900    0.965378    0.030680
     67          1           0       -2.724622   -0.119571   -0.025147
     68          1           0       -2.835226    1.233115    1.096157
     69          8           0       -0.154792   -0.206713   -0.143349
     70          6           0       -4.192015    1.348912   -0.599774
     71          1           0       -4.149828    1.007324   -1.642887
     72          6           0       -5.339752    0.592195    0.080095
     73          1           0       -5.422878    0.875308    1.137024
     74          1           0       -5.178889   -0.489782    0.026240
     75          1           0       -6.295680    0.832025   -0.401336
     76          6           0       -4.452381    2.862229   -0.603910
     77          1           0       -4.460856    3.253900    0.421547
     78          1           0       -3.689330    3.414955   -1.163935
     79          1           0       -5.427860    3.083680   -1.051235
     80          7           0        0.726786    1.893813   -0.157191
     81          1           0        0.540523    2.887047   -0.235307
     82          6           0        2.124516    1.502787   -0.059089
     83          1           0        2.136532    0.421511    0.096869
     84          6           0        2.722945    2.246864    1.138253
     85          6           0        2.932815    1.876912   -1.342378
     86          1           0        3.057564    2.968530   -1.313965
     87          8           0        2.439895    3.435321    1.323760
     88          6           0        2.170936    1.556482   -2.646020
     89          1           0        1.238620    2.130444   -2.655271
     90          1           0        2.771574    1.945441   -3.478503
     91          6           0        4.327360    1.230975   -1.309996
     92          1           0        4.259613    0.137012   -1.278613
     93          1           0        4.916192    1.540632   -0.441864
     94          1           0        4.891402    1.503240   -2.208744
     95          6           0        1.859438    0.075227   -2.899358
     96          1           0        1.264325   -0.035700   -3.814536
     97          1           0        1.287986   -0.362444   -2.074939
     98          1           0        2.774311   -0.513143   -3.029335
     99          7           0        3.563107    1.542582    1.926377
    100          1           0        3.873985    0.624672    1.620641
    101          6           0        4.482777    2.175842    2.863398
    102          1           0        4.454329    3.254865    2.683427
    103          6           0        5.888511    1.633618    2.533717
    104          6           0        4.139927    1.865250    4.331958
    105          1           0        4.915067    2.291777    4.981685
    106          1           0        4.165501    0.782907    4.491895
    107          8           0        6.026177    0.584716    1.901869
    108          6           0        2.796009    2.354468    4.890541
    109          7           0        2.189153    3.397559    4.254636
    110          1           0        2.360316    3.629871    3.278901
    111          1           0        1.287963    3.659865    4.632554
    112          8           0        2.364345    1.859254    5.922290
    113          7           0        6.909917    2.382480    2.998255
    114          1           0        6.731201    3.147489    3.643815
    115          6           0        8.289547    1.920423    3.021612
    116          1           0        8.278566    0.826611    2.958463
    117          6           0        8.868340    2.369020    4.376081
    118          6           0        9.132650    2.478307    1.839860
    119          1           0       10.144541    2.066270    1.964315
    120          8           0        8.306607    3.234688    5.051297
    121          6           0        8.578728    1.989332    0.495335
    122          1           0        7.583099    2.407795    0.311513
    123          1           0        9.234636    2.308356   -0.322465
    124          1           0        8.486501    0.899263    0.466707
    125          6           0        9.226029    4.009529    1.878775
    126          1           0        8.230520    4.457691    1.779126
    127          1           0        9.841548    4.374479    1.049798
    128          1           0        9.665569    4.373669    2.813243
    129          7           0       10.027906    1.781870    4.734243
    130          1           0       10.497926    1.120871    4.124957
    131          6           0       10.791015    2.194021    5.902752
    132          1           0       10.841625    3.288527    5.932088
    133          6           0       12.187987    1.610882    5.758620
    134          6           0       10.155199    1.712121    7.233273
    135          1           0        9.113476    2.045280    7.200124
    136          1           0       10.639475    2.257291    8.050267
    137          8           0       12.982898    1.953411    6.760423
    138          6           0       10.208992    0.192830    7.514970
    139          1           0       10.037763   -0.360903    6.581515
    140          1           0        9.346847   -0.038659    8.150215
    141          6           0       11.483111   -0.344566    8.235487
    142          1           0       11.982729    0.489346    8.742417
    143          1           0       11.158578   -1.025163    9.030232
    144          6           0       12.527298   -1.093526    7.363454
    145          1           0       12.600928   -2.141214    7.686325
    146          1           0       12.221545   -1.101235    6.315467
    147          7           0       13.862700   -0.436901    7.401231
    148          1           0       14.497080   -0.904564    6.754981
    149          1           0       14.271230   -0.524935    8.331610
    150          1           0       13.592386    1.142088    6.940030
    151          8           0       12.477382    0.817444    4.873175
    152          1           0       -9.922190    2.239521   -2.808840
 ---------------------------------------------------------------------

 SCF Done:  E(RB3LYP) =  -3473.98939743     A.U. after    2 cycles

 Alpha  occ. eigenvalues --  -19.27713 -19.26312 -19.22164 -19.20850 -19.20612
 Alpha  occ. eigenvalues --  -19.20215 -19.20102 -19.18641 -19.18368 -19.17945
 Alpha  occ. eigenvalues --  -19.17394 -19.17190 -19.16351 -19.13335 -14.60676
 Alpha  occ. eigenvalues --  -14.49964 -14.45067 -14.44428 -14.42630 -14.42609
 Alpha  occ. eigenvalues --  -14.42361 -14.41940 -14.40883 -14.40311 -14.39272
 Alpha  occ. eigenvalues --  -14.37420 -10.44268 -10.42041 -10.39063 -10.38881
 Alpha  occ. eigenvalues --  -10.37808 -10.37710 -10.35391 -10.35314 -10.35136
 Alpha  occ. eigenvalues --  -10.34872 -10.34691 -10.34546 -10.34169 -10.33296
 Alpha  occ. eigenvalues --  -10.32352 -10.31626 -10.30300 -10.29550 -10.29103
 Alpha  occ. eigenvalues --  -10.29058 -10.29005 -10.27764 -10.27751 -10.27680
 Alpha  occ. eigenvalues --  -10.27364 -10.25936 -10.25195 -10.24580 -10.24071
 Alpha  occ. eigenvalues --  -10.24013 -10.23958 -10.23819 -10.23670 -10.23239
 Alpha  occ. eigenvalues --  -10.22968 -10.22712 -10.22683 -10.22660 -10.22527
 Alpha  occ. eigenvalues --  -10.22361 -10.21994 -10.21534 -10.21431 -10.21251
 Alpha  occ. eigenvalues --  -10.21163  -1.20116  -1.17246  -1.14634  -1.14038
 Alpha  occ. eigenvalues --   -1.12714  -1.12504  -1.11529  -1.10612  -1.10044
 Alpha  occ. eigenvalues --   -1.09638  -1.08975  -1.08287  -1.08043  -1.06679
 Alpha  occ. eigenvalues --   -1.05333  -1.04109  -1.01935  -1.01128  -0.99366
 Alpha  occ. eigenvalues --   -0.98534  -0.98523  -0.98109  -0.97681  -0.96923
 Alpha  occ. eigenvalues --   -0.94555  -0.94184  -0.92358  -0.89661  -0.87851
 Alpha  occ. eigenvalues --   -0.87110  -0.86749  -0.85883  -0.85465  -0.83654
 Alpha  occ. eigenvalues --   -0.82910  -0.82745  -0.82413  -0.81257  -0.79935
 Alpha  occ. eigenvalues --   -0.79540  -0.78952  -0.78524  -0.76026  -0.75868
 Alpha  occ. eigenvalues --   -0.74964  -0.73582  -0.73462  -0.73410  -0.73134
 Alpha  occ. eigenvalues --   -0.72581  -0.72272  -0.72098  -0.71890  -0.71430
 Alpha  occ. eigenvalues --   -0.69870  -0.69370  -0.68617  -0.67484  -0.67282
 Alpha  occ. eigenvalues --   -0.67251  -0.66359  -0.65736  -0.65484  -0.65235
 Alpha  occ. eigenvalues --   -0.64922  -0.64325  -0.63969  -0.63788  -0.63519
 Alpha  occ. eigenvalues --   -0.62450  -0.62013  -0.61979  -0.61610  -0.61558
 Alpha  occ. eigenvalues --   -0.61146  -0.60813  -0.60511  -0.60090  -0.59983
 Alpha  occ. eigenvalues --   -0.59393  -0.58368  -0.57863  -0.57433  -0.56960
 Alpha  occ. eigenvalues --   -0.56470  -0.56371  -0.55637  -0.55338  -0.55141
 Alpha  occ. eigenvalues --   -0.55130  -0.54945  -0.54841  -0.54629  -0.54379
 Alpha  occ. eigenvalues --   -0.54182  -0.53980  -0.53801  -0.53469  -0.53061
 Alpha  occ. eigenvalues --   -0.53013  -0.52657  -0.52549  -0.52234  -0.51963
 Alpha  occ. eigenvalues --   -0.51428  -0.51373  -0.51070  -0.50983  -0.50812
 Alpha  occ. eigenvalues --   -0.50779  -0.50432  -0.50371  -0.50058  -0.49624
 Alpha  occ. eigenvalues --   -0.49414  -0.49387  -0.49249  -0.48953  -0.48689
 Alpha  occ. eigenvalues --   -0.48510  -0.47912  -0.47859  -0.47757  -0.47494
 Alpha  occ. eigenvalues --   -0.47000  -0.46833  -0.46571  -0.46458  -0.46281
 Alpha  occ. eigenvalues --   -0.46172  -0.45979  -0.45654  -0.45578  -0.45388
 Alpha  occ. eigenvalues --   -0.45189  -0.45178  -0.45079  -0.44695  -0.44611
 Alpha  occ. eigenvalues --   -0.44264  -0.44242  -0.43955  -0.43903  -0.43776
 Alpha  occ. eigenvalues --   -0.43689  -0.43596  -0.43201  -0.43156  -0.42999
 Alpha  occ. eigenvalues --   -0.42421  -0.42321  -0.42284  -0.42158  -0.42112
 Alpha  occ. eigenvalues --   -0.42001  -0.41855  -0.41573  -0.41538  -0.40965
 Alpha  occ. eigenvalues --   -0.40865  -0.40617  -0.39993  -0.39900  -0.39366
 Alpha  occ. eigenvalues --   -0.38614  -0.38570  -0.38437  -0.38220  -0.38104
 Alpha  occ. eigenvalues --   -0.38027  -0.37858  -0.37663  -0.37563  -0.37452
 Alpha  occ. eigenvalues --   -0.37273  -0.37236  -0.37180  -0.37163  -0.37059
 Alpha  occ. eigenvalues --   -0.36578  -0.36438  -0.35733  -0.35419  -0.34800
 Alpha  occ. eigenvalues --   -0.34381  -0.34245  -0.34155  -0.33905  -0.33611
 Alpha  occ. eigenvalues --   -0.33150  -0.32230  -0.31557  -0.31494  -0.31326
 Alpha  occ. eigenvalues --   -0.31139  -0.30911  -0.30755  -0.30539  -0.29861
 Alpha  occ. eigenvalues --   -0.29461  -0.28980  -0.27010
 Alpha virt. eigenvalues --   -0.12971  -0.11835  -0.08503  -0.07228  -0.06889
 Alpha virt. eigenvalues --   -0.05888  -0.05661  -0.05384  -0.05189  -0.04103
 Alpha virt. eigenvalues --   -0.03223  -0.03072  -0.02869  -0.02064  -0.01919

 Mulliken charges:
               1
     1  N   -0.759689
     2  H    0.417648
     3  H    0.415606
     4  H    0.438358
     5  C   -0.104718
     6  H    0.226672
     7  C    0.654763
     8  C   -0.483355
     9  H    0.221287
    10  H    0.196847
    11  H    0.196986
    12  O   -0.542140
    13  N   -0.617408
    14  H    0.375841
    15  C   -0.060495
    16  H    0.213658
    17  C    0.617073
    18  C   -0.381270
    19  H    0.202947
    20  H    0.188722
    21  O   -0.540598
    22  C    0.657011
    23  N   -0.791864
    24  H    0.424452
    25  H    0.342609
    26  O   -0.552554
    27  N   -0.611226
    28  H    0.400429
    29  C   -0.086803
    30  H    0.208343
    31  C    0.634515
    32  C   -0.323968
    33  H    0.212235
    34  H    0.154661
    35  O   -0.555348
    36  C   -0.357075
    37  H    0.196900
    38  H    0.183318
    39  C    0.588666
    40  O   -0.452381
    41  O   -0.563040
    42  N   -0.604446
    43  H    0.348746
    44  C   -0.083484
    45  H    0.193720
    46  C    0.646438
    47  C   -0.265436
    48  H    0.153769
    49  H    0.137328
    50  O   -0.537416
    51  C   -0.085602
    52  H    0.161851
    53  C   -0.460170
    54  H    0.140960
    55  H    0.145253
    56  H    0.152467
    57  C   -0.447303
    58  H    0.139198
    59  H    0.153096
    60  H    0.149289
    61  N   -0.631292
    62  H    0.372125
    63  C   -0.077623
    64  H    0.189053
    65  C    0.650629
    66  C   -0.287605
    67  H    0.171822
    68  H    0.146978
    69  O   -0.566030
    70  C   -0.061095
    71  H    0.098142
    72  C   -0.464110
    73  H    0.145343
    74  H    0.157971
    75  H    0.142747
    76  C   -0.488621
    77  H    0.145369
    78  H    0.151251
    79  H    0.176491
    80  N   -0.587050
    81  H    0.362642
    82  C   -0.060786
    83  H    0.179609
    84  C    0.629415
    85  C   -0.092378
    86  H    0.151307
    87  O   -0.555418
    88  C   -0.274155
    89  H    0.150241
    90  H    0.145151
    91  C   -0.476990
    92  H    0.149292
    93  H    0.171726
    94  H    0.154026
    95  C   -0.488366
    96  H    0.140391
    97  H    0.163729
    98  H    0.150123
    99  N   -0.576255
   100  H    0.356199
   101  C   -0.106570
   102  H    0.187008
   103  C    0.628150
   104  C   -0.357047
   105  H    0.189212
   106  H    0.181260
   107  O   -0.545058
   108  C    0.581427
   109  N   -0.778701
   110  H    0.381838
   111  H    0.333683
   112  O   -0.507103
   113  N   -0.600972
   114  H    0.359331
   115  C   -0.065445
   116  H    0.175635
   117  C    0.630642
   118  C   -0.075553
   119  H    0.134822
   120  O   -0.550484
   121  C   -0.444069
   122  H    0.150264
   123  H    0.144745
   124  H    0.157839
   125  C   -0.461273
   126  H    0.149252
   127  H    0.152255
   128  H    0.162408
   129  N   -0.620406
   130  H    0.354221
   131  C   -0.031407
   132  H    0.187832
   133  C    0.601961
   134  C   -0.269829
   135  H    0.177539
   136  H    0.160120
   137  O   -0.605814
   138  C   -0.287271
   139  H    0.141989
   140  H    0.149855
   141  C   -0.282656
   142  H    0.159142
   143  H    0.146131
   144  C   -0.160222
   145  H    0.143426
   146  H    0.184041
   147  N   -0.772330
   148  H    0.334857
   149  H    0.326178
   150  H    0.456275
   151  O   -0.508824
   152  H    0.419827
 Sum of Mulliken charges =   1.00000

 Dipole moment (field-independent basis, Debye):
    X=            -11.8379    Y=            -28.2117    Z=            -22.6914  Tot=             38.0911
 Quadrupole moment (field-independent basis, Debye-Ang):
   XX=           -155.4340   YY=           -194.4379   ZZ=           -278.4486
   XY=            103.3284   XZ=            188.1884   YZ=            118.1530

 Normal termination of Gaussian 16 at Mon Jul  4 20:52:28 2022.
