 Gaussian 16, Revision C.01,
 Gaussian 16:  ES64L-G16RevC.01  3-Jul-2019

 ----------------------------------------------------------------------
 # B3LYP/6-31G* empiricaldispersion=gd3 guess=read geom=check nosymm in
 tegral(ultrafinegrid)
 ----------------------------------------------------------------------

 ------------------------------------------------------
 Candidate Structure: Conf:112 Charge calc in gas phase
 ------------------------------------------------------
 Structure from the checkpoint file:  "conf-112.chk"
 Charge =  1 Multiplicity = 1

                          Input orientation:
 ---------------------------------------------------------------------
 Center     Atomic      Atomic             Coordinates (Angstroms)
 Number     Number       Type             X           Y           Z
 ---------------------------------------------------------------------
      1          7           0      -11.682640   -2.504293   -5.964229
      2          1           0      -11.077329   -2.861710   -6.748003
      3          1           0      -12.626364   -2.274696   -6.287343
      4          1           0      -11.715914   -3.256793   -5.262335
      5          6           0      -10.967529   -1.327547   -5.322372
      6          1           0      -10.861953   -0.572764   -6.105221
      7          6           0       -9.616804   -1.968454   -4.946311
      8          6           0      -11.748458   -0.813782   -4.120362
      9          1           0      -11.224795    0.044839   -3.690166
     10          1           0      -11.818578   -1.588643   -3.350202
     11          1           0      -12.754571   -0.485851   -4.402637
     12          8           0       -9.640576   -3.076005   -4.409897
     13          7           0       -8.507025   -1.315763   -5.324228
     14          1           0       -8.547852   -0.420827   -5.803529
     15          6           0       -7.249915   -2.022620   -5.511494
     16          1           0       -7.142173   -2.757614   -4.711156
     17          6           0       -6.137253   -0.958081   -5.499643
     18          6           0       -7.212122   -2.720178   -6.909361
     19          1           0       -6.283965   -3.296035   -6.985022
     20          1           0       -7.185938   -1.933619   -7.670166
     21          8           0       -6.376449    0.152512   -5.980699
     22          6           0       -8.435345   -3.576372   -7.210310
     23          7           0       -8.274056   -4.910233   -7.168979
     24          1           0       -9.059481   -5.511647   -7.381050
     25          1           0       -7.386203   -5.345146   -6.962961
     26          8           0       -9.526713   -3.048879   -7.488094
     27          7           0       -4.955256   -1.353141   -5.014376
     28          1           0       -4.803238   -2.273431   -4.604166
     29          6           0       -3.755445   -0.528517   -5.041723
     30          1           0       -3.637924   -0.116661   -6.049091
     31          6           0       -2.589224   -1.485198   -4.736889
     32          6           0       -3.782281    0.635162   -4.000717
     33          1           0       -4.585733    0.429331   -3.287422
     34          1           0       -2.847386    0.639974   -3.430454
     35          8           0       -2.792219   -2.601511   -4.255649
     36          6           0       -4.012881    2.009863   -4.631880
     37          1           0       -4.196888    2.769104   -3.862879
     38          1           0       -4.901078    1.995644   -5.275130
     39          6           0       -2.842825    2.478263   -5.465485
     40          8           0       -1.857196    1.818257   -5.753335
     41          8           0       -3.004427    3.741945   -5.890116
     42          7           0       -1.367719   -0.977100   -5.000077
     43          1           0       -1.332616    0.011012   -5.249606
     44          6           0       -0.186398   -1.550237   -4.372637
     45          1           0       -0.114993   -2.603129   -4.660945
     46          6           0       -0.307434   -1.412636   -2.845351
     47          6           0        1.051072   -0.752557   -4.838149
     48          1           0        0.884235    0.293233   -4.546659
     49          1           0        1.077550   -0.780141   -5.935598
     50          8           0       -0.750939   -0.373694   -2.346868
     51          6           0        2.408998   -1.220035   -4.280618
     52          1           0        2.345381   -1.251162   -3.186635
     53          6           0        2.792382   -2.621160   -4.777145
     54          1           0        2.871645   -2.638945   -5.871402
     55          1           0        2.059152   -3.385259   -4.490021
     56          1           0        3.759588   -2.927870   -4.365084
     57          6           0        3.496206   -0.197327   -4.642002
     58          1           0        3.602465   -0.099372   -5.729658
     59          1           0        3.258935    0.794284   -4.237462
     60          1           0        4.468575   -0.501791   -4.238947
     61          7           0        0.179220   -2.437389   -2.103814
     62          1           0        0.615987   -3.217612   -2.578155
     63          6           0        0.454943   -2.280956   -0.669270
     64          1           0       -0.340256   -1.640743   -0.281147
     65          6           0        1.800833   -1.543878   -0.539112
     66          6           0        0.445822   -3.626976    0.051813
     67          1           0       -0.550374   -4.067701   -0.087307
     68          1           0        1.171088   -4.296379   -0.428936
     69          8           0        2.860387   -2.134474   -0.305539
     70          6           0        0.773400   -3.547804    1.559423
     71          1           0        1.841482   -3.315961    1.645062
     72          6           0       -0.001092   -2.434832    2.282130
     73          1           0       -1.081990   -2.524909    2.109291
     74          1           0        0.321794   -1.437503    1.961773
     75          1           0        0.167089   -2.491978    3.363180
     76          6           0        0.521261   -4.914020    2.211016
     77          1           0       -0.545509   -5.171206    2.181185
     78          1           0        1.071772   -5.711962    1.697836
     79          1           0        0.832489   -4.911538    3.261774
     80          7           0        1.736707   -0.217970   -0.781755
     81          1           0        0.842672    0.193146   -1.027232
     82          6           0        2.938521    0.593779   -0.763268
     83          1           0        3.649707    0.161371   -1.479681
     84          6           0        3.557222    0.508937    0.644124
     85          6           0        2.630161    2.050121   -1.192194
     86          1           0        2.075963    1.960983   -2.140884
     87          8           0        2.876536    0.473718    1.659506
     88          6           0        3.937801    2.811339   -1.492541
     89          1           0        4.529349    2.923353   -0.575308
     90          1           0        4.549986    2.203236   -2.174211
     91          6           0        1.739058    2.782587   -0.176718
     92          1           0        2.284268    2.978268    0.751985
     93          1           0        0.853045    2.197233    0.090311
     94          1           0        1.397657    3.738369   -0.583850
     95          6           0        3.721885    4.189080   -2.126604
     96          1           0        4.681980    4.638997   -2.398608
     97          1           0        3.218771    4.879073   -1.441504
     98          1           0        3.114123    4.115718   -3.037676
     99          7           0        4.923103    0.431486    0.643575
    100          1           0        5.428510    0.723535   -0.190296
    101          6           0        5.698368    0.623036    1.851305
    102          1           0        5.005965    0.839712    2.669513
    103          6           0        6.669897    1.799681    1.601063
    104          6           0        6.555818   -0.623211    2.193424
    105          1           0        7.248959   -0.360763    2.996651
    106          1           0        7.157004   -0.876166    1.310776
    107          8           0        6.982261    2.097655    0.446303
    108          6           0        5.790336   -1.859477    2.641864
    109          7           0        4.823613   -2.326544    1.846819
    110          1           0        4.489382   -1.859624    1.009011
    111          1           0        4.294147   -3.127559    2.164571
    112          8           0        6.080217   -2.448548    3.706637
    113          7           0        7.146391    2.374087    2.714928
    114          1           0        6.903928    2.002316    3.631840
    115          6           0        8.365140    3.180017    2.780831
    116          1           0        8.912319    3.041920    1.842838
    117          6           0        9.149615    2.581131    3.973667
    118          6           0        8.058100    4.687460    2.971199
    119          1           0        7.541580    4.787359    3.937124
    120          8           0        8.491584    2.078230    4.915416
    121          6           0        9.348955    5.519236    3.011284
    122          1           0        9.925313    5.394328    2.086016
    123          1           0        9.107877    6.583072    3.112959
    124          1           0       10.002385    5.239092    3.841119
    125          6           0        7.123691    5.187028    1.859651
    126          1           0        7.588365    5.058514    0.875077
    127          1           0        6.904118    6.251788    1.997838
    128          1           0        6.174148    4.642221    1.853415
    129          7           0       10.464541    2.644581    3.876391
    130          1           0       10.970571    3.092029    3.078490
    131          6           0       11.512415    2.284487    4.829916
    132          1           0       11.453101    2.945116    5.705978
    133          6           0       12.873513    2.641663    4.063961
    134          6           0       11.496788    0.824447    5.294368
    135          1           0       12.540939    0.570971    5.501118
    136          1           0       11.187573    0.203593    4.440757
    137          8           0       13.907497    2.260530    4.630544
    138          6           0       10.629462    0.541260    6.542267
    139          1           0        9.867927    1.317757    6.653491
    140          1           0       11.258200    0.570969    7.439729
    141          6           0        9.918288   -0.822564    6.500634
    142          1           0       10.643946   -1.617430    6.268458
    143          1           0        9.488420   -1.055561    7.486361
    144          6           0        8.801944   -0.832520    5.462603
    145          1           0        8.032431   -0.091820    5.679338
    146          1           0        9.177135   -0.627705    4.458800
    147          7           0        8.122148   -2.186135    5.397270
    148          1           0        7.325890   -2.215709    4.676546
    149          1           0        7.726423   -2.433135    6.309213
    150          1           0        8.797861   -2.918826    5.160522
    151          8           0       12.696515    3.273696    2.983351
    152          1           0       -2.221853    3.973287   -6.426578
 ---------------------------------------------------------------------

 SCF Done:  E(RB3LYP) =  -3473.93672532     A.U. after    3 cycles

 Alpha  occ. eigenvalues --  -19.28220 -19.25965 -19.25949 -19.23336 -19.22837
 Alpha  occ. eigenvalues --  -19.20801 -19.20400 -19.19907 -19.19006 -19.17577
 Alpha  occ. eigenvalues --  -19.16569 -19.13267 -19.04327 -19.03175 -14.59568
 Alpha  occ. eigenvalues --  -14.51734 -14.49793 -14.49740 -14.46692 -14.44552
 Alpha  occ. eigenvalues --  -14.43389 -14.42546 -14.42409 -14.41821 -14.39877
 Alpha  occ. eigenvalues --  -14.35098 -10.43615 -10.43415 -10.41188 -10.40748
 Alpha  occ. eigenvalues --  -10.40142 -10.37366 -10.37354 -10.36893 -10.36727
 Alpha  occ. eigenvalues --  -10.35537 -10.34628 -10.33579 -10.33273 -10.33086
 Alpha  occ. eigenvalues --  -10.32734 -10.31244 -10.30439 -10.30311 -10.29866
 Alpha  occ. eigenvalues --  -10.29863 -10.29456 -10.28248 -10.27813 -10.27251
 Alpha  occ. eigenvalues --  -10.26409 -10.26139 -10.25963 -10.25407 -10.25208
 Alpha  occ. eigenvalues --  -10.24818 -10.24745 -10.24408 -10.23915 -10.23589
 Alpha  occ. eigenvalues --  -10.22978 -10.22853 -10.22751 -10.22361 -10.22221
 Alpha  occ. eigenvalues --  -10.21604 -10.20306 -10.19989 -10.19416 -10.18541
 Alpha  occ. eigenvalues --  -10.18264  -1.19455  -1.18944  -1.17080  -1.14901
 Alpha  occ. eigenvalues --   -1.13708  -1.12723  -1.11669  -1.11425  -1.10727
 Alpha  occ. eigenvalues --   -1.10376  -1.09470  -1.08211  -1.06515  -1.06423
 Alpha  occ. eigenvalues --   -1.04525  -1.04360  -1.03205  -1.00833  -1.00714
 Alpha  occ. eigenvalues --   -0.99257  -0.98889  -0.97456  -0.97392  -0.96545
 Alpha  occ. eigenvalues --   -0.93394  -0.92013  -0.90898  -0.89321  -0.88636
 Alpha  occ. eigenvalues --   -0.88361  -0.87667  -0.87106  -0.85176  -0.84840
 Alpha  occ. eigenvalues --   -0.84186  -0.83001  -0.82333  -0.82011  -0.80722
 Alpha  occ. eigenvalues --   -0.79264  -0.78965  -0.77620  -0.76734  -0.75315
 Alpha  occ. eigenvalues --   -0.75167  -0.74824  -0.74352  -0.73918  -0.73538
 Alpha  occ. eigenvalues --   -0.73465  -0.72967  -0.72231  -0.71643  -0.71458
 Alpha  occ. eigenvalues --   -0.70968  -0.69901  -0.69858  -0.68791  -0.68174
 Alpha  occ. eigenvalues --   -0.67941  -0.67440  -0.67158  -0.66642  -0.66358
 Alpha  occ. eigenvalues --   -0.66042  -0.65901  -0.65823  -0.64420  -0.63890
 Alpha  occ. eigenvalues --   -0.63444  -0.63131  -0.62929  -0.62581  -0.62547
 Alpha  occ. eigenvalues --   -0.62012  -0.61588  -0.60997  -0.60560  -0.60158
 Alpha  occ. eigenvalues --   -0.59779  -0.59696  -0.59328  -0.58684  -0.58462
 Alpha  occ. eigenvalues --   -0.57839  -0.57460  -0.57005  -0.56679  -0.56523
 Alpha  occ. eigenvalues --   -0.56246  -0.56055  -0.55981  -0.55768  -0.55651
 Alpha  occ. eigenvalues --   -0.55321  -0.54955  -0.54766  -0.54504  -0.53903
 Alpha  occ. eigenvalues --   -0.53707  -0.53519  -0.53143  -0.52608  -0.52538
 Alpha  occ. eigenvalues --   -0.52175  -0.51894  -0.51719  -0.51607  -0.51452
 Alpha  occ. eigenvalues --   -0.51232  -0.50692  -0.50559  -0.50469  -0.50134
 Alpha  occ. eigenvalues --   -0.49962  -0.49952  -0.49696  -0.49562  -0.49280
 Alpha  occ. eigenvalues --   -0.48982  -0.48662  -0.48351  -0.48165  -0.48126
 Alpha  occ. eigenvalues --   -0.47830  -0.47692  -0.47408  -0.47378  -0.47096
 Alpha  occ. eigenvalues --   -0.46575  -0.46488  -0.45903  -0.45715  -0.45671
 Alpha  occ. eigenvalues --   -0.45336  -0.45270  -0.45179  -0.44942  -0.44766
 Alpha  occ. eigenvalues --   -0.44426  -0.44148  -0.44109  -0.44083  -0.44006
 Alpha  occ. eigenvalues --   -0.43670  -0.43532  -0.43351  -0.43150  -0.43036
 Alpha  occ. eigenvalues --   -0.42433  -0.42299  -0.42099  -0.41717  -0.41399
 Alpha  occ. eigenvalues --   -0.41099  -0.41065  -0.40890  -0.40813  -0.40731
 Alpha  occ. eigenvalues --   -0.40405  -0.40069  -0.40022  -0.39770  -0.39704
 Alpha  occ. eigenvalues --   -0.39542  -0.39234  -0.38922  -0.38892  -0.38854
 Alpha  occ. eigenvalues --   -0.38657  -0.38471  -0.38288  -0.38058  -0.37940
 Alpha  occ. eigenvalues --   -0.37028  -0.36932  -0.36274  -0.36107  -0.35779
 Alpha  occ. eigenvalues --   -0.35554  -0.35478  -0.35058  -0.34895  -0.34810
 Alpha  occ. eigenvalues --   -0.34677  -0.34433  -0.34365  -0.33738  -0.33413
 Alpha  occ. eigenvalues --   -0.33046  -0.32916  -0.32403  -0.31608  -0.31499
 Alpha  occ. eigenvalues --   -0.31072  -0.30052  -0.29631  -0.27295  -0.25856
 Alpha  occ. eigenvalues --   -0.19353  -0.19300  -0.17596
 Alpha virt. eigenvalues --   -0.13141  -0.12497  -0.09583  -0.08622  -0.07806
 Alpha virt. eigenvalues --   -0.07213  -0.06205  -0.05890  -0.05212  -0.04647
 Alpha virt. eigenvalues --   -0.04624  -0.04216  -0.03912  -0.03095  -0.02529

 Mulliken charges:
               1
     1  N   -0.746358
     2  H    0.446680
     3  H    0.405724
     4  H    0.412113
     5  C   -0.108614
     6  H    0.209232
     7  C    0.648373
     8  C   -0.465304
     9  H    0.211757
    10  H    0.199933
    11  H    0.184063
    12  O   -0.533306
    13  N   -0.581235
    14  H    0.361718
    15  C   -0.076898
    16  H    0.201276
    17  C    0.641131
    18  C   -0.358094
    19  H    0.178278
    20  H    0.212090
    21  O   -0.542450
    22  C    0.638868
    23  N   -0.717909
    24  H    0.362494
    25  H    0.368814
    26  O   -0.579639
    27  N   -0.627543
    28  H    0.359173
    29  C   -0.035442
    30  H    0.188511
    31  C    0.599526
    32  C   -0.298332
    33  H    0.160875
    34  H    0.211346
    35  O   -0.547030
    36  C   -0.376014
    37  H    0.192875
    38  H    0.221041
    39  C    0.596707
    40  O   -0.485955
    41  O   -0.548271
    42  N   -0.633695
    43  H    0.401397
    44  C   -0.041392
    45  H    0.165389
    46  C    0.643837
    47  C   -0.293694
    48  H    0.158655
    49  H    0.157389
    50  O   -0.561005
    51  C   -0.107519
    52  H    0.152001
    53  C   -0.448751
    54  H    0.153242
    55  H    0.124352
    56  H    0.162915
    57  C   -0.453119
    58  H    0.150938
    59  H    0.151219
    60  H    0.155040
    61  N   -0.597864
    62  H    0.343487
    63  C   -0.073817
    64  H    0.189548
    65  C    0.660928
    66  C   -0.268205
    67  H    0.144730
    68  H    0.141853
    69  O   -0.570852
    70  C   -0.081775
    71  H    0.143151
    72  C   -0.463149
    73  H    0.136890
    74  H    0.166736
    75  H    0.152357
    76  C   -0.448125
    77  H    0.142424
    78  H    0.142461
    79  H    0.147742
    80  N   -0.624385
    81  H    0.371944
    82  C   -0.028278
    83  H    0.156914
    84  C    0.621400
    85  C   -0.117251
    86  H    0.133335
    87  O   -0.524447
    88  C   -0.278306
    89  H    0.166452
    90  H    0.134872
    91  C   -0.458421
    92  H    0.169857
    93  H    0.150092
    94  H    0.153986
    95  C   -0.452360
    96  H    0.165506
    97  H    0.155669
    98  H    0.135213
    99  N   -0.616271
   100  H    0.356810
   101  C   -0.084683
   102  H    0.194903
   103  C    0.624485
   104  C   -0.379121
   105  H    0.173338
   106  H    0.193973
   107  O   -0.541227
   108  C    0.626166
   109  N   -0.739228
   110  H    0.417272
   111  H    0.354952
   112  O   -0.587339
   113  N   -0.595790
   114  H    0.341958
   115  C   -0.056304
   116  H    0.177198
   117  C    0.604089
   118  C   -0.070185
   119  H    0.130837
   120  O   -0.610734
   121  C   -0.462420
   122  H    0.160406
   123  H    0.142980
   124  H    0.176571
   125  C   -0.443406
   126  H    0.155683
   127  H    0.141798
   128  H    0.137169
   129  N   -0.610700
   130  H    0.371307
   131  C   -0.060998
   132  H    0.147023
   133  C    0.577951
   134  C   -0.276156
   135  H    0.189362
   136  H    0.103123
   137  O   -0.579194
   138  C   -0.264153
   139  H    0.178513
   140  H    0.146589
   141  C   -0.291029
   142  H    0.142418
   143  H    0.133926
   144  C   -0.191060
   145  H    0.230452
   146  H    0.204792
   147  N   -0.772770
   148  H    0.450263
   149  H    0.389213
   150  H    0.388192
   151  O   -0.615698
   152  H    0.423041
 Sum of Mulliken charges =   1.00000

 Dipole moment (field-independent basis, Debye):
    X=            -58.5683    Y=            -22.8561    Z=            -28.3977  Tot=             68.9861
 Quadrupole moment (field-independent basis, Debye-Ang):
   XX=           -279.1773   YY=           -363.1096   ZZ=           -215.9942
   XY=            -38.4288   XZ=            217.8785   YZ=             13.3023

 Normal termination of Gaussian 16 at Mon Jul  4 20:53:14 2022.
