 Gaussian 16, Revision C.01,
 Gaussian 16:  ES64L-G16RevC.01  3-Jul-2019

 ----------------------------------------------------------------------
 # B3LYP/6-31G* empiricaldispersion=gd3 guess=read geom=check nosymm in
 tegral(ultrafinegrid)
 ----------------------------------------------------------------------

 ------------------------------------------------------
 Candidate Structure: Conf:549 Charge calc in gas phase
 ------------------------------------------------------
 Structure from the checkpoint file:  "conf-549.chk"
 Charge =  1 Multiplicity = 1

                          Input orientation:
 ---------------------------------------------------------------------
 Center     Atomic      Atomic             Coordinates (Angstroms)
 Number     Number       Type             X           Y           Z
 ---------------------------------------------------------------------
      1          7           0       -3.014985    6.608840   -4.196751
      2          1           0       -2.990292    7.080725   -5.104954
      3          1           0       -3.277211    7.286421   -3.477100
      4          1           0       -3.704207    5.810837   -4.246629
      5          6           0       -1.718615    5.881511   -3.879291
      6          1           0       -0.868847    6.389580   -4.346433
      7          6           0       -1.988176    4.462822   -4.407891
      8          6           0       -1.524848    5.829462   -2.364340
      9          1           0       -0.706192    5.140165   -2.154517
     10          1           0       -2.414032    5.435836   -1.862508
     11          1           0       -1.255283    6.818379   -1.981696
     12          8           0       -3.172832    4.084207   -4.469117
     13          7           0       -0.907432    3.740672   -4.684100
     14          1           0        0.017816    4.167037   -4.438960
     15          6           0       -0.986807    2.286771   -4.687178
     16          1           0       -1.758206    1.962069   -5.388860
     17          6           0       -1.347958    1.828076   -3.252111
     18          6           0        0.373451    1.720341   -5.111557
     19          1           0        1.133275    1.987911   -4.367641
     20          1           0        0.676004    2.195741   -6.053860
     21          8           0       -0.956741    2.477798   -2.277656
     22          6           0        0.319222    0.210224   -5.330877
     23          7           0        1.530192   -0.412499   -5.361037
     24          1           0        1.551383   -1.386279   -5.634229
     25          1           0        2.394395    0.108773   -5.390151
     26          8           0       -0.736303   -0.400527   -5.470217
     27          7           0       -2.105934    0.720593   -3.162799
     28          1           0       -2.293311    0.185826   -4.005449
     29          6           0       -2.522384    0.158151   -1.877806
     30          1           0       -1.857344    0.569810   -1.118142
     31          6           0       -2.358929   -1.362984   -1.993740
     32          6           0       -3.970248    0.538042   -1.536395
     33          1           0       -4.630494    0.123127   -2.303795
     34          1           0       -4.233371    0.064143   -0.584295
     35          8           0       -3.133600   -2.029711   -2.672601
     36          6           0       -4.171699    2.051712   -1.428453
     37          1           0       -5.234669    2.286087   -1.284514
     38          1           0       -3.872113    2.571390   -2.345861
     39          6           0       -3.422595    2.657028   -0.263116
     40          8           0       -2.858417    2.049696    0.621216
     41          8           0       -3.474078    4.017413   -0.279425
     42          7           0       -1.264618   -1.850652   -1.360622
     43          1           0       -0.801387   -1.277468   -0.662136
     44          6           0       -0.909988   -3.257410   -1.288229
     45          1           0       -1.826059   -3.859695   -1.293424
     46          6           0       -0.157369   -3.424274    0.049223
     47          6           0        0.025619   -3.699688   -2.444643
     48          1           0        0.295985   -4.755425   -2.300868
     49          1           0        0.956491   -3.130070   -2.342594
     50          8           0        0.098060   -2.444503    0.758900
     51          6           0       -0.511628   -3.538305   -3.876416
     52          1           0       -0.825533   -2.498689   -4.020835
     53          6           0        0.626172   -3.828483   -4.868374
     54          1           0        0.918280   -4.886077   -4.842122
     55          1           0        1.525647   -3.243269   -4.631998
     56          1           0        0.313619   -3.595470   -5.893010
     57          6           0       -1.709968   -4.453699   -4.157501
     58          1           0       -1.441075   -5.507453   -3.999891
     59          1           0       -2.561080   -4.199700   -3.522415
     60          1           0       -2.036045   -4.346578   -5.198170
     61          7           0        0.271761   -4.671488    0.355357
     62          1           0        0.139113   -5.408554   -0.324865
     63          6           0        1.318068   -4.898788    1.366889
     64          1           0        1.056089   -4.282157    2.229259
     65          6           0        2.649418   -4.413256    0.745809
     66          6           0        1.370850   -6.377019    1.747742
     67          1           0        0.378274   -6.669244    2.116143
     68          1           0        1.574949   -6.957681    0.838871
     69          8           0        3.364899   -5.149719    0.071140
     70          6           0        2.440624   -6.728280    2.800009
     71          1           0        3.419429   -6.497984    2.359927
     72          6           0        2.283977   -5.914506    4.093514
     73          1           0        1.282419   -6.047435    4.523371
     74          1           0        2.442823   -4.842020    3.931241
     75          1           0        3.012844   -6.240075    4.844096
     76          6           0        2.395656   -8.233984    3.095363
     77          1           0        1.435256   -8.516599    3.545920
     78          1           0        2.525290   -8.824541    2.180940
     79          1           0        3.188607   -8.519925    3.795380
     80          7           0        2.911270   -3.096372    0.953098
     81          1           0        2.196965   -2.514520    1.378427
     82          6           0        3.971734   -2.413976    0.237120
     83          1           0        4.865387   -3.042086    0.287799
     84          6           0        4.207686   -1.081127    0.939738
     85          6           0        3.600669   -2.192080   -1.273960
     86          1           0        3.164995   -3.154654   -1.567493
     87          8           0        3.381014   -0.602201    1.728250
     88          6           0        4.801719   -1.954494   -2.210949
     89          1           0        4.399599   -1.958711   -3.233870
     90          1           0        5.211809   -0.945968   -2.063744
     91          6           0        2.544775   -1.090658   -1.446726
     92          1           0        2.969995   -0.103205   -1.227949
     93          1           0        1.689554   -1.242493   -0.783312
     94          1           0        2.174717   -1.066087   -2.478307
     95          6           0        5.922966   -2.996348   -2.108739
     96          1           0        6.609096   -2.911557   -2.957267
     97          1           0        5.512856   -4.012494   -2.092463
     98          1           0        6.531027   -2.866535   -1.206617
     99          7           0        5.316814   -0.405552    0.563358
    100          1           0        6.015013   -0.867138   -0.013448
    101          6           0        5.665735    0.923865    1.066604
    102          1           0        5.456637    0.942508    2.144162
    103          6           0        4.809340    2.055717    0.415018
    104          6           0        7.169530    1.162596    0.830631
    105          1           0        7.736656    0.513994    1.502176
    106          1           0        7.408066    2.203831    1.057780
    107          8           0        5.355928    2.993943   -0.198758
    108          6           0        7.586500    0.784238   -0.595903
    109          7           0        7.618846    1.799630   -1.504818
    110          1           0        6.970582    2.562045   -1.332112
    111          1           0        7.744984    1.510170   -2.467944
    112          8           0        7.850899   -0.383888   -0.872187
    113          7           0        3.491658    1.936397    0.613671
    114          1           0        3.204884    1.125609    1.169660
    115          6           0        2.409392    2.717141    0.004848
    116          1           0        2.153330    2.254489   -0.957948
    117          6           0        2.813811    4.174755   -0.234149
    118          6           0        1.153039    2.634277    0.924055
    119          1           0        1.513370    2.811980    1.946014
    120          8           0        3.273410    4.863818    0.699917
    121          6           0        0.114224    3.715022    0.587570
    122          1           0       -0.238233    3.607212   -0.440486
    123          1           0       -0.750274    3.583829    1.245781
    124          1           0        0.514403    4.723350    0.737244
    125          6           0        0.513908    1.237278    0.829575
    126          1           0        0.195570    1.056124   -0.203980
    127          1           0       -0.379704    1.186847    1.458138
    128          1           0        1.184306    0.428559    1.135459
    129          7           0        2.561197    4.592776   -1.483868
    130          1           0        2.144760    3.942345   -2.152891
    131          6           0        2.541414    5.944230   -2.065101
    132          1           0        2.125802    6.638096   -1.327255
    133          6           0        1.587024    5.879178   -3.293702
    134          6           0        3.942662    6.460110   -2.497975
    135          1           0        3.847016    7.521869   -2.747500
    136          1           0        4.274335    5.931197   -3.400086
    137          8           0        1.088779    6.947367   -3.683286
    138          6           0        4.865986    6.182273   -1.320890
    139          1           0        4.878788    5.093393   -1.232398
    140          1           0        4.334493    6.557973   -0.442675
    141          6           0        6.319492    6.632310   -1.191302
    142          1           0        6.904116    6.459906   -2.102614
    143          1           0        6.404528    7.699349   -0.952578
    144          6           0        6.948651    5.767213   -0.081590
    145          1           0        7.155227    4.760239   -0.445183
    146          1           0        7.862774    6.193698    0.338685
    147          7           0        5.988828    5.549165    1.088382
    148          1           0        6.399487    4.903105    1.767021
    149          1           0        5.054720    5.137317    0.806782
    150          1           0        5.781786    6.427028    1.574650
    151          8           0        1.422278    4.704677   -3.766868
    152          1           0       -2.979248    4.313015    0.507854
 ---------------------------------------------------------------------

 SCF Done:  E(RB3LYP) =  -3474.01249405     A.U. after    1 cycles

 Alpha  occ. eigenvalues --  -19.26371 -19.22713 -19.22213 -19.21224 -19.20548
 Alpha  occ. eigenvalues --  -19.20542 -19.20197 -19.19809 -19.19714 -19.18943
 Alpha  occ. eigenvalues --  -19.17423 -19.17314 -19.16718 -19.15432 -14.56653
 Alpha  occ. eigenvalues --  -14.56187 -14.45351 -14.45211 -14.43873 -14.43711
 Alpha  occ. eigenvalues --  -14.43686 -14.43671 -14.43360 -14.42978 -14.41847
 Alpha  occ. eigenvalues --  -14.41555 -10.39296 -10.38580 -10.38297 -10.38027
 Alpha  occ. eigenvalues --  -10.37875 -10.37515 -10.37511 -10.36552 -10.36426
 Alpha  occ. eigenvalues --  -10.35954 -10.34695 -10.34591 -10.34319 -10.34240
 Alpha  occ. eigenvalues --  -10.34025 -10.31586 -10.31393 -10.30357 -10.30149
 Alpha  occ. eigenvalues --  -10.30105 -10.29625 -10.29499 -10.29386 -10.29120
 Alpha  occ. eigenvalues --  -10.28276 -10.27376 -10.26883 -10.26834 -10.26646
 Alpha  occ. eigenvalues --  -10.26345 -10.26138 -10.25009 -10.24974 -10.24965
 Alpha  occ. eigenvalues --  -10.24190 -10.23997 -10.23757 -10.23659 -10.23430
 Alpha  occ. eigenvalues --  -10.23122 -10.23106 -10.23053 -10.22041 -10.21584
 Alpha  occ. eigenvalues --  -10.21027  -1.16994  -1.14413  -1.14136  -1.12984
 Alpha  occ. eigenvalues --   -1.12190  -1.11655  -1.11600  -1.11537  -1.10823
 Alpha  occ. eigenvalues --   -1.10794  -1.09651  -1.09383  -1.09293  -1.09068
 Alpha  occ. eigenvalues --   -1.07969  -1.02500  -1.01636  -1.01552  -1.01031
 Alpha  occ. eigenvalues --   -0.99949  -0.99520  -0.99480  -0.98977  -0.98656
 Alpha  occ. eigenvalues --   -0.98588  -0.98469  -0.90911  -0.89161  -0.88712
 Alpha  occ. eigenvalues --   -0.87970  -0.87256  -0.86742  -0.86457  -0.86007
 Alpha  occ. eigenvalues --   -0.85631  -0.85292  -0.82433  -0.81023  -0.80693
 Alpha  occ. eigenvalues --   -0.79888  -0.79113  -0.78656  -0.77742  -0.76978
 Alpha  occ. eigenvalues --   -0.75717  -0.74601  -0.74368  -0.73600  -0.72962
 Alpha  occ. eigenvalues --   -0.72827  -0.72473  -0.71186  -0.70821  -0.70322
 Alpha  occ. eigenvalues --   -0.69850  -0.69628  -0.69560  -0.68870  -0.68593
 Alpha  occ. eigenvalues --   -0.67938  -0.67595  -0.66817  -0.66532  -0.66332
 Alpha  occ. eigenvalues --   -0.66213  -0.65517  -0.65312  -0.65178  -0.64528
 Alpha  occ. eigenvalues --   -0.64284  -0.64047  -0.63139  -0.62828  -0.62504
 Alpha  occ. eigenvalues --   -0.61992  -0.61826  -0.61283  -0.61203  -0.60751
 Alpha  occ. eigenvalues --   -0.60020  -0.59942  -0.59135  -0.58656  -0.58228
 Alpha  occ. eigenvalues --   -0.58091  -0.57295  -0.56971  -0.56843  -0.56621
 Alpha  occ. eigenvalues --   -0.56352  -0.55888  -0.55441  -0.55308  -0.55167
 Alpha  occ. eigenvalues --   -0.55059  -0.54697  -0.54412  -0.54087  -0.53786
 Alpha  occ. eigenvalues --   -0.53585  -0.53448  -0.52960  -0.52731  -0.52454
 Alpha  occ. eigenvalues --   -0.52201  -0.51923  -0.51590  -0.51529  -0.51375
 Alpha  occ. eigenvalues --   -0.51216  -0.51112  -0.50937  -0.50680  -0.50015
 Alpha  occ. eigenvalues --   -0.49931  -0.49814  -0.49551  -0.49480  -0.49246
 Alpha  occ. eigenvalues --   -0.49026  -0.48864  -0.48675  -0.48624  -0.48450
 Alpha  occ. eigenvalues --   -0.48262  -0.48023  -0.47739  -0.47579  -0.47380
 Alpha  occ. eigenvalues --   -0.47313  -0.47183  -0.47121  -0.46862  -0.46654
 Alpha  occ. eigenvalues --   -0.46350  -0.46229  -0.46093  -0.46002  -0.45976
 Alpha  occ. eigenvalues --   -0.45769  -0.45682  -0.45445  -0.45229  -0.45102
 Alpha  occ. eigenvalues --   -0.44982  -0.44879  -0.44430  -0.44195  -0.44010
 Alpha  occ. eigenvalues --   -0.43813  -0.43680  -0.43271  -0.43162  -0.43002
 Alpha  occ. eigenvalues --   -0.42896  -0.42747  -0.42316  -0.42142  -0.42052
 Alpha  occ. eigenvalues --   -0.41972  -0.41785  -0.41529  -0.41437  -0.41170
 Alpha  occ. eigenvalues --   -0.41022  -0.40630  -0.40322  -0.39906  -0.39747
 Alpha  occ. eigenvalues --   -0.39382  -0.38865  -0.38331  -0.38264  -0.37906
 Alpha  occ. eigenvalues --   -0.37792  -0.37644  -0.37476  -0.37323  -0.37070
 Alpha  occ. eigenvalues --   -0.36695  -0.36350  -0.35514  -0.35258  -0.35158
 Alpha  occ. eigenvalues --   -0.35019  -0.34529  -0.34439  -0.34228  -0.34128
 Alpha  occ. eigenvalues --   -0.33838  -0.33686  -0.33613  -0.33443  -0.32818
 Alpha  occ. eigenvalues --   -0.32560  -0.31670  -0.31612  -0.31522  -0.31232
 Alpha  occ. eigenvalues --   -0.30482  -0.29898  -0.29371
 Alpha virt. eigenvalues --   -0.09606  -0.08660  -0.08458  -0.07364  -0.06998
 Alpha virt. eigenvalues --   -0.06887  -0.06620  -0.05967  -0.05908  -0.05674
 Alpha virt. eigenvalues --   -0.05092  -0.03707  -0.03551  -0.03021  -0.01998

 Mulliken charges:
               1
     1  N   -0.747810
     2  H    0.410449
     3  H    0.406585
     4  H    0.417695
     5  C   -0.127526
     6  H    0.252672
     7  C    0.644267
     8  C   -0.503437
     9  H    0.226857
    10  H    0.187223
    11  H    0.174013
    12  O   -0.565953
    13  N   -0.630329
    14  H    0.430932
    15  C   -0.036867
    16  H    0.195603
    17  C    0.610826
    18  C   -0.411611
    19  H    0.188962
    20  H    0.200078
    21  O   -0.556417
    22  C    0.618661
    23  N   -0.755456
    24  H    0.366382
    25  H    0.344906
    26  O   -0.511347
    27  N   -0.598243
    28  H    0.378645
    29  C   -0.077782
    30  H    0.204991
    31  C    0.619317
    32  C   -0.253868
    33  H    0.172153
    34  H    0.167339
    35  O   -0.524920
    36  C   -0.385864
    37  H    0.185925
    38  H    0.201893
    39  C    0.618837
    40  O   -0.468748
    41  O   -0.585277
    42  N   -0.625140
    43  H    0.373090
    44  C   -0.063209
    45  H    0.191307
    46  C    0.628858
    47  C   -0.275905
    48  H    0.127505
    49  H    0.152702
    50  O   -0.550148
    51  C   -0.078875
    52  H    0.166302
    53  C   -0.461097
    54  H    0.149811
    55  H    0.117925
    56  H    0.155040
    57  C   -0.460740
    58  H    0.123941
    59  H    0.184580
    60  H    0.150205
    61  N   -0.603151
    62  H    0.344362
    63  C   -0.059555
    64  H    0.179923
    65  C    0.625277
    66  C   -0.275769
    67  H    0.144272
    68  H    0.151177
    69  O   -0.540107
    70  C   -0.084045
    71  H    0.153887
    72  C   -0.453989
    73  H    0.144249
    74  H    0.141070
    75  H    0.151745
    76  C   -0.446137
    77  H    0.142144
    78  H    0.148282
    79  H    0.149150
    80  N   -0.614212
    81  H    0.379373
    82  C   -0.062883
    83  H    0.192240
    84  C    0.630271
    85  C   -0.095086
    86  H    0.174685
    87  O   -0.557912
    88  C   -0.270211
    89  H    0.130209
    90  H    0.122452
    91  C   -0.506041
    92  H    0.135223
    93  H    0.174151
    94  H    0.154371
    95  C   -0.462046
    96  H    0.154287
    97  H    0.173001
    98  H    0.157305
    99  N   -0.632192
   100  H    0.396238
   101  C   -0.075142
   102  H    0.197699
   103  C    0.629042
   104  C   -0.360744
   105  H    0.200152
   106  H    0.143497
   107  O   -0.593186
   108  C    0.559845
   109  N   -0.750506
   110  H    0.378499
   111  H    0.343008
   112  O   -0.498715
   113  N   -0.640799
   114  H    0.411299
   115  C   -0.009082
   116  H    0.161318
   117  C    0.656913
   118  C   -0.101110
   119  H    0.148751
   120  O   -0.620073
   121  C   -0.517553
   122  H    0.208500
   123  H    0.153651
   124  H    0.146482
   125  C   -0.502057
   126  H    0.157736
   127  H    0.184012
   128  H    0.177008
   129  N   -0.613284
   130  H    0.370480
   131  C   -0.043364
   132  H    0.163678
   133  C    0.608095
   134  C   -0.267152
   135  H    0.168654
   136  H    0.150732
   137  O   -0.578731
   138  C   -0.324573
   139  H    0.184249
   140  H    0.148491
   141  C   -0.275911
   142  H    0.178347
   143  H    0.164348
   144  C   -0.197277
   145  H    0.219513
   146  H    0.195468
   147  N   -0.774479
   148  H    0.399889
   149  H    0.480781
   150  H    0.399536
   151  O   -0.636998
   152  H    0.415149
 Sum of Mulliken charges =   1.00000

 Dipole moment (field-independent basis, Debye):
    X=             12.8746    Y=             23.0896    Z=             -5.5064  Tot=             27.0038
 Quadrupole moment (field-independent basis, Debye-Ang):
   XX=           -283.8998   YY=           -244.6915   ZZ=           -369.7205
   XY=             44.6600   XZ=             31.8655   YZ=            -33.6739

 Normal termination of Gaussian 16 at Mon Jul  4 20:52:16 2022.
