 Gaussian 16, Revision C.01,
 Gaussian 16:  ES64L-G16RevC.01  3-Jul-2019

 ----------------------------------------------------------------------
 # B3LYP/6-31G* empiricaldispersion=gd3 guess=read geom=check nosymm in
 tegral(ultrafinegrid)
 ----------------------------------------------------------------------

 ------------------------------------------------------
 Candidate Structure: Conf:472 Charge calc in gas phase
 ------------------------------------------------------
 Structure from the checkpoint file:  "conf-472.chk"
 Charge =  1 Multiplicity = 1

                          Input orientation:
 ---------------------------------------------------------------------
 Center     Atomic      Atomic             Coordinates (Angstroms)
 Number     Number       Type             X           Y           Z
 ---------------------------------------------------------------------
      1          7           0       -2.794807   -1.013681  -12.148487
      2          1           0       -2.136028   -1.438939  -11.447889
      3          1           0       -2.298069   -0.671118  -12.975541
      4          1           0       -3.456905   -1.757134  -12.411077
      5          6           0       -3.591782    0.069031  -11.440781
      6          1           0       -2.861784    0.803552  -11.092463
      7          6           0       -4.216245   -0.726959  -10.278229
      8          6           0       -4.625994    0.677065  -12.378817
      9          1           0       -5.171338    1.465660  -11.852282
     10          1           0       -5.348895   -0.081507  -12.695659
     11          1           0       -4.155879    1.125863  -13.260233
     12          8           0       -4.715667   -1.820833  -10.535382
     13          7           0       -4.086773   -0.208877   -9.044302
     14          1           0       -3.604342    0.670876   -8.888381
     15          6           0       -4.143492   -1.069867   -7.874440
     16          1           0       -4.925508   -1.815171   -8.034631
     17          6           0       -4.404806   -0.165965   -6.660759
     18          6           0       -2.763326   -1.762161   -7.620790
     19          1           0       -2.868094   -2.451706   -6.776520
     20          1           0       -2.052336   -0.982803   -7.327271
     21          8           0       -3.864437    0.942206   -6.624653
     22          6           0       -2.172724   -2.451108   -8.845011
     23          7           0       -2.147701   -3.794764   -8.838838
     24          1           0       -1.727165   -4.285353   -9.617665
     25          1           0       -2.472224   -4.343105   -8.055228
     26          8           0       -1.725969   -1.783313   -9.793464
     27          7           0       -5.150242   -0.684488   -5.668058
     28          1           0       -5.529626   -1.618796   -5.759008
     29          6           0       -5.278721   -0.033585   -4.351367
     30          1           0       -5.309359    1.044451   -4.539937
     31          6           0       -4.012924   -0.382556   -3.530532
     32          6           0       -6.558028   -0.500273   -3.663135
     33          1           0       -7.406512   -0.340502   -4.336278
     34          1           0       -6.490992   -1.575406   -3.465666
     35          8           0       -4.031473   -1.245015   -2.652319
     36          6           0       -6.805386    0.225729   -2.340514
     37          1           0       -6.843272    1.314763   -2.475282
     38          1           0       -5.996774    0.027308   -1.629353
     39          6           0       -8.111150   -0.213557   -1.712007
     40          8           0       -8.884802   -1.012502   -2.191403
     41          8           0       -8.315626    0.404933   -0.527699
     42          7           0       -2.897178    0.283518   -3.907011
     43          1           0       -2.962874    0.984280   -4.637241
     44          6           0       -1.583558   -0.025826   -3.338358
     45          1           0       -1.608817   -1.088774   -3.080915
     46          6           0       -1.364178    0.766807   -2.032292
     47          6           0       -0.479153    0.231003   -4.365479
     48          1           0       -0.508619    1.286378   -4.664570
     49          1           0       -0.717166   -0.370509   -5.256837
     50          8           0       -0.613324    1.736655   -1.969507
     51          6           0        0.949165   -0.108351   -3.888232
     52          1           0        1.218307    0.639811   -3.136867
     53          6           0        1.050860   -1.496090   -3.236864
     54          1           0        0.667384   -2.279919   -3.905406
     55          1           0        0.506816   -1.552414   -2.287279
     56          1           0        2.097396   -1.736874   -3.017052
     57          6           0        1.927041    0.023644   -5.063251
     58          1           0        1.719669   -0.728765   -5.836893
     59          1           0        1.862562    1.014001   -5.530149
     60          1           0        2.960540   -0.122224   -4.729556
     61          7           0       -2.053160    0.289838   -0.961401
     62          1           0       -2.551647   -0.585780   -1.079204
     63          6           0       -1.610945    0.646657    0.383787
     64          1           0       -1.626674    1.736946    0.462863
     65          6           0       -0.171936    0.113902    0.546649
     66          6           0       -2.541206    0.008979    1.423163
     67          1           0       -3.563331    0.365528    1.234800
     68          1           0       -2.535102   -1.075903    1.252452
     69          8           0        0.094586   -1.057661    0.281333
     70          6           0       -2.162047    0.281758    2.891066
     71          1           0       -1.153559   -0.122597    3.059390
     72          6           0       -2.136998    1.780697    3.225499
     73          1           0       -3.100562    2.250674    2.989342
     74          1           0       -1.355365    2.316033    2.675410
     75          1           0       -1.944413    1.935345    4.293042
     76          6           0       -3.130185   -0.465119    3.819626
     77          1           0       -4.154660   -0.089830    3.698532
     78          1           0       -3.138974   -1.540406    3.606808
     79          1           0       -2.849130   -0.331629    4.870243
     80          7           0        0.745841    1.002698    0.992275
     81          1           0        0.520814    1.987588    1.053629
     82          6           0        2.159706    0.670251    1.032665
     83          1           0        2.249397   -0.323325    1.480260
     84          6           0        2.850292    1.710094    1.907683
     85          6           0        2.777123    0.623635   -0.406422
     86          1           0        2.110615   -0.057790   -0.947548
     87          8           0        2.371718    2.845071    2.059701
     88          6           0        4.190497    0.012777   -0.465624
     89          1           0        4.483660   -0.003377   -1.523784
     90          1           0        4.915882    0.672477    0.028465
     91          6           0        2.728909    1.995943   -1.090546
     92          1           0        3.351036    2.732147   -0.567798
     93          1           0        1.705865    2.378083   -1.144610
     94          1           0        3.104750    1.914401   -2.116764
     95          6           0        4.307658   -1.410530    0.094262
     96          1           0        5.291920   -1.834483   -0.128080
     97          1           0        3.542538   -2.065820   -0.338898
     98          1           0        4.188046   -1.452556    1.183725
     99          7           0        4.028081    1.339252    2.442521
    100          1           0        4.418928    0.410649    2.305555
    101          6           0        4.935685    2.282588    3.060421
    102          1           0        4.926853    3.203491    2.467563
    103          6           0        6.336686    1.638383    2.988997
    104          6           0        4.550800    2.618944    4.540268
    105          1           0        5.308600    2.251137    5.236011
    106          1           0        3.619757    2.093192    4.774948
    107          8           0        6.455064    0.420917    2.856465
    108          6           0        4.337265    4.106797    4.814864
    109          7           0        3.415932    4.699037    4.037065
    110          1           0        2.923433    4.176602    3.307866
    111          1           0        3.236817    5.685265    4.169885
    112          8           0        4.956757    4.716637    5.700241
    113          7           0        7.351680    2.510271    3.112437
    114          1           0        7.177815    3.501798    3.250856
    115          6           0        8.762438    2.150302    3.226956
    116          1           0        8.821968    1.150949    3.669602
    117          6           0        9.397247    3.191225    4.160356
    118          6           0        9.521128    2.137080    1.866862
    119          1           0       10.568858    1.921664    2.118069
    120          8           0        8.802352    4.296917    4.331353
    121          6           0        8.994176    1.025323    0.951735
    122          1           0        7.957074    1.216835    0.652391
    123          1           0        9.603176    0.969674    0.042703
    124          1           0        9.019788    0.048544    1.444979
    125          6           0        9.466951    3.504310    1.171693
    126          1           0        8.434166    3.772137    0.913977
    127          1           0       10.045542    3.475306    0.242822
    128          1           0        9.877835    4.302670    1.797758
    129          7           0       10.558412    2.864457    4.692062
    130          1           0       11.117725    2.052070    4.301633
    131          6           0       11.614554    3.820045    5.065813
    132          1           0       11.427629    4.762480    4.538250
    133          6           0       12.941038    3.156015    4.486036
    134          6           0       11.749127    4.113167    6.560928
    135          1           0       12.620159    4.769091    6.643441
    136          1           0       12.010913    3.191111    7.097934
    137          8           0       13.977706    3.795606    4.683214
    138          6           0       10.498905    4.762947    7.190137
    139          1           0        9.963207    5.315723    6.408002
    140          1           0       10.785945    5.503595    7.947232
    141          6           0        9.554214    3.739720    7.856789
    142          1           0        9.606769    2.779282    7.324841
    143          1           0        9.892255    3.532305    8.878353
    144          6           0        8.091494    4.191475    7.907470
    145          1           0        7.509189    3.661679    8.666702
    146          1           0        8.001622    5.265437    8.091765
    147          7           0        7.438493    3.917523    6.581348
    148          1           0        6.461786    4.274812    6.452564
    149          1           0        7.399234    2.906426    6.427247
    150          1           0        8.014190    4.274554    5.763131
    151          8           0       12.737720    2.042135    3.905599
    152          1           0       -9.167654    0.077856   -0.181516
 ---------------------------------------------------------------------

 SCF Done:  E(RB3LYP) =  -3473.94374168     A.U. after    3 cycles

 Alpha  occ. eigenvalues --  -19.26692 -19.26638 -19.26104 -19.24631 -19.21041
 Alpha  occ. eigenvalues --  -19.20634 -19.20033 -19.19958 -19.18466 -19.18465
 Alpha  occ. eigenvalues --  -19.17058 -19.17050 -19.06763 -19.05301 -14.60136
 Alpha  occ. eigenvalues --  -14.50600 -14.50431 -14.49197 -14.48777 -14.45068
 Alpha  occ. eigenvalues --  -14.43540 -14.42301 -14.42292 -14.41880 -14.41840
 Alpha  occ. eigenvalues --  -14.37726 -10.44340 -10.44153 -10.41880 -10.41311
 Alpha  occ. eigenvalues --  -10.38899 -10.38120 -10.37999 -10.37197 -10.36561
 Alpha  occ. eigenvalues --  -10.35742 -10.35165 -10.34138 -10.34022 -10.33829
 Alpha  occ. eigenvalues --  -10.33685 -10.32934 -10.31708 -10.30868 -10.30758
 Alpha  occ. eigenvalues --  -10.29490 -10.29138 -10.28052 -10.28045 -10.27878
 Alpha  occ. eigenvalues --  -10.27753 -10.26204 -10.25143 -10.24910 -10.24690
 Alpha  occ. eigenvalues --  -10.24659 -10.24598 -10.24288 -10.23808 -10.23659
 Alpha  occ. eigenvalues --  -10.23279 -10.22921 -10.22899 -10.22706 -10.22511
 Alpha  occ. eigenvalues --  -10.22241 -10.21825 -10.21817 -10.20530 -10.20473
 Alpha  occ. eigenvalues --  -10.19593  -1.19677  -1.17789  -1.17044  -1.16686
 Alpha  occ. eigenvalues --   -1.14333  -1.12845  -1.11806  -1.11096  -1.10415
 Alpha  occ. eigenvalues --   -1.10310  -1.08826  -1.08171  -1.07973  -1.07414
 Alpha  occ. eigenvalues --   -1.05213  -1.05149  -1.04223  -1.01405  -1.00376
 Alpha  occ. eigenvalues --   -0.99746  -0.98792  -0.98617  -0.98440  -0.97697
 Alpha  occ. eigenvalues --   -0.94778  -0.94088  -0.91705  -0.90824  -0.89487
 Alpha  occ. eigenvalues --   -0.88132  -0.87482  -0.86790  -0.85675  -0.84835
 Alpha  occ. eigenvalues --   -0.84290  -0.83747  -0.83155  -0.81860  -0.80596
 Alpha  occ. eigenvalues --   -0.79759  -0.79248  -0.79006  -0.77702  -0.76557
 Alpha  occ. eigenvalues --   -0.74886  -0.74564  -0.74416  -0.74242  -0.74068
 Alpha  occ. eigenvalues --   -0.73657  -0.73429  -0.72463  -0.72331  -0.72065
 Alpha  occ. eigenvalues --   -0.71788  -0.71547  -0.69924  -0.68909  -0.68457
 Alpha  occ. eigenvalues --   -0.68104  -0.67664  -0.67032  -0.66617  -0.66519
 Alpha  occ. eigenvalues --   -0.65691  -0.65491  -0.65335  -0.64734  -0.64202
 Alpha  occ. eigenvalues --   -0.63884  -0.63520  -0.62830  -0.62741  -0.62651
 Alpha  occ. eigenvalues --   -0.62357  -0.61442  -0.61393  -0.61219  -0.61128
 Alpha  occ. eigenvalues --   -0.60947  -0.60710  -0.60227  -0.59773  -0.58879
 Alpha  occ. eigenvalues --   -0.58613  -0.58327  -0.57303  -0.57012  -0.56661
 Alpha  occ. eigenvalues --   -0.56265  -0.55909  -0.55687  -0.55610  -0.55517
 Alpha  occ. eigenvalues --   -0.55408  -0.54967  -0.54710  -0.54537  -0.54333
 Alpha  occ. eigenvalues --   -0.54104  -0.53846  -0.53436  -0.53011  -0.52784
 Alpha  occ. eigenvalues --   -0.52473  -0.52317  -0.52248  -0.51955  -0.51625
 Alpha  occ. eigenvalues --   -0.51569  -0.51264  -0.51014  -0.50537  -0.50452
 Alpha  occ. eigenvalues --   -0.50176  -0.49983  -0.49767  -0.49689  -0.49197
 Alpha  occ. eigenvalues --   -0.49140  -0.48894  -0.48567  -0.48501  -0.48324
 Alpha  occ. eigenvalues --   -0.48188  -0.48009  -0.47538  -0.47503  -0.47155
 Alpha  occ. eigenvalues --   -0.47130  -0.46866  -0.46688  -0.46613  -0.46293
 Alpha  occ. eigenvalues --   -0.46021  -0.45930  -0.45808  -0.45614  -0.45170
 Alpha  occ. eigenvalues --   -0.44859  -0.44651  -0.44548  -0.44461  -0.44311
 Alpha  occ. eigenvalues --   -0.44061  -0.43744  -0.43623  -0.43329  -0.43209
 Alpha  occ. eigenvalues --   -0.42943  -0.42714  -0.42347  -0.41896  -0.41850
 Alpha  occ. eigenvalues --   -0.41735  -0.41614  -0.41572  -0.41564  -0.41146
 Alpha  occ. eigenvalues --   -0.41074  -0.40943  -0.40749  -0.40002  -0.39628
 Alpha  occ. eigenvalues --   -0.39598  -0.39217  -0.39144  -0.38837  -0.38731
 Alpha  occ. eigenvalues --   -0.38492  -0.38409  -0.38392  -0.38144  -0.38124
 Alpha  occ. eigenvalues --   -0.38092  -0.37873  -0.37633  -0.37541  -0.36844
 Alpha  occ. eigenvalues --   -0.36664  -0.36348  -0.35920  -0.35766  -0.35097
 Alpha  occ. eigenvalues --   -0.34888  -0.34545  -0.34326  -0.34131  -0.33916
 Alpha  occ. eigenvalues --   -0.33736  -0.33162  -0.32905  -0.32489  -0.31530
 Alpha  occ. eigenvalues --   -0.31395  -0.30983  -0.30663  -0.29870  -0.29493
 Alpha  occ. eigenvalues --   -0.21779  -0.21572  -0.19375
 Alpha virt. eigenvalues --   -0.13852  -0.13428  -0.10415  -0.10070  -0.07523
 Alpha virt. eigenvalues --   -0.06528  -0.05929  -0.05545  -0.05472  -0.05299
 Alpha virt. eigenvalues --   -0.05238  -0.04016  -0.03905  -0.03407  -0.03211

 Mulliken charges:
               1
     1  N   -0.745427
     2  H    0.446100
     3  H    0.407852
     4  H    0.413806
     5  C   -0.109606
     6  H    0.210269
     7  C    0.650163
     8  C   -0.465902
     9  H    0.213440
    10  H    0.201313
    11  H    0.186263
    12  O   -0.529234
    13  N   -0.579685
    14  H    0.363466
    15  C   -0.077020
    16  H    0.202153
    17  C    0.650816
    18  C   -0.369231
    19  H    0.176518
    20  H    0.221280
    21  O   -0.546050
    22  C    0.641075
    23  N   -0.718292
    24  H    0.365267
    25  H    0.369755
    26  O   -0.577405
    27  N   -0.608279
    28  H    0.348646
    29  C   -0.065910
    30  H    0.189703
    31  C    0.630174
    32  C   -0.278494
    33  H    0.169707
    34  H    0.177093
    35  O   -0.535111
    36  C   -0.374900
    37  H    0.180907
    38  H    0.210144
    39  C    0.589974
    40  O   -0.458158
    41  O   -0.565783
    42  N   -0.619381
    43  H    0.365255
    44  C   -0.068980
    45  H    0.181778
    46  C    0.644204
    47  C   -0.274453
    48  H    0.153090
    49  H    0.109309
    50  O   -0.530905
    51  C   -0.097144
    52  H    0.185290
    53  C   -0.475229
    54  H    0.119250
    55  H    0.185553
    56  H    0.153200
    57  C   -0.445918
    58  H    0.123243
    59  H    0.143161
    60  H    0.153172
    61  N   -0.612764
    62  H    0.360927
    63  C   -0.031602
    64  H    0.160252
    65  C    0.636905
    66  C   -0.288070
    67  H    0.143949
    68  H    0.156256
    69  O   -0.554367
    70  C   -0.082342
    71  H    0.141551
    72  C   -0.449238
    73  H    0.144442
    74  H    0.137040
    75  H    0.150921
    76  C   -0.444256
    77  H    0.142691
    78  H    0.148710
    79  H    0.148991
    80  N   -0.607325
    81  H    0.357080
    82  C   -0.056971
    83  H    0.182657
    84  C    0.640967
    85  C   -0.099441
    86  H    0.174954
    87  O   -0.573977
    88  C   -0.272909
    89  H    0.140893
    90  H    0.139969
    91  C   -0.477783
    92  H    0.143329
    93  H    0.184123
    94  H    0.144298
    95  C   -0.461155
    96  H    0.163508
    97  H    0.159258
    98  H    0.141760
    99  N   -0.628268
   100  H    0.381288
   101  C   -0.047511
   102  H    0.189195
   103  C    0.600223
   104  C   -0.362996
   105  H    0.155093
   106  H    0.204012
   107  O   -0.533223
   108  C    0.589000
   109  N   -0.749087
   110  H    0.407900
   111  H    0.351944
   112  O   -0.555734
   113  N   -0.616261
   114  H    0.348528
   115  C   -0.052249
   116  H    0.179004
   117  C    0.576703
   118  C   -0.091798
   119  H    0.190595
   120  O   -0.628462
   121  C   -0.443897
   122  H    0.135753
   123  H    0.150485
   124  H    0.158280
   125  C   -0.463159
   126  H    0.126090
   127  H    0.158907
   128  H    0.172625
   129  N   -0.580554
   130  H    0.378102
   131  C   -0.096181
   132  H    0.154904
   133  C    0.597968
   134  C   -0.266722
   135  H    0.182620
   136  H    0.139349
   137  O   -0.560453
   138  C   -0.282081
   139  H    0.150501
   140  H    0.144304
   141  C   -0.286122
   142  H    0.155686
   143  H    0.170299
   144  C   -0.179024
   145  H    0.180432
   146  H    0.200022
   147  N   -0.814672
   148  H    0.436263
   149  H    0.374043
   150  H    0.452159
   151  O   -0.621724
   152  H    0.418778
 Sum of Mulliken charges =   1.00000

 Dipole moment (field-independent basis, Debye):
    X=            -31.2264    Y=             -3.6371    Z=            -42.6130  Tot=             52.9545
 Quadrupole moment (field-independent basis, Debye-Ang):
   XX=           -690.6456   YY=           -395.7946   ZZ=            195.5951
   XY=            -34.1385   XZ=            110.2568   YZ=             80.3585

 Normal termination of Gaussian 16 at Mon Jul  4 20:52:52 2022.
