 Gaussian 16, Revision C.01,
 Gaussian 16:  ES64L-G16RevC.01  3-Jul-2019

 ----------------------------------------------------------------------
 # B3LYP/6-31G* empiricaldispersion=gd3 guess=read geom=check nosymm in
 tegral(ultrafinegrid)
 ----------------------------------------------------------------------

 ------------------------------------------------------
 Candidate Structure: Conf:727 Charge calc in gas phase
 ------------------------------------------------------
 Structure from the checkpoint file:  "conf-727.chk"
 Charge =  1 Multiplicity = 1

                          Input orientation:
 ---------------------------------------------------------------------
 Center     Atomic      Atomic             Coordinates (Angstroms)
 Number     Number       Type             X           Y           Z
 ---------------------------------------------------------------------
      1          7           0       -7.870319   -6.066182   -8.876579
      2          1           0       -6.869261   -5.799791   -8.694677
      3          1           0       -8.058243   -6.188040   -9.875104
      4          1           0       -8.025493   -6.948283   -8.367955
      5          6           0       -8.754571   -5.018807   -8.222381
      6          1           0       -8.504617   -4.068104   -8.699257
      7          6           0       -8.260104   -5.087356   -6.763615
      8          6           0      -10.225101   -5.380493   -8.380267
      9          1           0      -10.839661   -4.602547   -7.918027
     10          1           0      -10.441617   -6.327552   -7.875649
     11          1           0      -10.512490   -5.453088   -9.434682
     12          8           0       -8.102118   -6.203992   -6.271133
     13          7           0       -7.942254   -3.926499   -6.169441
     14          1           0       -8.061411   -3.036689   -6.643537
     15          6           0       -6.980098   -3.896693   -5.081436
     16          1           0       -7.135055   -4.779846   -4.458654
     17          6           0       -7.146173   -2.576061   -4.316239
     18          6           0       -5.516833   -3.849376   -5.632250
     19          1           0       -4.828446   -3.813548   -4.782254
     20          1           0       -5.408400   -2.907133   -6.180421
     21          8           0       -7.454772   -1.564318   -4.935021
     22          6           0       -5.161108   -4.956467   -6.610663
     23          7           0       -4.243740   -5.848499   -6.195957
     24          1           0       -3.931545   -6.570706   -6.832142
     25          1           0       -3.768890   -5.754844   -5.308780
     26          8           0       -5.670824   -5.011618   -7.743934
     27          7           0       -6.813922   -2.624760   -2.996876
     28          1           0       -6.398137   -3.499963   -2.691562
     29          6           0       -6.138989   -1.477144   -2.382112
     30          1           0       -6.511955   -0.577745   -2.878486
     31          6           0       -4.632759   -1.681468   -2.664230
     32          6           0       -6.420531   -1.418209   -0.871307
     33          1           0       -7.505853   -1.479736   -0.733169
     34          1           0       -5.978068   -2.295413   -0.385950
     35          8           0       -4.177726   -2.830277   -2.745333
     36          6           0       -5.885496   -0.134057   -0.210698
     37          1           0       -6.338986    0.755077   -0.657570
     38          1           0       -4.798719   -0.052156   -0.331383
     39          6           0       -6.186999   -0.087671    1.272740
     40          8           0       -6.805379    0.780210    1.841949
     41          8           0       -5.664123   -1.166255    1.913148
     42          7           0       -3.901223   -0.567586   -2.821335
     43          1           0       -4.291750    0.340811   -2.581691
     44          6           0       -2.447478   -0.563375   -2.907612
     45          1           0       -2.085117   -1.520526   -2.521691
     46          6           0       -1.974890    0.585801   -1.991421
     47          6           0       -1.960329   -0.349197   -4.358123
     48          1           0       -0.862406   -0.323111   -4.358795
     49          1           0       -2.295464    0.646525   -4.677770
     50          8           0       -2.780050    1.425713   -1.575124
     51          6           0       -2.447613   -1.399448   -5.374526
     52          1           0       -3.542922   -1.452790   -5.293349
     53          6           0       -2.101100   -0.946238   -6.800320
     54          1           0       -1.014888   -0.862846   -6.931164
     55          1           0       -2.541745    0.030685   -7.030364
     56          1           0       -2.468787   -1.665613   -7.542274
     57          6           0       -1.875444   -2.797088   -5.093861
     58          1           0       -0.778837   -2.784800   -5.135134
     59          1           0       -2.186725   -3.168770   -4.113645
     60          1           0       -2.221441   -3.511945   -5.852778
     61          7           0       -0.660965    0.606831   -1.725438
     62          1           0       -0.022703   -0.106265   -2.067312
     63          6           0       -0.023712    1.636189   -0.913277
     64          1           0       -0.449572    2.603241   -1.197092
     65          6           0        1.469295    1.568402   -1.264547
     66          6           0       -0.273341    1.372226    0.592881
     67          1           0       -1.359651    1.266253    0.708120
     68          1           0        0.180943    0.403329    0.835636
     69          8           0        1.964144    0.532101   -1.709398
     70          6           0        0.238128    2.437408    1.581230
     71          1           0        1.327863    2.501615    1.487381
     72          6           0       -0.383984    3.819759    1.326410
     73          1           0       -1.479128    3.773020    1.382404
     74          1           0       -0.132733    4.232075    0.340080
     75          1           0       -0.039228    4.543085    2.073905
     76          6           0       -0.061726    1.977712    3.015714
     77          1           0       -1.142668    1.875552    3.181420
     78          1           0        0.408161    1.009922    3.224819
     79          1           0        0.322493    2.700080    3.744689
     80          7           0        2.181862    2.700405   -1.055406
     81          1           0        1.739779    3.439888   -0.527836
     82          6           0        3.638183    2.664993   -1.046619
     83          1           0        3.953236    2.222450   -1.995636
     84          6           0        4.133657    1.787465    0.115164
     85          6           0        4.199814    4.111443   -0.934352
     86          1           0        3.693070    4.674477   -1.732968
     87          8           0        3.513384    1.681065    1.171083
     88          6           0        5.718957    4.195912   -1.192175
     89          1           0        5.991089    5.257183   -1.121622
     90          1           0        6.247861    3.692185   -0.375136
     91          6           0        3.871856    4.763755    0.421575
     92          1           0        4.397050    4.253466    1.234188
     93          1           0        2.801113    4.752004    0.659916
     94          1           0        4.187829    5.812482    0.412141
     95          6           0        6.188943    3.660660   -2.550449
     96          1           0        7.237555    3.925979   -2.724032
     97          1           0        5.598589    4.085261   -3.372444
     98          1           0        6.126751    2.569242   -2.626503
     99          7           0        5.349728    1.227782   -0.079159
    100          1           0        5.765455    1.153540   -1.002076
    101          6           0        6.046331    0.573246    1.000719
    102          1           0        5.528019   -0.353009    1.286931
    103          6           0        6.164677    1.503846    2.226318
    104          6           0        7.505507    0.263312    0.589286
    105          1           0        8.014320   -0.208212    1.436495
    106          1           0        8.002063    1.220647    0.393595
    107          8           0        6.371818    2.703877    2.106252
    108          6           0        7.598891   -0.557883   -0.689893
    109          7           0        8.220344   -1.761151   -0.582476
    110          1           0        8.658639   -2.069391    0.272336
    111          1           0        8.343744   -2.314847   -1.419269
    112          8           0        7.133551   -0.151144   -1.754429
    113          7           0        6.146406    0.842995    3.423372
    114          1           0        6.213217   -0.165890    3.358921
    115          6           0        6.864083    1.392414    4.565375
    116          1           0        6.854249    2.478949    4.443544
    117          6           0        8.318099    0.876712    4.485231
    118          6           0        6.161865    1.027346    5.900182
    119          1           0        5.126451    1.368625    5.769976
    120          8           0        8.587071   -0.189088    3.920369
    121          6           0        6.139449   -0.486142    6.161591
    122          1           0        7.153792   -0.893781    6.237584
    123          1           0        5.617139   -0.699811    7.100423
    124          1           0        5.616541   -1.030792    5.367351
    125          6           0        6.766304    1.782564    7.093124
    126          1           0        7.783071    1.443182    7.318579
    127          1           0        6.158907    1.619474    7.989735
    128          1           0        6.802768    2.863865    6.910431
    129          7           0        9.253254    1.654406    5.068171
    130          1           0        8.997482    2.494453    5.574818
    131          6           0       10.651663    1.269977    5.165389
    132          1           0       10.714463    0.216879    5.462517
    133          6           0       11.292883    2.149157    6.227904
    134          6           0       11.404156    1.428348    3.818261
    135          1           0       10.809397    0.873935    3.085389
    136          1           0       12.366240    0.912796    3.908596
    137          8           0       12.578668    1.878438    6.398866
    138          6           0       11.629853    2.872734    3.315619
    139          1           0       10.735147    3.477016    3.518601
    140          1           0       11.696760    2.816790    2.223154
    141          6           0       12.906626    3.605774    3.827277
    142          1           0       13.634045    2.858233    4.165216
    143          1           0       13.370668    4.109035    2.971873
    144          6           0       12.715153    4.658154    4.953090
    145          1           0       12.978703    5.656974    4.578896
    146          1           0       11.671277    4.700356    5.269475
    147          7           0       13.505396    4.326627    6.170160
    148          1           0       13.285256    4.986138    6.915390
    149          1           0       14.502650    4.420013    5.978020
    150          1           0       13.039546    2.778999    6.593098
    151          8           0       10.695873    3.075115    6.759033
    152          1           0       -5.891082   -1.063818    2.856792
 ---------------------------------------------------------------------

 SCF Done:  E(RB3LYP) =  -3473.97212798     A.U. after    3 cycles

 Alpha  occ. eigenvalues --  -19.24896 -19.24693 -19.24532 -19.22035 -19.20198
 Alpha  occ. eigenvalues --  -19.20080 -19.19125 -19.17998 -19.17343 -19.16749
 Alpha  occ. eigenvalues --  -19.16596 -19.15869 -19.15649 -19.14976 -14.58388
 Alpha  occ. eigenvalues --  -14.48493 -14.48238 -14.45221 -14.43897 -14.41784
 Alpha  occ. eigenvalues --  -14.41221 -14.40583 -14.40049 -14.39462 -14.39214
 Alpha  occ. eigenvalues --  -14.38987 -10.42176 -10.42081 -10.39596 -10.38976
 Alpha  occ. eigenvalues --  -10.37456 -10.36968 -10.35379 -10.35095 -10.35070
 Alpha  occ. eigenvalues --  -10.34414 -10.33553 -10.32737 -10.32637 -10.32205
 Alpha  occ. eigenvalues --  -10.31837 -10.31799 -10.30922 -10.30293 -10.28292
 Alpha  occ. eigenvalues --  -10.28276 -10.27337 -10.27193 -10.26952 -10.26862
 Alpha  occ. eigenvalues --  -10.26353 -10.25927 -10.25896 -10.25644 -10.24830
 Alpha  occ. eigenvalues --  -10.24004 -10.23894 -10.23656 -10.23483 -10.22774
 Alpha  occ. eigenvalues --  -10.22652 -10.22631 -10.22597 -10.22098 -10.21401
 Alpha  occ. eigenvalues --  -10.21356 -10.21341 -10.21046 -10.20703 -10.20543
 Alpha  occ. eigenvalues --  -10.20515  -1.17669  -1.15639  -1.15632  -1.14047
 Alpha  occ. eigenvalues --   -1.12675  -1.12535  -1.11833  -1.09883  -1.08700
 Alpha  occ. eigenvalues --   -1.08420  -1.08058  -1.07323  -1.06715  -1.06382
 Alpha  occ. eigenvalues --   -1.05277  -1.04057  -1.02971  -1.02142  -1.00465
 Alpha  occ. eigenvalues --   -0.98394  -0.97265  -0.96704  -0.96438  -0.96155
 Alpha  occ. eigenvalues --   -0.95726  -0.94501  -0.92167  -0.89620  -0.88247
 Alpha  occ. eigenvalues --   -0.87303  -0.85729  -0.85021  -0.84404  -0.83563
 Alpha  occ. eigenvalues --   -0.82803  -0.82427  -0.81663  -0.80482  -0.79439
 Alpha  occ. eigenvalues --   -0.79054  -0.77809  -0.76650  -0.75518  -0.74937
 Alpha  occ. eigenvalues --   -0.74542  -0.73405  -0.73212  -0.73022  -0.72371
 Alpha  occ. eigenvalues --   -0.72175  -0.71937  -0.71400  -0.70959  -0.70674
 Alpha  occ. eigenvalues --   -0.70059  -0.69644  -0.67996  -0.67267  -0.66557
 Alpha  occ. eigenvalues --   -0.66455  -0.66161  -0.65763  -0.65440  -0.65161
 Alpha  occ. eigenvalues --   -0.64695  -0.64224  -0.63848  -0.63494  -0.63433
 Alpha  occ. eigenvalues --   -0.62358  -0.62173  -0.61802  -0.61556  -0.61245
 Alpha  occ. eigenvalues --   -0.61015  -0.60255  -0.60160  -0.59662  -0.59160
 Alpha  occ. eigenvalues --   -0.58886  -0.58276  -0.57801  -0.57311  -0.56995
 Alpha  occ. eigenvalues --   -0.56314  -0.55461  -0.55140  -0.54869  -0.54719
 Alpha  occ. eigenvalues --   -0.54572  -0.54466  -0.54228  -0.54082  -0.53760
 Alpha  occ. eigenvalues --   -0.53661  -0.53600  -0.53084  -0.52868  -0.52372
 Alpha  occ. eigenvalues --   -0.51984  -0.51862  -0.51682  -0.51601  -0.51332
 Alpha  occ. eigenvalues --   -0.51025  -0.50921  -0.50849  -0.50636  -0.50546
 Alpha  occ. eigenvalues --   -0.50507  -0.50174  -0.49816  -0.49738  -0.49541
 Alpha  occ. eigenvalues --   -0.49436  -0.49050  -0.48896  -0.48665  -0.48142
 Alpha  occ. eigenvalues --   -0.48062  -0.47655  -0.47455  -0.47286  -0.46962
 Alpha  occ. eigenvalues --   -0.46927  -0.46746  -0.46484  -0.46328  -0.46100
 Alpha  occ. eigenvalues --   -0.45957  -0.45800  -0.45668  -0.45323  -0.45262
 Alpha  occ. eigenvalues --   -0.45161  -0.45068  -0.44709  -0.44544  -0.44512
 Alpha  occ. eigenvalues --   -0.44304  -0.43982  -0.43700  -0.43578  -0.43460
 Alpha  occ. eigenvalues --   -0.43384  -0.43091  -0.42718  -0.42505  -0.42335
 Alpha  occ. eigenvalues --   -0.42165  -0.41960  -0.41812  -0.41617  -0.41414
 Alpha  occ. eigenvalues --   -0.41363  -0.40949  -0.40773  -0.40259  -0.40108
 Alpha  occ. eigenvalues --   -0.39793  -0.39708  -0.39558  -0.39380  -0.39258
 Alpha  occ. eigenvalues --   -0.39203  -0.39103  -0.38965  -0.38555  -0.37759
 Alpha  occ. eigenvalues --   -0.37664  -0.37468  -0.37421  -0.37236  -0.37192
 Alpha  occ. eigenvalues --   -0.37154  -0.37050  -0.36529  -0.36389  -0.36353
 Alpha  occ. eigenvalues --   -0.36151  -0.35839  -0.35700  -0.35644  -0.35381
 Alpha  occ. eigenvalues --   -0.34124  -0.33975  -0.33587  -0.32504  -0.32184
 Alpha  occ. eigenvalues --   -0.32054  -0.31582  -0.31490  -0.31019  -0.30935
 Alpha  occ. eigenvalues --   -0.30637  -0.30361  -0.30205  -0.29922  -0.29520
 Alpha  occ. eigenvalues --   -0.28978  -0.28189  -0.27974
 Alpha virt. eigenvalues --   -0.11891  -0.11157  -0.08471  -0.07902  -0.06421
 Alpha virt. eigenvalues --   -0.04279  -0.03942  -0.03718  -0.03499  -0.03198
 Alpha virt. eigenvalues --   -0.03142  -0.02511  -0.02052  -0.01965  -0.01393

 Mulliken charges:
               1
     1  N   -0.745989
     2  H    0.449270
     3  H    0.403252
     4  H    0.412374
     5  C   -0.109043
     6  H    0.206706
     7  C    0.653455
     8  C   -0.465028
     9  H    0.212146
    10  H    0.199410
    11  H    0.181429
    12  O   -0.532080
    13  N   -0.577549
    14  H    0.358682
    15  C   -0.086360
    16  H    0.202762
    17  C    0.621588
    18  C   -0.396604
    19  H    0.220864
    20  H    0.206509
    21  O   -0.513613
    22  C    0.641091
    23  N   -0.720940
    24  H    0.360080
    25  H    0.375694
    26  O   -0.587341
    27  N   -0.571244
    28  H    0.341793
    29  C   -0.093747
    30  H    0.194546
    31  C    0.620343
    32  C   -0.283222
    33  H    0.176825
    34  H    0.178077
    35  O   -0.559884
    36  C   -0.364744
    37  H    0.180704
    38  H    0.196466
    39  C    0.567058
    40  O   -0.443549
    41  O   -0.564241
    42  N   -0.582486
    43  H    0.362065
    44  C   -0.088040
    45  H    0.186727
    46  C    0.637549
    47  C   -0.255178
    48  H    0.152528
    49  H    0.149801
    50  O   -0.553530
    51  C   -0.072492
    52  H    0.122315
    53  C   -0.444957
    54  H    0.153660
    55  H    0.150256
    56  H    0.133351
    57  C   -0.474385
    58  H    0.150346
    59  H    0.175410
    60  H    0.115463
    61  N   -0.618700
    62  H    0.355354
    63  C   -0.062699
    64  H    0.176021
    65  C    0.633298
    66  C   -0.252744
    67  H    0.155051
    68  H    0.147785
    69  O   -0.549029
    70  C   -0.116282
    71  H    0.182917
    72  C   -0.458888
    73  H    0.152879
    74  H    0.124817
    75  H    0.154119
    76  C   -0.442726
    77  H    0.134023
    78  H    0.148439
    79  H    0.146862
    80  N   -0.616399
    81  H    0.349313
    82  C   -0.059083
    83  H    0.172937
    84  C    0.666309
    85  C   -0.104756
    86  H    0.132723
    87  O   -0.544133
    88  C   -0.272113
    89  H    0.135806
    90  H    0.177067
    91  C   -0.481668
    92  H    0.204030
    93  H    0.129793
    94  H    0.147016
    95  C   -0.468615
    96  H    0.150469
    97  H    0.140832
    98  H    0.155389
    99  N   -0.636257
   100  H    0.387017
   101  C   -0.022512
   102  H    0.158826
   103  C    0.641921
   104  C   -0.424548
   105  H    0.189531
   106  H    0.199965
   107  O   -0.521181
   108  C    0.613349
   109  N   -0.743712
   110  H    0.352734
   111  H    0.349382
   112  O   -0.521539
   113  N   -0.583345
   114  H    0.336981
   115  C   -0.089937
   116  H    0.181952
   117  C    0.635209
   118  C   -0.070752
   119  H    0.154128
   120  O   -0.565207
   121  C   -0.464303
   122  H    0.161298
   123  H    0.152205
   124  H    0.141961
   125  C   -0.468419
   126  H    0.157970
   127  H    0.155785
   128  H    0.147180
   129  N   -0.608458
   130  H    0.357484
   131  C   -0.032680
   132  H    0.184899
   133  C    0.602765
   134  C   -0.266167
   135  H    0.163806
   136  H    0.157279
   137  O   -0.607416
   138  C   -0.286315
   139  H    0.149243
   140  H    0.144544
   141  C   -0.281675
   142  H    0.157607
   143  H    0.145201
   144  C   -0.160859
   145  H    0.144694
   146  H    0.185073
   147  N   -0.772280
   148  H    0.336007
   149  H    0.325448
   150  H    0.455694
   151  O   -0.505763
   152  H    0.416426
 Sum of Mulliken charges =   1.00000

 Dipole moment (field-independent basis, Debye):
    X=            -14.5982    Y=            -20.0244    Z=            -27.3869  Tot=             36.9341
 Quadrupole moment (field-independent basis, Debye-Ang):
   XX=            -37.3027   YY=           -267.2242   ZZ=           -135.1788
   XY=            208.7885   XZ=            287.0058   YZ=            196.0696

 Normal termination of Gaussian 16 at Mon Jul  4 20:52:43 2022.
