 Gaussian 16, Revision C.01,
 Gaussian 16:  ES64L-G16RevC.01  3-Jul-2019

 ----------------------------------------------------------------------
 # B3LYP/6-31G* empiricaldispersion=gd3 guess=read geom=check nosymm in
 tegral(ultrafinegrid)
 ----------------------------------------------------------------------

 ------------------------------------------------------
 Candidate Structure: Conf:966 Charge calc in gas phase
 ------------------------------------------------------
 Structure from the checkpoint file:  "conf-966.chk"
 Charge =  1 Multiplicity = 1

                          Input orientation:
 ---------------------------------------------------------------------
 Center     Atomic      Atomic             Coordinates (Angstroms)
 Number     Number       Type             X           Y           Z
 ---------------------------------------------------------------------
      1          7           0       -9.381979   -3.404139   -4.886036
      2          1           0       -8.504226   -3.621406   -4.344821
      3          1           0       -9.837925   -4.251870   -5.233140
      4          1           0      -10.000255   -2.900592   -4.234468
      5          6           0       -9.011778   -2.427263   -5.987967
      6          1           0       -8.277514   -2.939220   -6.614345
      7          6           0       -8.380778   -1.284489   -5.167288
      8          6           0      -10.247472   -2.000951   -6.768529
      9          1           0       -9.951060   -1.314479   -7.566943
     10          1           0      -10.950058   -1.475700   -6.113589
     11          1           0      -10.748895   -2.857760   -7.231300
     12          8           0       -8.975643   -0.920462   -4.152949
     13          7           0       -7.179066   -0.838520   -5.563639
     14          1           0       -6.724253   -1.204470   -6.394272
     15          6           0       -6.268776   -0.221070   -4.612396
     16          1           0       -6.858927    0.385870   -3.922451
     17          6           0       -5.243250    0.603346   -5.407133
     18          6           0       -5.453179   -1.307427   -3.840634
     19          1           0       -4.775415   -0.805176   -3.146785
     20          1           0       -4.822766   -1.822625   -4.572495
     21          8           0       -4.871474    0.208487   -6.504633
     22          6           0       -6.300182   -2.369796   -3.159788
     23          7           0       -6.307110   -2.363570   -1.815430
     24          1           0       -6.809965   -3.090705   -1.323365
     25          1           0       -5.717602   -1.744428   -1.274387
     26          8           0       -6.934617   -3.214730   -3.819121
     27          7           0       -4.770663    1.712005   -4.776637
     28          1           0       -5.018919    1.783217   -3.796360
     29          6           0       -3.416352    2.185192   -5.065158
     30          1           0       -3.326243    2.346966   -6.141133
     31          6           0       -2.423750    1.094036   -4.602543
     32          6           0       -3.217717    3.508204   -4.288853
     33          1           0       -4.002279    4.199779   -4.616748
     34          1           0       -3.383479    3.307150   -3.221960
     35          8           0       -2.771936    0.254008   -3.765900
     36          6           0       -1.837495    4.191730   -4.395859
     37          1           0       -1.074399    3.552916   -3.938656
     38          1           0       -1.874447    5.130891   -3.838908
     39          6           0       -1.439340    4.471091   -5.823753
     40          8           0       -1.090628    3.618649   -6.628112
     41          8           0       -1.526361    5.768677   -6.155846
     42          7           0       -1.179050    1.156478   -5.106807
     43          1           0       -0.956650    1.913486   -5.754142
     44          6           0       -0.091092    0.448559   -4.439116
     45          1           0       -0.239540   -0.628932   -4.568519
     46          6           0       -0.124602    0.808751   -2.939854
     47          6           0        1.252744    0.889480   -5.044424
     48          1           0        1.286466    1.985701   -5.000800
     49          1           0        1.263114    0.606675   -6.105949
     50          8           0       -0.190152    1.984729   -2.575921
     51          6           0        2.508759    0.330589   -4.347381
     52          1           0        2.481105    0.647891   -3.295760
     53          6           0        2.583263   -1.202859   -4.379824
     54          1           0        2.553756   -1.575037   -5.411984
     55          1           0        1.767562   -1.676345   -3.823813
     56          1           0        3.517774   -1.549917   -3.925336
     57          6           0        3.763012    0.944695   -4.985379
     58          1           0        3.849835    0.651811   -6.039569
     59          1           0        3.739280    2.039647   -4.940718
     60          1           0        4.668080    0.607228   -4.468970
     61          7           0       -0.031287   -0.237769   -2.096121
     62          1           0       -0.004549   -1.182513   -2.457957
     63          6           0        0.075795   -0.126217   -0.645837
     64          1           0        0.289186    0.921673   -0.424773
     65          6           0        1.251968   -1.044565   -0.276520
     66          6           0       -1.212222   -0.594392    0.059689
     67          1           0       -1.287325   -1.678496   -0.094798
     68          1           0       -1.087244   -0.437979    1.140976
     69          8           0        1.220814   -2.231233   -0.612050
     70          6           0       -2.501252    0.091626   -0.428433
     71          1           0       -2.554504   -0.039551   -1.514385
     72          6           0       -3.727047   -0.596954    0.191962
     73          1           0       -3.732326   -0.507959    1.285628
     74          1           0       -3.745966   -1.669059   -0.049015
     75          1           0       -4.656301   -0.130054   -0.169268
     76          6           0       -2.516074    1.599491   -0.139623
     77          1           0       -2.413234    1.799651    0.935184
     78          1           0       -1.709478    2.112238   -0.671243
     79          1           0       -3.464482    2.045827   -0.467688
     80          7           0        2.289707   -0.464521    0.354007
     81          1           0        2.281216    0.515292    0.617692
     82          6           0        3.518567   -1.179051    0.671038
     83          1           0        3.246817   -2.134360    1.131779
     84          6           0        4.260737   -0.306667    1.694031
     85          6           0        4.344666   -1.470855   -0.621459
     86          1           0        3.620656   -1.952450   -1.290277
     87          8           0        3.952733    0.880491    1.859020
     88          6           0        5.503157   -2.465961   -0.418536
     89          1           0        5.963327   -2.618492   -1.403916
     90          1           0        6.283293   -2.010004    0.204463
     91          6           0        4.838555   -0.176894   -1.277873
     92          1           0        5.616574    0.303897   -0.677147
     93          1           0        4.026888    0.545400   -1.413988
     94          1           0        5.268025   -0.389576   -2.263164
     95          6           0        5.094162   -3.831086    0.152771
     96          1           0        5.920576   -4.545051    0.069299
     97          1           0        4.235894   -4.241524   -0.392857
     98          1           0        4.822602   -3.787617    1.213497
     99          7           0        5.258690   -0.919802    2.364594
    100          1           0        5.277665   -1.938336    2.364942
    101          6           0        5.907152   -0.306171    3.528122
    102          1           0        5.141337    0.236251    4.097531
    103          6           0        7.008244    0.697518    3.080992
    104          6           0        6.564413   -1.389914    4.400400
    105          1           0        6.941788   -0.912073    5.308818
    106          1           0        7.439487   -1.768026    3.861837
    107          8           0        8.199376    0.398315    3.122060
    108          6           0        5.655599   -2.572460    4.701240
    109          7           0        5.418426   -2.838178    6.011246
    110          1           0        5.879487   -2.340331    6.757450
    111          1           0        4.881135   -3.663249    6.241577
    112          8           0        5.164389   -3.258590    3.801419
    113          7           0        6.529020    1.886231    2.659293
    114          1           0        5.524705    2.038570    2.628746
    115          6           0        7.382067    2.961193    2.190643
    116          1           0        8.376479    2.792045    2.616312
    117          6           0        6.799133    4.284215    2.707860
    118          6           0        7.507806    2.997317    0.637601
    119          1           0        8.168692    3.844483    0.402811
    120          8           0        5.611539    4.397769    3.007061
    121          6           0        8.174142    1.716307    0.119467
    122          1           0        7.560500    0.837446    0.342163
    123          1           0        8.307821    1.768656   -0.967114
    124          1           0        9.151378    1.553659    0.584729
    125          6           0        6.150012    3.244779   -0.036972
    126          1           0        5.428410    2.467628    0.236587
    127          1           0        6.260452    3.235903   -1.127204
    128          1           0        5.720011    4.208158    0.255058
    129          7           0        7.678513    5.314127    2.754703
    130          1           0        8.630927    5.209751    2.423178
    131          6           0        7.265244    6.677226    3.041223
    132          1           0        6.342118    6.896722    2.491616
    133          6           0        8.377783    7.603179    2.576864
    134          6           0        6.979586    6.908512    4.548638
    135          1           0        6.273361    6.122966    4.834387
    136          1           0        6.455048    7.864873    4.648468
    137          8           0        8.089703    8.881832    2.780927
    138          6           0        8.200645    6.881339    5.496112
    139          1           0        8.894928    6.091921    5.176962
    140          1           0        7.830230    6.561174    6.476576
    141          6           0        8.965685    8.224544    5.697821
    142          1           0        8.304805    9.054521    5.421327
    143          1           0        9.162418    8.343242    6.769146
    144          6           0       10.313199    8.390449    4.944079
    145          1           0       11.138329    8.464869    5.665989
    146          1           0       10.514395    7.520358    4.316378
    147          7           0       10.303519    9.566876    4.032216
    148          1           0       11.166566    9.590887    3.490644
    149          1           0       10.270621   10.430403    4.573854
    150          1           0        8.975650    9.339957    3.030411
    151          8           0        9.456281    7.187033    2.177608
    152          1           0       -1.254789    5.848781   -7.091202
 ---------------------------------------------------------------------

 SCF Done:  E(RB3LYP) =  -3473.99558150     A.U. after    3 cycles

 Alpha  occ. eigenvalues --  -19.27404 -19.24331 -19.23995 -19.22051 -19.21468
 Alpha  occ. eigenvalues --  -19.19794 -19.19146 -19.17682 -19.17603 -19.17323
 Alpha  occ. eigenvalues --  -19.16882 -19.16479 -19.14931 -19.14763 -14.57964
 Alpha  occ. eigenvalues --  -14.48092 -14.47550 -14.45079 -14.42256 -14.42164
 Alpha  occ. eigenvalues --  -14.41791 -14.41105 -14.40942 -14.39097 -14.38873
 Alpha  occ. eigenvalues --  -14.38724 -10.41808 -10.41477 -10.40017 -10.39239
 Alpha  occ. eigenvalues --  -10.38442 -10.35770 -10.35057 -10.34927 -10.34690
 Alpha  occ. eigenvalues --  -10.34614 -10.34241 -10.33754 -10.32218 -10.31941
 Alpha  occ. eigenvalues --  -10.31842 -10.31503 -10.30209 -10.29622 -10.28901
 Alpha  occ. eigenvalues --  -10.28792 -10.28258 -10.28059 -10.26749 -10.26667
 Alpha  occ. eigenvalues --  -10.26218 -10.25549 -10.25048 -10.24834 -10.24750
 Alpha  occ. eigenvalues --  -10.24477 -10.24439 -10.24163 -10.23622 -10.22945
 Alpha  occ. eigenvalues --  -10.22570 -10.22439 -10.22374 -10.22185 -10.22128
 Alpha  occ. eigenvalues --  -10.22069 -10.21871 -10.21501 -10.20861 -10.20259
 Alpha  occ. eigenvalues --  -10.20190  -1.18435  -1.17277  -1.15061  -1.13583
 Alpha  occ. eigenvalues --   -1.12225  -1.12131  -1.11078  -1.09648  -1.09323
 Alpha  occ. eigenvalues --   -1.09230  -1.08976  -1.08209  -1.07089  -1.06387
 Alpha  occ. eigenvalues --   -1.04875  -1.03590  -1.02350  -1.01872  -0.99213
 Alpha  occ. eigenvalues --   -0.98645  -0.97944  -0.97527  -0.96327  -0.95768
 Alpha  occ. eigenvalues --   -0.95593  -0.94161  -0.91795  -0.89249  -0.87824
 Alpha  occ. eigenvalues --   -0.87137  -0.86501  -0.85720  -0.84153  -0.83184
 Alpha  occ. eigenvalues --   -0.82616  -0.82441  -0.81552  -0.80664  -0.79458
 Alpha  occ. eigenvalues --   -0.78924  -0.77661  -0.77482  -0.75986  -0.75023
 Alpha  occ. eigenvalues --   -0.74422  -0.73456  -0.73101  -0.72956  -0.72829
 Alpha  occ. eigenvalues --   -0.72168  -0.71701  -0.71389  -0.71239  -0.70804
 Alpha  occ. eigenvalues --   -0.69730  -0.69519  -0.68186  -0.67257  -0.66869
 Alpha  occ. eigenvalues --   -0.66729  -0.66157  -0.65558  -0.65397  -0.64725
 Alpha  occ. eigenvalues --   -0.64341  -0.64224  -0.64217  -0.63435  -0.62958
 Alpha  occ. eigenvalues --   -0.62177  -0.62081  -0.61802  -0.61528  -0.60932
 Alpha  occ. eigenvalues --   -0.60299  -0.59874  -0.59796  -0.59726  -0.59462
 Alpha  occ. eigenvalues --   -0.58757  -0.58552  -0.58228  -0.57324  -0.57074
 Alpha  occ. eigenvalues --   -0.56885  -0.56473  -0.56157  -0.55105  -0.54816
 Alpha  occ. eigenvalues --   -0.54662  -0.54405  -0.54285  -0.54122  -0.53651
 Alpha  occ. eigenvalues --   -0.53526  -0.53423  -0.53347  -0.53039  -0.52697
 Alpha  occ. eigenvalues --   -0.52245  -0.52100  -0.51954  -0.51856  -0.51384
 Alpha  occ. eigenvalues --   -0.51262  -0.51118  -0.50654  -0.50597  -0.50433
 Alpha  occ. eigenvalues --   -0.50232  -0.50197  -0.49698  -0.49520  -0.49471
 Alpha  occ. eigenvalues --   -0.49201  -0.48843  -0.48610  -0.48530  -0.48323
 Alpha  occ. eigenvalues --   -0.48283  -0.47757  -0.47500  -0.47358  -0.47295
 Alpha  occ. eigenvalues --   -0.47106  -0.47069  -0.46873  -0.46855  -0.46527
 Alpha  occ. eigenvalues --   -0.46119  -0.45918  -0.45869  -0.45615  -0.45279
 Alpha  occ. eigenvalues --   -0.45133  -0.44933  -0.44607  -0.44500  -0.44364
 Alpha  occ. eigenvalues --   -0.44221  -0.44110  -0.44003  -0.43747  -0.43651
 Alpha  occ. eigenvalues --   -0.43264  -0.43163  -0.42929  -0.42734  -0.42568
 Alpha  occ. eigenvalues --   -0.42428  -0.42063  -0.41928  -0.41770  -0.41345
 Alpha  occ. eigenvalues --   -0.41270  -0.40991  -0.40672  -0.40487  -0.40469
 Alpha  occ. eigenvalues --   -0.40327  -0.39594  -0.39499  -0.39377  -0.39086
 Alpha  occ. eigenvalues --   -0.39028  -0.38616  -0.38458  -0.38370  -0.38232
 Alpha  occ. eigenvalues --   -0.38051  -0.37895  -0.37758  -0.37477  -0.37350
 Alpha  occ. eigenvalues --   -0.37216  -0.37070  -0.36881  -0.36815  -0.36561
 Alpha  occ. eigenvalues --   -0.36310  -0.36053  -0.35863  -0.35766  -0.35582
 Alpha  occ. eigenvalues --   -0.34583  -0.33697  -0.33313  -0.33166  -0.32970
 Alpha  occ. eigenvalues --   -0.32304  -0.32195  -0.31870  -0.31082  -0.30959
 Alpha  occ. eigenvalues --   -0.30794  -0.30338  -0.30283  -0.29569  -0.29245
 Alpha  occ. eigenvalues --   -0.28626  -0.27909  -0.27680
 Alpha virt. eigenvalues --   -0.11526  -0.10584  -0.08130  -0.07288  -0.07156
 Alpha virt. eigenvalues --   -0.05564  -0.04276  -0.03729  -0.03545  -0.03219
 Alpha virt. eigenvalues --   -0.03096  -0.02588  -0.01846  -0.01712  -0.01379

 Mulliken charges:
               1
     1  N   -0.746110
     2  H    0.448579
     3  H    0.402148
     4  H    0.411088
     5  C   -0.107292
     6  H    0.206654
     7  C    0.651475
     8  C   -0.464811
     9  H    0.210844
    10  H    0.198362
    11  H    0.180465
    12  O   -0.533874
    13  N   -0.576922
    14  H    0.358597
    15  C   -0.098496
    16  H    0.197537
    17  C    0.646560
    18  C   -0.370748
    19  H    0.211959
    20  H    0.208408
    21  O   -0.519276
    22  C    0.637808
    23  N   -0.735024
    24  H    0.356129
    25  H    0.377821
    26  O   -0.590398
    27  N   -0.582005
    28  H    0.332613
    29  C   -0.083900
    30  H    0.205643
    31  C    0.640269
    32  C   -0.303588
    33  H    0.177080
    34  H    0.167511
    35  O   -0.563328
    36  C   -0.388758
    37  H    0.240863
    38  H    0.186071
    39  C    0.594586
    40  O   -0.483431
    41  O   -0.542333
    42  N   -0.641122
    43  H    0.394338
    44  C   -0.013894
    45  H    0.155064
    46  C    0.641913
    47  C   -0.296386
    48  H    0.156736
    49  H    0.151959
    50  O   -0.551452
    51  C   -0.093478
    52  H    0.150121
    53  C   -0.454131
    54  H    0.143863
    55  H    0.137414
    56  H    0.159797
    57  C   -0.449389
    58  H    0.144617
    59  H    0.148032
    60  H    0.154732
    61  N   -0.588409
    62  H    0.350424
    63  C   -0.068464
    64  H    0.178364
    65  C    0.635685
    66  C   -0.261914
    67  H    0.152114
    68  H    0.142021
    69  O   -0.556442
    70  C   -0.100946
    71  H    0.180789
    72  C   -0.466017
    73  H    0.159975
    74  H    0.133674
    75  H    0.118530
    76  C   -0.469909
    77  H    0.140197
    78  H    0.190078
    79  H    0.118188
    80  N   -0.624054
    81  H    0.359167
    82  C   -0.056672
    83  H    0.188615
    84  C    0.619603
    85  C   -0.087039
    86  H    0.166187
    87  O   -0.556770
    88  C   -0.272552
    89  H    0.138422
    90  H    0.148007
    91  C   -0.490742
    92  H    0.173657
    93  H    0.152616
    94  H    0.149714
    95  C   -0.479705
    96  H    0.151314
    97  H    0.154895
    98  H    0.172449
    99  N   -0.628079
   100  H    0.392411
   101  C   -0.054687
   102  H    0.175097
   103  C    0.636293
   104  C   -0.396603
   105  H    0.161930
   106  H    0.218148
   107  O   -0.537101
   108  C    0.612510
   109  N   -0.741675
   110  H    0.349340
   111  H    0.351803
   112  O   -0.528389
   113  N   -0.611624
   114  H    0.381688
   115  C   -0.067553
   116  H    0.172555
   117  C    0.632437
   118  C   -0.075548
   119  H    0.131304
   120  O   -0.545615
   121  C   -0.452016
   122  H    0.160005
   123  H    0.139070
   124  H    0.159909
   125  C   -0.476301
   126  H    0.167059
   127  H    0.138871
   128  H    0.159641
   129  N   -0.621016
   130  H    0.350954
   131  C   -0.028622
   132  H    0.182495
   133  C    0.598863
   134  C   -0.266981
   135  H    0.174825
   136  H    0.154409
   137  O   -0.608595
   138  C   -0.285889
   139  H    0.145103
   140  H    0.144404
   141  C   -0.281369
   142  H    0.157202
   143  H    0.143468
   144  C   -0.160624
   145  H    0.142699
   146  H    0.185302
   147  N   -0.771172
   148  H    0.334312
   149  H    0.323905
   150  H    0.454409
   151  O   -0.506752
   152  H    0.421231
 Sum of Mulliken charges =   1.00000

 Dipole moment (field-independent basis, Debye):
    X=            -24.2022    Y=             -3.6286    Z=            -12.0912  Tot=             27.2967
 Quadrupole moment (field-independent basis, Debye-Ang):
   XX=            -57.5264   YY=           -313.7297   ZZ=           -245.5061
   XY=            153.8716   XZ=            215.5979   YZ=             49.4553

 Normal termination of Gaussian 16 at Mon Jul  4 20:53:02 2022.
