 Gaussian 16, Revision C.01,
 Gaussian 16:  ES64L-G16RevC.01  3-Jul-2019

 ----------------------------------------------------------------------
 # B3LYP/6-31G* empiricaldispersion=gd3 guess=read geom=check nosymm in
 tegral(ultrafinegrid)
 ----------------------------------------------------------------------

 ------------------------------------------------------
 Candidate Structure: Conf:234 Charge calc in gas phase
 ------------------------------------------------------
 Structure from the checkpoint file:  "conf-234.chk"
 Charge =  1 Multiplicity = 1

                          Input orientation:
 ---------------------------------------------------------------------
 Center     Atomic      Atomic             Coordinates (Angstroms)
 Number     Number       Type             X           Y           Z
 ---------------------------------------------------------------------
      1          7           0       -8.658817   -5.763376   -4.722758
      2          1           0       -7.723127   -6.183994   -4.869398
      3          1           0       -9.395800   -6.468539   -4.796888
      4          1           0       -8.652978   -5.375479   -3.739150
      5          6           0       -8.789947   -4.665391   -5.751017
      6          1           0       -9.064093   -5.150837   -6.694123
      7          6           0       -7.345628   -4.128562   -5.896657
      8          6           0       -9.855041   -3.654863   -5.334493
      9          1           0       -9.975512   -2.885468   -6.101977
     10          1           0       -9.588751   -3.163570   -4.394131
     11          1           0      -10.825608   -4.145250   -5.209927
     12          8           0       -6.413041   -4.855410   -5.511864
     13          7           0       -7.206267   -2.923284   -6.438037
     14          1           0       -7.996570   -2.295816   -6.643538
     15          6           0       -5.908020   -2.258300   -6.633208
     16          1           0       -5.181549   -3.019642   -6.937738
     17          6           0       -5.427272   -1.611171   -5.308416
     18          6           0       -6.040491   -1.188347   -7.726327
     19          1           0       -6.277117   -1.678315   -8.677599
     20          1           0       -5.078258   -0.684676   -7.836734
     21          8           0       -5.249492   -0.398096   -5.212930
     22          6           0       -7.170456   -0.197746   -7.434827
     23          7           0       -6.900129    1.106943   -7.627518
     24          1           0       -7.624040    1.775885   -7.396647
     25          1           0       -5.948260    1.442198   -7.664397
     26          8           0       -8.298186   -0.598346   -7.109707
     27          7           0       -5.265943   -2.483795   -4.289145
     28          1           0       -5.299609   -3.478707   -4.494998
     29          6           0       -5.000529   -2.069303   -2.911247
     30          1           0       -5.388677   -1.048853   -2.814924
     31          6           0       -3.479616   -2.047556   -2.638451
     32          6           0       -5.729177   -3.013052   -1.951150
     33          1           0       -5.381006   -4.036920   -2.131794
     34          1           0       -5.449188   -2.776072   -0.922732
     35          8           0       -2.956650   -2.852136   -1.869624
     36          6           0       -7.259404   -2.904542   -2.139507
     37          1           0       -7.509484   -2.896165   -3.203168
     38          1           0       -7.619545   -1.968544   -1.697891
     39          6           0       -7.995431   -4.050619   -1.503563
     40          8           0       -8.591094   -4.940810   -2.109468
     41          8           0       -7.929901   -4.034157   -0.175568
     42          7           0       -2.815933   -1.107949   -3.345121
     43          1           0       -3.345963   -0.456380   -3.914867
     44          6           0       -1.353411   -0.990955   -3.328442
     45          1           0       -0.971263   -1.999603   -3.146362
     46          6           0       -0.896472   -0.102126   -2.150472
     47          6           0       -0.852191   -0.478244   -4.679965
     48          1           0       -1.267469    0.523539   -4.852908
     49          1           0       -1.262974   -1.145020   -5.452850
     50          8           0       -0.420341    1.014898   -2.317862
     51          6           0        0.682359   -0.410588   -4.830732
     52          1           0        1.036521    0.383820   -4.167308
     53          6           0        1.379222   -1.717017   -4.422964
     54          1           0        0.959231   -2.577353   -4.963289
     55          1           0        1.304661   -1.905437   -3.346735
     56          1           0        2.447095   -1.666468   -4.663080
     57          6           0        1.034722   -0.022524   -6.273173
     58          1           0        0.727988   -0.806065   -6.979705
     59          1           0        0.542565    0.911897   -6.570675
     60          1           0        2.115587    0.119072   -6.384511
     61          7           0       -1.063339   -0.669389   -0.917847
     62          1           0       -1.269070   -1.663639   -0.920485
     63          6           0       -0.199013   -0.211250    0.164714
     64          1           0       -0.301407    0.874426    0.229175
     65          6           0        1.254736   -0.583454   -0.208560
     66          6           0       -0.613359   -0.882542    1.484924
     67          1           0       -1.684049   -0.690392    1.641777
     68          1           0       -0.498035   -1.968314    1.358091
     69          8           0        1.491904   -1.611768   -0.842433
     70          6           0        0.172741   -0.438111    2.734645
     71          1           0        1.242171   -0.603764    2.551157
     72          6           0       -0.024133    1.051289    3.053974
     73          1           0       -1.083727    1.272602    3.239242
     74          1           0        0.314153    1.706438    2.243943
     75          1           0        0.542776    1.331812    3.948115
     76          6           0       -0.236834   -1.301122    3.936813
     77          1           0       -1.303097   -1.172554    4.166331
     78          1           0       -0.061068   -2.365778    3.742845
     79          1           0        0.332105   -1.023341    4.831389
     80          7           0        2.198729    0.281678    0.213933
     81          1           0        1.952522    1.074065    0.795286
     82          6           0        3.629418    0.051953    0.078945
     83          1           0        3.771544   -1.011412   -0.137135
     84          6           0        4.234925    0.417496    1.440660
     85          6           0        4.252382    0.889331   -1.079712
     86          1           0        4.135802    1.948634   -0.803122
     87          8           0        3.736527    1.316216    2.131038
     88          6           0        3.466069    0.643871   -2.384554
     89          1           0        3.538684   -0.419521   -2.648928
     90          1           0        2.404572    0.842670   -2.203210
     91          6           0        5.750560    0.583730   -1.231290
     92          1           0        5.913531   -0.482509   -1.436424
     93          1           0        6.321657    0.849749   -0.339505
     94          1           0        6.175103    1.149190   -2.066083
     95          6           0        3.923221    1.508474   -3.564723
     96          1           0        3.255164    1.370437   -4.423037
     97          1           0        4.937421    1.261501   -3.895242
     98          1           0        3.907775    2.573952   -3.302122
     99          7           0        5.306452   -0.298824    1.833204
    100          1           0        5.825161   -0.896364    1.182811
    101          6           0        6.069925    0.120130    2.992087
    102          1           0        5.390148    0.165896    3.851881
    103          6           0        6.662340    1.526490    2.762093
    104          6           0        7.184540   -0.903941    3.294688
    105          1           0        6.702525   -1.854484    3.551144
    106          1           0        7.770016   -0.569810    4.154032
    107          8           0        7.075197    1.898010    1.674071
    108          6           0        8.082412   -1.178078    2.081958
    109          7           0        9.396797   -1.011923    2.289295
    110          1           0        9.758680   -0.597285    3.162124
    111          1           0       10.014064   -1.166130    1.503445
    112          8           0        7.590824   -1.563989    1.009906
    113          7           0        6.743380    2.301406    3.891186
    114          1           0        6.245288    1.991978    4.714957
    115          6           0        7.198997    3.682599    3.852047
    116          1           0        7.570181    3.821781    2.828534
    117          6           0        8.422600    3.883817    4.778631
    118          6           0        6.048499    4.705762    4.088161
    119          1           0        5.889130    4.792967    5.175067
    120          8           0        8.757552    5.055393    5.105654
    121          6           0        6.411388    6.094643    3.534535
    122          1           0        6.531976    6.043338    2.444994
    123          1           0        5.605599    6.808888    3.742457
    124          1           0        7.341889    6.470625    3.960950
    125          6           0        4.744608    4.223705    3.431076
    126          1           0        4.894134    4.043817    2.360784
    127          1           0        3.967120    4.988253    3.543172
    128          1           0        4.364843    3.288838    3.848320
    129          7           0        9.044450    2.758027    5.128507
    130          1           0        8.708430    1.878975    4.706734
    131          6           0       10.397860    2.480712    5.641923
    132          1           0       11.102984    3.161632    5.148940
    133          6           0       10.753369    1.010143    5.207422
    134          6           0       10.556564    2.650755    7.171015
    135          1           0       11.619607    2.531853    7.398795
    136          1           0       10.010947    1.864442    7.705999
    137          8           0       11.894028    0.640058    5.487044
    138          6           0       10.007691    4.034513    7.482889
    139          1           0        8.928520    3.968665    7.300053
    140          1           0       10.409996    4.662782    6.685153
    141          6           0       10.180116    4.826913    8.775875
    142          1           0        9.905021    4.261089    9.673460
    143          1           0       11.214320    5.166651    8.912187
    144          6           0        9.219610    6.027820    8.676358
    145          1           0        8.187308    5.709491    8.843501
    146          1           0        9.456070    6.838456    9.370332
    147          7           0        9.218135    6.632223    7.270993
    148          1           0        8.557271    7.411785    7.209505
    149          1           0        8.971324    5.931865    6.489332
    150          1           0       10.144034    6.999354    7.029341
    151          8           0        9.794678    0.391712    4.634756
    152          1           0       -8.398623   -4.817199    0.174450
 ---------------------------------------------------------------------

 SCF Done:  E(RB3LYP) =  -3473.94857060     A.U. after    3 cycles

 Alpha  occ. eigenvalues --  -19.32522 -19.28225 -19.26633 -19.23015 -19.22693
 Alpha  occ. eigenvalues --  -19.19188 -19.17365 -19.15855 -19.14796 -19.14210
 Alpha  occ. eigenvalues --  -19.13892 -19.11809 -19.09651 -19.07944 -14.58016
 Alpha  occ. eigenvalues --  -14.54193 -14.49367 -14.46658 -14.46002 -14.43038
 Alpha  occ. eigenvalues --  -14.39755 -14.38981 -14.38840 -14.38373 -14.37357
 Alpha  occ. eigenvalues --  -14.34640 -10.45838 -10.43615 -10.40565 -10.40266
 Alpha  occ. eigenvalues --  -10.39920 -10.36273 -10.36030 -10.34656 -10.33858
 Alpha  occ. eigenvalues --  -10.33171 -10.33105 -10.32467 -10.31878 -10.31801
 Alpha  occ. eigenvalues --  -10.31175 -10.30986 -10.30812 -10.30088 -10.29502
 Alpha  occ. eigenvalues --  -10.28105 -10.27680 -10.27099 -10.26993 -10.26472
 Alpha  occ. eigenvalues --  -10.26332 -10.24964 -10.24430 -10.24308 -10.23550
 Alpha  occ. eigenvalues --  -10.23177 -10.22586 -10.22565 -10.22329 -10.21915
 Alpha  occ. eigenvalues --  -10.21424 -10.20966 -10.20924 -10.20850 -10.20832
 Alpha  occ. eigenvalues --  -10.20724 -10.19994 -10.19718 -10.18991 -10.18956
 Alpha  occ. eigenvalues --  -10.17511  -1.24025  -1.18793  -1.14968  -1.14856
 Alpha  occ. eigenvalues --   -1.14101  -1.12604  -1.10947  -1.08921  -1.07687
 Alpha  occ. eigenvalues --   -1.07618  -1.07000  -1.06327  -1.05998  -1.05269
 Alpha  occ. eigenvalues --   -1.03385  -1.03244  -1.02290  -1.00995  -0.99357
 Alpha  occ. eigenvalues --   -0.97217  -0.95758  -0.95090  -0.94989  -0.94497
 Alpha  occ. eigenvalues --   -0.93453  -0.93259  -0.91587  -0.89959  -0.89396
 Alpha  occ. eigenvalues --   -0.88344  -0.85874  -0.84793  -0.84313  -0.83930
 Alpha  occ. eigenvalues --   -0.82489  -0.82380  -0.81404  -0.80093  -0.79962
 Alpha  occ. eigenvalues --   -0.78760  -0.77696  -0.76679  -0.75481  -0.75286
 Alpha  occ. eigenvalues --   -0.74415  -0.73459  -0.73115  -0.71925  -0.71907
 Alpha  occ. eigenvalues --   -0.71600  -0.71335  -0.71230  -0.70616  -0.70221
 Alpha  occ. eigenvalues --   -0.70122  -0.69764  -0.69256  -0.68978  -0.67653
 Alpha  occ. eigenvalues --   -0.67290  -0.67174  -0.66286  -0.65445  -0.65045
 Alpha  occ. eigenvalues --   -0.64689  -0.63940  -0.63377  -0.63311  -0.62619
 Alpha  occ. eigenvalues --   -0.62260  -0.62025  -0.61502  -0.60982  -0.60790
 Alpha  occ. eigenvalues --   -0.60522  -0.60400  -0.60113  -0.59948  -0.59835
 Alpha  occ. eigenvalues --   -0.59143  -0.58799  -0.58618  -0.58239  -0.58057
 Alpha  occ. eigenvalues --   -0.57623  -0.57297  -0.57188  -0.56533  -0.56095
 Alpha  occ. eigenvalues --   -0.55761  -0.55563  -0.54608  -0.54477  -0.54117
 Alpha  occ. eigenvalues --   -0.54030  -0.53657  -0.53509  -0.53007  -0.52623
 Alpha  occ. eigenvalues --   -0.52535  -0.52187  -0.51851  -0.51705  -0.51485
 Alpha  occ. eigenvalues --   -0.51034  -0.50794  -0.50621  -0.50504  -0.50225
 Alpha  occ. eigenvalues --   -0.50202  -0.49824  -0.49561  -0.49314  -0.49191
 Alpha  occ. eigenvalues --   -0.48818  -0.48689  -0.48477  -0.48377  -0.47975
 Alpha  occ. eigenvalues --   -0.47810  -0.47660  -0.47328  -0.47047  -0.46922
 Alpha  occ. eigenvalues --   -0.46670  -0.46503  -0.46164  -0.46038  -0.45861
 Alpha  occ. eigenvalues --   -0.45586  -0.45139  -0.45087  -0.44933  -0.44702
 Alpha  occ. eigenvalues --   -0.44508  -0.44314  -0.44034  -0.43707  -0.43607
 Alpha  occ. eigenvalues --   -0.43180  -0.43039  -0.43015  -0.42205  -0.41937
 Alpha  occ. eigenvalues --   -0.41728  -0.41672  -0.41640  -0.41546  -0.41407
 Alpha  occ. eigenvalues --   -0.41310  -0.41081  -0.40880  -0.40654  -0.40602
 Alpha  occ. eigenvalues --   -0.40443  -0.40029  -0.39963  -0.39951  -0.39858
 Alpha  occ. eigenvalues --   -0.39399  -0.39101  -0.38950  -0.38632  -0.38504
 Alpha  occ. eigenvalues --   -0.38384  -0.37852  -0.37702  -0.37494  -0.37345
 Alpha  occ. eigenvalues --   -0.37225  -0.37084  -0.36937  -0.36576  -0.36533
 Alpha  occ. eigenvalues --   -0.36488  -0.36468  -0.36115  -0.36027  -0.35932
 Alpha  occ. eigenvalues --   -0.35900  -0.35806  -0.35557  -0.34434  -0.33764
 Alpha  occ. eigenvalues --   -0.33526  -0.33248  -0.32180  -0.31828  -0.30562
 Alpha  occ. eigenvalues --   -0.30123  -0.29648  -0.28744  -0.28502  -0.28398
 Alpha  occ. eigenvalues --   -0.27456  -0.27221  -0.26953  -0.26421  -0.26006
 Alpha  occ. eigenvalues --   -0.24682  -0.24372  -0.22154
 Alpha virt. eigenvalues --   -0.13200  -0.12599  -0.09467  -0.08317  -0.08119
 Alpha virt. eigenvalues --   -0.06238  -0.05644  -0.04356  -0.03356  -0.03271
 Alpha virt. eigenvalues --   -0.02686  -0.02433  -0.01370  -0.01218  -0.01071

 Mulliken charges:
               1
     1  N   -0.769688
     2  H    0.419206
     3  H    0.404780
     4  H    0.448488
     5  C   -0.120625
     6  H    0.230137
     7  C    0.658979
     8  C   -0.488785
     9  H    0.224419
    10  H    0.193008
    11  H    0.190371
    12  O   -0.564430
    13  N   -0.626624
    14  H    0.410581
    15  C   -0.097678
    16  H    0.209758
    17  C    0.642523
    18  C   -0.377424
    19  H    0.200873
    20  H    0.189289
    21  O   -0.529955
    22  C    0.637999
    23  N   -0.721308
    24  H    0.362597
    25  H    0.365904
    26  O   -0.552539
    27  N   -0.620334
    28  H    0.376307
    29  C   -0.082056
    30  H    0.191165
    31  C    0.646619
    32  C   -0.292160
    33  H    0.174464
    34  H    0.207746
    35  O   -0.533346
    36  C   -0.354965
    37  H    0.156979
    38  H    0.204331
    39  C    0.603020
    40  O   -0.521226
    41  O   -0.514526
    42  N   -0.619122
    43  H    0.356406
    44  C   -0.075836
    45  H    0.193518
    46  C    0.641418
    47  C   -0.268818
    48  H    0.141698
    49  H    0.114685
    50  O   -0.523005
    51  C   -0.089103
    52  H    0.184528
    53  C   -0.480014
    54  H    0.120083
    55  H    0.193970
    56  H    0.151561
    57  C   -0.449088
    58  H    0.127102
    59  H    0.135098
    60  H    0.155420
    61  N   -0.605031
    62  H    0.355773
    63  C   -0.059016
    64  H    0.168752
    65  C    0.628317
    66  C   -0.274437
    67  H    0.136577
    68  H    0.147077
    69  O   -0.553259
    70  C   -0.088797
    71  H    0.151671
    72  C   -0.444540
    73  H    0.134135
    74  H    0.142644
    75  H    0.152813
    76  C   -0.442706
    77  H    0.133794
    78  H    0.145447
    79  H    0.145403
    80  N   -0.602524
    81  H    0.353121
    82  C   -0.065960
    83  H    0.178104
    84  C    0.638091
    85  C   -0.068962
    86  H    0.124952
    87  O   -0.576809
    88  C   -0.267665
    89  H    0.142237
    90  H    0.161272
    91  C   -0.500860
    92  H    0.146765
    93  H    0.205995
    94  H    0.144141
    95  C   -0.460377
    96  H    0.142580
    97  H    0.147831
    98  H    0.139386
    99  N   -0.613507
   100  H    0.391993
   101  C   -0.067647
   102  H    0.145065
   103  C    0.664544
   104  C   -0.398015
   105  H    0.176816
   106  H    0.204610
   107  O   -0.507711
   108  C    0.607170
   109  N   -0.763418
   110  H    0.409576
   111  H    0.330107
   112  O   -0.556986
   113  N   -0.648386
   114  H    0.328614
   115  C   -0.031915
   116  H    0.212832
   117  C    0.612649
   118  C   -0.080026
   119  H    0.096424
   120  O   -0.621252
   121  C   -0.453933
   122  H    0.153572
   123  H    0.133293
   124  H    0.151745
   125  C   -0.444043
   126  H    0.171062
   127  H    0.133451
   128  H    0.158088
   129  N   -0.607791
   130  H    0.393431
   131  C   -0.076329
   132  H    0.159981
   133  C    0.596389
   134  C   -0.260788
   135  H    0.176069
   136  H    0.149258
   137  O   -0.549326
   138  C   -0.285965
   139  H    0.140270
   140  H    0.138154
   141  C   -0.275584
   142  H    0.180656
   143  H    0.164764
   144  C   -0.188465
   145  H    0.206655
   146  H    0.195285
   147  N   -0.774999
   148  H    0.400045
   149  H    0.463626
   150  H    0.401537
   151  O   -0.626271
   152  H    0.436318
 Sum of Mulliken charges =   1.00000

 Dipole moment (field-independent basis, Debye):
    X=            -34.6982    Y=              0.6331    Z=             -6.1878  Tot=             35.2513
 Quadrupole moment (field-independent basis, Debye-Ang):
   XX=            -97.6352   YY=           -202.2291   ZZ=           -125.1746
   XY=            335.8394   XZ=            299.4445   YZ=            220.2610

 Normal termination of Gaussian 16 at Mon Jul  4 20:53:03 2022.
