 Gaussian 16, Revision C.01,
 Gaussian 16:  ES64L-G16RevC.01  3-Jul-2019

 ----------------------------------------------------------------------
 # B3LYP/6-31G* empiricaldispersion=gd3 guess=read geom=check nosymm in
 tegral(ultrafinegrid)
 ----------------------------------------------------------------------

 ------------------------------------------------------
 Candidate Structure: Conf:684 Charge calc in gas phase
 ------------------------------------------------------
 Structure from the checkpoint file:  "conf-684.chk"
 Charge =  1 Multiplicity = 1

                          Input orientation:
 ---------------------------------------------------------------------
 Center     Atomic      Atomic             Coordinates (Angstroms)
 Number     Number       Type             X           Y           Z
 ---------------------------------------------------------------------
      1          7           0       -8.501000   -1.748656  -10.782091
      2          1           0       -8.068529   -0.794874  -10.894375
      3          1           0       -9.463360   -1.771535  -11.129737
      4          1           0       -7.910569   -2.402309  -11.315256
      5          6           0       -8.385193   -2.129182   -9.317822
      6          1           0       -8.920366   -1.358545   -8.758185
      7          6           0       -6.860185   -2.043556   -9.098846
      8          6           0       -8.949444   -3.523006   -9.076330
      9          1           0       -8.874622   -3.763137   -8.011674
     10          1           0       -8.377074   -4.271251   -9.634038
     11          1           0      -10.005739   -3.585766   -9.358926
     12          8           0       -6.130375   -2.549064   -9.948111
     13          7           0       -6.448143   -1.348039   -8.018717
     14          1           0       -7.145566   -0.866468   -7.442097
     15          6           0       -5.143311   -0.683727   -8.039505
     16          1           0       -4.457789   -1.322266   -8.605138
     17          6           0       -4.610270   -0.491982   -6.604760
     18          6           0       -5.255763    0.714087   -8.706475
     19          1           0       -4.273627    1.189994   -8.668194
     20          1           0       -5.940692    1.321481   -8.106953
     21          8           0       -3.936808    0.491180   -6.308811
     22          6           0       -5.821545    0.657391  -10.115830
     23          7           0       -4.960378    0.860429  -11.127855
     24          1           0       -5.302889    0.857984  -12.079939
     25          1           0       -3.988342    1.087290  -10.973140
     26          8           0       -7.030086    0.433735  -10.313707
     27          7           0       -4.982207   -1.439435   -5.713446
     28          1           0       -5.468298   -2.258481   -6.051514
     29          6           0       -4.891367   -1.217494   -4.267869
     30          1           0       -4.836771   -0.130044   -4.144744
     31          6           0       -3.594090   -1.804846   -3.670149
     32          6           0       -6.135631   -1.749550   -3.545415
     33          1           0       -6.040308   -2.828642   -3.391690
     34          1           0       -6.153164   -1.301049   -2.549100
     35          8           0       -3.613793   -2.670113   -2.802977
     36          6           0       -7.464935   -1.460135   -4.282836
     37          1           0       -8.294042   -1.610318   -3.581652
     38          1           0       -7.619261   -2.146878   -5.119341
     39          6           0       -7.575466   -0.060611   -4.842614
     40          8           0       -7.759870    0.221579   -6.020639
     41          8           0       -7.438598    0.876118   -3.897960
     42          7           0       -2.457054   -1.278235   -4.197552
     43          1           0       -2.551226   -0.417832   -4.728676
     44          6           0       -1.189121   -1.504190   -3.513466
     45          1           0       -1.038903   -2.585176   -3.444267
     46          6           0       -1.263026   -0.883707   -2.104758
     47          6           0       -0.048049   -0.840651   -4.305910
     48          1           0       -0.290090    0.227472   -4.395346
     49          1           0       -0.043725   -1.260447   -5.321449
     50          8           0       -1.767485    0.224135   -1.936410
     51          6           0        1.358630   -0.978342   -3.688220
     52          1           0        1.327334   -0.570603   -2.669090
     53          6           0        1.832882   -2.435790   -3.602898
     54          1           0        1.878065   -2.888128   -4.602174
     55          1           0        1.183458   -3.058517   -2.980144
     56          1           0        2.833106   -2.489110   -3.160430
     57          6           0        2.360805   -0.137776   -4.492322
     58          1           0        2.427509   -0.491821   -5.529283
     59          1           0        2.071856    0.919433   -4.513488
     60          1           0        3.363056   -0.204279   -4.054503
     61          7           0       -0.696192   -1.627624   -1.127813
     62          1           0       -0.232893   -2.495679   -1.367210
     63          6           0       -0.356154   -1.107641    0.189296
     64          1           0       -0.666852   -0.060689    0.202695
     65          6           0        1.171843   -1.233237    0.291819
     66          6           0       -1.054946   -1.898711    1.308886
     67          1           0       -0.627410   -2.909988    1.324067
     68          1           0       -0.797400   -1.432763    2.271189
     69          8           0        1.735298   -2.267631   -0.073101
     70          6           0       -2.586106   -1.984432    1.164000
     71          1           0       -2.801802   -2.467906    0.201203
     72          6           0       -3.162900   -2.861176    2.284414
     73          1           0       -2.982824   -2.409093    3.268740
     74          1           0       -2.710293   -3.860047    2.287595
     75          1           0       -4.246185   -2.983059    2.168731
     76          6           0       -3.249472   -0.598805    1.151178
     77          1           0       -2.996546   -0.034870    2.059725
     78          1           0       -2.944583   -0.010272    0.279944
     79          1           0       -4.341270   -0.697997    1.119624
     80          7           0        1.834214   -0.153083    0.757908
     81          1           0        1.353002    0.696486    1.029601
     82          6           0        3.286985   -0.088590    0.769080
     83          1           0        3.661926   -1.042178    1.151761
     84          6           0        3.672228    1.053869    1.710014
     85          6           0        3.843648    0.123126   -0.677764
     86          1           0        3.365497   -0.675368   -1.259226
     87          8           0        2.885941    1.963913    1.986156
     88          6           0        5.365873   -0.077129   -0.807296
     89          1           0        5.613877    0.048125   -1.869715
     90          1           0        5.903402    0.724265   -0.284302
     91          6           0        3.409584    1.477190   -1.253573
     92          1           0        3.872295    2.311038   -0.712756
     93          1           0        2.323513    1.606866   -1.201134
     94          1           0        3.705141    1.555381   -2.304854
     95          6           0        5.880013   -1.445828   -0.343005
     96          1           0        6.932573   -1.576083   -0.613190
     97          1           0        5.303259   -2.258242   -0.800932
     98          1           0        5.815544   -1.578152    0.744036
     99          7           0        4.941026    1.026522    2.175750
    100          1           0        5.595515    0.284221    1.947889
    101          6           0        5.514626    2.131267    2.908599
    102          1           0        5.123443    3.061840    2.482405
    103          6           0        7.045210    2.049902    2.715917
    104          6           0        5.104968    2.048362    4.410424
    105          1           0        5.354413    1.058164    4.796165
    106          1           0        4.016907    2.180429    4.449337
    107          8           0        7.583062    0.970709    2.473722
    108          6           0        5.793726    3.066967    5.294225
    109          7           0        5.620907    4.388658    5.025044
    110          1           0        5.068236    4.640095    4.213910
    111          1           0        6.472076    4.950672    5.147400
    112          8           0        6.506978    2.697738    6.243515
    113          7           0        7.677246    3.229857    2.848805
    114          1           0        7.156206    4.050343    3.131470
    115          6           0        9.115545    3.411753    3.007498
    116          1           0        9.550210    2.436650    3.245532
    117          6           0        9.278821    4.374696    4.206399
    118          6           0        9.756371    3.943804    1.691786
    119          1           0        9.366231    3.272148    0.913886
    120          8           0        8.315140    5.100606    4.556015
    121          6           0        9.298089    5.373192    1.371449
    122          1           0        9.670777    6.083399    2.118040
    123          1           0        9.684160    5.683635    0.394696
    124          1           0        8.204935    5.455608    1.340580
    125          6           0       11.287598    3.832797    1.689071
    126          1           0       11.769988    4.505118    2.406447
    127          1           0       11.670937    4.080358    0.692661
    128          1           0       11.612032    2.811023    1.922141
    129          7           0       10.468688    4.377802    4.789475
    130          1           0       11.311547    3.968407    4.345428
    131          6           0       10.948344    5.396136    5.720598
    132          1           0       10.394770    6.324941    5.549212
    133          6           0       12.485256    5.607510    5.393139
    134          6           0       10.793936    4.963049    7.181747
    135          1           0       11.110008    5.808573    7.802035
    136          1           0       11.492043    4.140357    7.390848
    137          8           0       13.038587    6.477620    6.079274
    138          6           0        9.373964    4.504271    7.519955
    139          1           0        9.145375    3.603247    6.934975
    140          1           0        8.665733    5.270311    7.174544
    141          6           0        9.170249    4.213130    9.012658
    142          1           0       10.013438    3.630728    9.403626
    143          1           0        9.152298    5.149269    9.587588
    144          6           0        7.905272    3.407338    9.295474
    145          1           0        7.989765    2.380492    8.930445
    146          1           0        7.644224    3.389519   10.356911
    147          7           0        6.723361    3.995456    8.542448
    148          1           0        5.831833    3.693941    8.943793
    149          1           0        6.726596    3.650939    7.524533
    150          1           0        6.748381    5.018884    8.555006
    151          8           0       12.932190    4.822872    4.505813
    152          1           0       -7.499106    1.753137   -4.324122
 ---------------------------------------------------------------------

 SCF Done:  E(RB3LYP) =  -3473.93041420     A.U. after    3 cycles

 Alpha  occ. eigenvalues --  -19.30977 -19.26088 -19.25995 -19.25519 -19.22786
 Alpha  occ. eigenvalues --  -19.21752 -19.19004 -19.17948 -19.16963 -19.16581
 Alpha  occ. eigenvalues --  -19.16557 -19.14743 -19.04826 -19.03655 -14.59216
 Alpha  occ. eigenvalues --  -14.53105 -14.49258 -14.49021 -14.47037 -14.43121
 Alpha  occ. eigenvalues --  -14.42263 -14.42128 -14.41334 -14.41129 -14.40648
 Alpha  occ. eigenvalues --  -14.36245 -10.44001 -10.43226 -10.42990 -10.40394
 Alpha  occ. eigenvalues --  -10.40081 -10.38251 -10.36430 -10.35835 -10.34913
 Alpha  occ. eigenvalues --  -10.34241 -10.33725 -10.33704 -10.33262 -10.33012
 Alpha  occ. eigenvalues --  -10.32593 -10.31803 -10.31150 -10.30991 -10.30639
 Alpha  occ. eigenvalues --  -10.29117 -10.29012 -10.28586 -10.28077 -10.27055
 Alpha  occ. eigenvalues --  -10.26217 -10.25894 -10.24919 -10.24623 -10.24370
 Alpha  occ. eigenvalues --  -10.23177 -10.22892 -10.22849 -10.22735 -10.22668
 Alpha  occ. eigenvalues --  -10.22616 -10.22496 -10.22157 -10.21910 -10.21909
 Alpha  occ. eigenvalues --  -10.21315 -10.20879 -10.20459 -10.19706 -10.19574
 Alpha  occ. eigenvalues --  -10.18017  -1.22199  -1.18732  -1.16642  -1.14847
 Alpha  occ. eigenvalues --   -1.13464  -1.13021  -1.12777  -1.10852  -1.10131
 Alpha  occ. eigenvalues --   -1.08932  -1.08670  -1.08041  -1.07768  -1.06445
 Alpha  occ. eigenvalues --   -1.05649  -1.03975  -1.03291  -0.99095  -0.98986
 Alpha  occ. eigenvalues --   -0.98584  -0.97917  -0.97899  -0.97710  -0.97305
 Alpha  occ. eigenvalues --   -0.93097  -0.93092  -0.90678  -0.89697  -0.89151
 Alpha  occ. eigenvalues --   -0.87255  -0.86628  -0.86517  -0.85232  -0.84795
 Alpha  occ. eigenvalues --   -0.84398  -0.82671  -0.81896  -0.81055  -0.79815
 Alpha  occ. eigenvalues --   -0.79619  -0.79195  -0.77955  -0.76932  -0.75560
 Alpha  occ. eigenvalues --   -0.74921  -0.74023  -0.73989  -0.73512  -0.72927
 Alpha  occ. eigenvalues --   -0.72205  -0.72077  -0.72020  -0.71473  -0.71037
 Alpha  occ. eigenvalues --   -0.70557  -0.70132  -0.70033  -0.68770  -0.68232
 Alpha  occ. eigenvalues --   -0.67831  -0.67564  -0.67390  -0.66438  -0.66153
 Alpha  occ. eigenvalues --   -0.65752  -0.65395  -0.65065  -0.64722  -0.63800
 Alpha  occ. eigenvalues --   -0.63562  -0.62930  -0.62714  -0.62323  -0.61866
 Alpha  occ. eigenvalues --   -0.61794  -0.61338  -0.61194  -0.61091  -0.60226
 Alpha  occ. eigenvalues --   -0.60053  -0.59773  -0.59506  -0.59124  -0.58609
 Alpha  occ. eigenvalues --   -0.58131  -0.58006  -0.57843  -0.57169  -0.56689
 Alpha  occ. eigenvalues --   -0.56390  -0.55926  -0.55472  -0.55240  -0.54956
 Alpha  occ. eigenvalues --   -0.54506  -0.54381  -0.53917  -0.53755  -0.53558
 Alpha  occ. eigenvalues --   -0.53254  -0.53128  -0.52688  -0.52546  -0.52481
 Alpha  occ. eigenvalues --   -0.51896  -0.51624  -0.51383  -0.51154  -0.51055
 Alpha  occ. eigenvalues --   -0.50937  -0.50628  -0.50468  -0.50277  -0.49895
 Alpha  occ. eigenvalues --   -0.49828  -0.49607  -0.49412  -0.49072  -0.48897
 Alpha  occ. eigenvalues --   -0.48530  -0.48318  -0.48255  -0.48068  -0.47720
 Alpha  occ. eigenvalues --   -0.47583  -0.47403  -0.47249  -0.47207  -0.46611
 Alpha  occ. eigenvalues --   -0.46540  -0.46395  -0.46369  -0.46008  -0.45744
 Alpha  occ. eigenvalues --   -0.45516  -0.45419  -0.45147  -0.44787  -0.44518
 Alpha  occ. eigenvalues --   -0.44379  -0.43987  -0.43845  -0.43637  -0.43444
 Alpha  occ. eigenvalues --   -0.43368  -0.43294  -0.43089  -0.42637  -0.42360
 Alpha  occ. eigenvalues --   -0.42195  -0.41895  -0.41765  -0.41399  -0.41263
 Alpha  occ. eigenvalues --   -0.41242  -0.40863  -0.40804  -0.40551  -0.40294
 Alpha  occ. eigenvalues --   -0.40182  -0.40082  -0.40057  -0.39395  -0.39322
 Alpha  occ. eigenvalues --   -0.39186  -0.38784  -0.38523  -0.38381  -0.38057
 Alpha  occ. eigenvalues --   -0.37924  -0.37739  -0.37625  -0.37589  -0.37080
 Alpha  occ. eigenvalues --   -0.36756  -0.36646  -0.36465  -0.36457  -0.36316
 Alpha  occ. eigenvalues --   -0.36239  -0.36213  -0.35424  -0.35384  -0.35265
 Alpha  occ. eigenvalues --   -0.34888  -0.34128  -0.33387  -0.32292  -0.32203
 Alpha  occ. eigenvalues --   -0.32155  -0.31923  -0.31569  -0.30758  -0.30448
 Alpha  occ. eigenvalues --   -0.30163  -0.30016  -0.29200  -0.28603  -0.27414
 Alpha  occ. eigenvalues --   -0.19934  -0.19715  -0.17913
 Alpha virt. eigenvalues --   -0.13193  -0.11660  -0.11105  -0.09323  -0.08804
 Alpha virt. eigenvalues --   -0.07950  -0.05997  -0.05324  -0.04446  -0.04329
 Alpha virt. eigenvalues --   -0.04239  -0.03656  -0.03539  -0.02836  -0.02237

 Mulliken charges:
               1
     1  N   -0.745217
     2  H    0.446604
     3  H    0.404832
     4  H    0.411993
     5  C   -0.111938
     6  H    0.216976
     7  C    0.638041
     8  C   -0.465298
     9  H    0.202649
    10  H    0.200206
    11  H    0.184364
    12  O   -0.523628
    13  N   -0.646075
    14  H    0.401326
    15  C   -0.096407
    16  H    0.222451
    17  C    0.632091
    18  C   -0.355245
    19  H    0.198709
    20  H    0.207002
    21  O   -0.524295
    22  C    0.629757
    23  N   -0.716902
    24  H    0.361698
    25  H    0.370502
    26  O   -0.583664
    27  N   -0.596504
    28  H    0.344184
    29  C   -0.099241
    30  H    0.204856
    31  C    0.648214
    32  C   -0.291509
    33  H    0.190781
    34  H    0.200452
    35  O   -0.519177
    36  C   -0.359207
    37  H    0.204602
    38  H    0.145137
    39  C    0.605684
    40  O   -0.509437
    41  O   -0.527407
    42  N   -0.615708
    43  H    0.358730
    44  C   -0.039811
    45  H    0.164059
    46  C    0.633653
    47  C   -0.285812
    48  H    0.152175
    49  H    0.140194
    50  O   -0.552003
    51  C   -0.097979
    52  H    0.151417
    53  C   -0.445646
    54  H    0.137442
    55  H    0.141658
    56  H    0.163229
    57  C   -0.447590
    58  H    0.139522
    59  H    0.146833
    60  H    0.152792
    61  N   -0.583940
    62  H    0.352350
    63  C   -0.079495
    64  H    0.176426
    65  C    0.637745
    66  C   -0.261135
    67  H    0.150388
    68  H    0.135226
    69  O   -0.555309
    70  C   -0.073595
    71  H    0.152413
    72  C   -0.442075
    73  H    0.138296
    74  H    0.142448
    75  H    0.140132
    76  C   -0.470659
    77  H    0.130098
    78  H    0.179297
    79  H    0.132687
    80  N   -0.622130
    81  H    0.353492
    82  C   -0.049535
    83  H    0.182178
    84  C    0.626116
    85  C   -0.094850
    86  H    0.169866
    87  O   -0.559871
    88  C   -0.274889
    89  H    0.142669
    90  H    0.144061
    91  C   -0.465324
    92  H    0.151525
    93  H    0.149718
    94  H    0.152015
    95  C   -0.459648
    96  H    0.163842
    97  H    0.159057
    98  H    0.141225
    99  N   -0.627601
   100  H    0.374538
   101  C   -0.052457
   102  H    0.165728
   103  C    0.612306
   104  C   -0.351222
   105  H    0.193602
   106  H    0.202895
   107  O   -0.535131
   108  C    0.581791
   109  N   -0.751516
   110  H    0.346487
   111  H    0.398491
   112  O   -0.551363
   113  N   -0.600073
   114  H    0.335862
   115  C   -0.073259
   116  H    0.182728
   117  C    0.631079
   118  C   -0.062529
   119  H    0.135799
   120  O   -0.629755
   121  C   -0.458002
   122  H    0.172029
   123  H    0.150962
   124  H    0.122084
   125  C   -0.484050
   126  H    0.211744
   127  H    0.142492
   128  H    0.142796
   129  N   -0.589709
   130  H    0.370453
   131  C   -0.088690
   132  H    0.145920
   133  C    0.586951
   134  C   -0.254274
   135  H    0.165226
   136  H    0.144093
   137  O   -0.579653
   138  C   -0.291188
   139  H    0.157752
   140  H    0.126959
   141  C   -0.288861
   142  H    0.185301
   143  H    0.157802
   144  C   -0.187543
   145  H    0.214614
   146  H    0.190577
   147  N   -0.768542
   148  H    0.393493
   149  H    0.456334
   150  H    0.396687
   151  O   -0.610213
   152  H    0.430115
 Sum of Mulliken charges =   1.00000

 Dipole moment (field-independent basis, Debye):
    X=            -48.6924    Y=             -7.4389    Z=            -33.5676  Tot=             59.6076
 Quadrupole moment (field-independent basis, Debye-Ang):
   XX=           -456.6746   YY=           -452.3255   ZZ=            174.5474
   XY=            -63.7925   XZ=            305.2965   YZ=             65.7952

 Normal termination of Gaussian 16 at Mon Jul  4 20:52:46 2022.
