 Gaussian 16, Revision C.01,
 Gaussian 16:  ES64L-G16RevC.01  3-Jul-2019

 ----------------------------------------------------------------------
 # B3LYP/6-31G* empiricaldispersion=gd3 guess=read geom=check nosymm in
 tegral(ultrafinegrid)
 ----------------------------------------------------------------------

 ------------------------------------------------------
 Candidate Structure: Conf:535 Charge calc in gas phase
 ------------------------------------------------------
 Structure from the checkpoint file:  "conf-535.chk"
 Charge =  1 Multiplicity = 1

                          Input orientation:
 ---------------------------------------------------------------------
 Center     Atomic      Atomic             Coordinates (Angstroms)
 Number     Number       Type             X           Y           Z
 ---------------------------------------------------------------------
      1          7           0       -3.600365   -3.661293    0.834974
      2          1           0       -2.827797   -3.753221    0.154569
      3          1           0       -3.233139   -3.634632    1.788645
      4          1           0       -4.084658   -2.743102    0.622707
      5          6           0       -4.548138   -4.807458    0.585981
      6          1           0       -4.069771   -5.704798    0.994292
      7          6           0       -4.539351   -4.939762   -0.955278
      8          6           0       -5.894038   -4.556192    1.256528
      9          1           0       -6.545868   -5.424954    1.127229
     10          1           0       -6.384348   -3.675291    0.833655
     11          1           0       -5.766763   -4.405070    2.333486
     12          8           0       -3.507984   -4.603227   -1.554872
     13          7           0       -5.652459   -5.398821   -1.527617
     14          1           0       -6.379794   -5.858403   -0.969845
     15          6           0       -5.743904   -5.678868   -2.968701
     16          1           0       -4.800253   -6.134867   -3.288392
     17          6           0       -5.965565   -4.324017   -3.706002
     18          6           0       -6.940465   -6.604767   -3.259291
     19          1           0       -6.829289   -6.993976   -4.275393
     20          1           0       -7.841905   -5.980964   -3.256621
     21          8           0       -7.094193   -3.922421   -3.971369
     22          6           0       -7.160786   -7.711949   -2.236252
     23          7           0       -7.288502   -8.968769   -2.715060
     24          1           0       -7.528672   -9.707685   -2.066825
     25          1           0       -7.291991   -9.178031   -3.702237
     26          8           0       -7.248857   -7.463285   -1.026771
     27          7           0       -4.835031   -3.632365   -3.963482
     28          1           0       -3.935835   -3.958559   -3.616223
     29          6           0       -4.865994   -2.250024   -4.412663
     30          1           0       -5.502264   -2.176297   -5.300943
     31          6           0       -3.418058   -1.851853   -4.723463
     32          6           0       -5.440973   -1.309989   -3.318946
     33          1           0       -5.577400   -0.304148   -3.727506
     34          1           0       -6.433223   -1.690384   -3.062458
     35          8           0       -2.476672   -2.465199   -4.222641
     36          6           0       -4.517412   -1.242520   -2.082713
     37          1           0       -3.748575   -0.477720   -2.262126
     38          1           0       -4.001870   -2.190837   -1.918688
     39          6           0       -5.216299   -0.872698   -0.812574
     40          8           0       -5.040198   -1.410285    0.285492
     41          8           0       -6.068305    0.141347   -0.945117
     42          7           0       -3.249826   -0.750939   -5.497227
     43          1           0       -4.062989   -0.188380   -5.713540
     44          6           0       -1.955526   -0.066347   -5.491791
     45          1           0       -1.209669   -0.771842   -5.867097
     46          6           0       -1.628592    0.334923   -4.040169
     47          6           0       -2.030200    1.178469   -6.387860
     48          1           0       -2.824897    1.825370   -5.990791
     49          1           0       -2.336037    0.859400   -7.393764
     50          8           0       -2.483199    0.884404   -3.336643
     51          6           0       -0.727127    1.995232   -6.486164
     52          1           0       -0.451911    2.319682   -5.472683
     53          6           0        0.439094    1.176429   -7.059425
     54          1           0        0.180458    0.763061   -8.042797
     55          1           0        0.728177    0.344323   -6.408335
     56          1           0        1.326017    1.806570   -7.185870
     57          6           0       -0.974271    3.252200   -7.332931
     58          1           0       -1.244148    2.983406   -8.362304
     59          1           0       -1.787199    3.860830   -6.919984
     60          1           0       -0.075235    3.876484   -7.377355
     61          7           0       -0.376875    0.076793   -3.622845
     62          1           0        0.267349   -0.479134   -4.175991
     63          6           0        0.065450    0.345496   -2.265060
     64          1           0       -0.238936    1.363057   -2.003953
     65          6           0        1.595313    0.209920   -2.274407
     66          6           0       -0.575499   -0.663606   -1.276535
     67          1           0       -1.649307   -0.658649   -1.490011
     68          1           0       -0.203871   -1.663238   -1.536683
     69          8           0        2.159015   -0.488902   -3.116391
     70          6           0       -0.373287   -0.396885    0.227206
     71          1           0        0.690769   -0.476207    0.478205
     72          6           0       -0.863559    0.995243    0.654028
     73          1           0       -1.913384    1.142925    0.368219
     74          1           0       -0.286899    1.806139    0.196682
     75          1           0       -0.778541    1.120443    1.738525
     76          6           0       -1.123660   -1.472184    1.029417
     77          1           0       -2.205988   -1.359632    0.871196
     78          1           0       -0.816809   -2.481077    0.719644
     79          1           0       -0.928999   -1.373190    2.103333
     80          7           0        2.236794    0.873648   -1.287029
     81          1           0        1.702142    1.320627   -0.551803
     82          6           0        3.633892    0.637341   -0.950404
     83          1           0        3.943101   -0.260999   -1.490671
     84          6           0        3.672442    0.390856    0.563784
     85          6           0        4.526030    1.836803   -1.396159
     86          1           0        4.276711    1.964455   -2.459217
     87          8           0        2.777423    0.808508    1.300728
     88          6           0        6.040052    1.562394   -1.299948
     89          1           0        6.549424    2.447768   -1.701465
     90          1           0        6.335013    1.512434   -0.244896
     91          6           0        4.162767    3.124812   -0.642705
     92          1           0        4.432278    3.049479    0.415751
     93          1           0        3.092841    3.348152   -0.715765
     94          1           0        4.707296    3.974365   -1.068947
     95          6           0        6.529953    0.330840   -2.074112
     96          1           0        7.624183    0.283874   -2.078094
     97          1           0        6.191066    0.358128   -3.116554
     98          1           0        6.170385   -0.617074   -1.651090
     99          7           0        4.730688   -0.321213    1.041734
    100          1           0        5.535046   -0.419644    0.436575
    101          6           0        4.974436   -0.312560    2.473290
    102          1           0        4.052592   -0.618830    2.971457
    103          6           0        5.358431    1.114427    2.931261
    104          6           0        6.082452   -1.310015    2.861057
    105          1           0        7.045492   -0.998643    2.437901
    106          1           0        5.830203   -2.296114    2.456958
    107          8           0        5.890031    1.910867    2.159514
    108          6           0        6.108570   -1.407556    4.390083
    109          7           0        7.289193   -1.130300    5.009213
    110          1           0        8.032563   -0.678653    4.494972
    111          1           0        7.210508   -0.878491    5.989162
    112          8           0        5.083305   -1.682871    5.003844
    113          7           0        5.098556    1.378520    4.232221
    114          1           0        4.743225    0.644494    4.836696
    115          6           0        5.501209    2.614737    4.881679
    116          1           0        6.053084    3.195754    4.136144
    117          6           0        6.421477    2.240029    6.053063
    118          6           0        4.259623    3.428905    5.337367
    119          1           0        3.702332    2.790659    6.038501
    120          8           0        6.242034    1.213575    6.712327
    121          6           0        4.657447    4.721110    6.065085
    122          1           0        5.275952    5.360575    5.421314
    123          1           0        3.763655    5.294267    6.332674
    124          1           0        5.217045    4.529232    6.985641
    125          6           0        3.365977    3.737057    4.126345
    126          1           0        3.893491    4.383074    3.413439
    127          1           0        2.459354    4.261476    4.448239
    128          1           0        3.067264    2.828532    3.594724
    129          7           0        7.429894    3.105792    6.306724
    130          1           0        7.519732    3.978319    5.797811
    131          6           0        8.301815    2.954944    7.458748
    132          1           0        7.701031    2.575815    8.296122
    133          6           0        8.838620    4.350429    7.797307
    134          6           0        9.433444    1.935806    7.174926
    135          1           0       10.019900    2.295746    6.320161
    136          1           0        8.924386    1.018200    6.857777
    137          8           0        9.393011    4.502607    9.016845
    138          6           0       10.345242    1.628926    8.367394
    139          1           0        9.745531    1.417601    9.263786
    140          1           0       10.974230    2.499244    8.596740
    141          6           0       11.257377    0.421281    8.121494
    142          1           0       10.640541   -0.456795    7.875948
    143          1           0       11.895896    0.605418    7.246734
    144          6           0       12.145988    0.091445    9.326670
    145          1           0       12.842584   -0.718180    9.046201
    146          1           0       12.763397    0.966847    9.566456
    147          7           0       11.324935   -0.209417   10.507373
    148          1           0       11.918902   -0.308623   11.328488
    149          1           0       10.865718   -1.111250   10.382088
    150          1           0        9.346582    3.675495    9.525761
    151          8           0        8.793001    5.274746    7.020167
    152          1           0       -6.457847    0.334345   -0.070094
 ---------------------------------------------------------------------

 SCF Done:  E(RB3LYP) =  -3473.99028983     A.U. after    2 cycles

 Alpha  occ. eigenvalues --  -19.30806 -19.26401 -19.25476 -19.24472 -19.21862
 Alpha  occ. eigenvalues --  -19.20365 -19.20286 -19.19632 -19.18721 -19.18331
 Alpha  occ. eigenvalues --  -19.18243 -19.17604 -19.17324 -19.17158 -14.55894
 Alpha  occ. eigenvalues --  -14.47557 -14.45886 -14.44236 -14.44171 -14.42718
 Alpha  occ. eigenvalues --  -14.42691 -14.42275 -14.42127 -14.41471 -14.41328
 Alpha  occ. eigenvalues --  -14.35928 -10.43903 -10.41504 -10.39587 -10.38439
 Alpha  occ. eigenvalues --  -10.37956 -10.37591 -10.37104 -10.35391 -10.35390
 Alpha  occ. eigenvalues --  -10.35347 -10.35116 -10.34664 -10.34396 -10.34354
 Alpha  occ. eigenvalues --  -10.32200 -10.31027 -10.30453 -10.30220 -10.30105
 Alpha  occ. eigenvalues --  -10.29819 -10.29707 -10.29100 -10.28576 -10.28533
 Alpha  occ. eigenvalues --  -10.28341 -10.26862 -10.26458 -10.26339 -10.25696
 Alpha  occ. eigenvalues --  -10.25584 -10.25495 -10.25218 -10.25091 -10.24857
 Alpha  occ. eigenvalues --  -10.24753 -10.24390 -10.23849 -10.23485 -10.23117
 Alpha  occ. eigenvalues --  -10.23019 -10.22981 -10.22840 -10.22569 -10.21847
 Alpha  occ. eigenvalues --  -10.21690  -1.22260  -1.16742  -1.16100  -1.13543
 Alpha  occ. eigenvalues --   -1.13001  -1.12748  -1.12009  -1.10983  -1.10595
 Alpha  occ. eigenvalues --   -1.10390  -1.09807  -1.09606  -1.09147  -1.08759
 Alpha  occ. eigenvalues --   -1.07954  -1.04419  -1.01062  -1.00633  -1.00573
 Alpha  occ. eigenvalues --   -0.99381  -0.99264  -0.98938  -0.98755  -0.98214
 Alpha  occ. eigenvalues --   -0.96220  -0.92637  -0.91251  -0.89608  -0.88726
 Alpha  occ. eigenvalues --   -0.87681  -0.87614  -0.87037  -0.86429  -0.85443
 Alpha  occ. eigenvalues --   -0.84158  -0.83833  -0.82594  -0.80979  -0.80428
 Alpha  occ. eigenvalues --   -0.79502  -0.78846  -0.77247  -0.77114  -0.76389
 Alpha  occ. eigenvalues --   -0.76128  -0.74423  -0.74403  -0.74061  -0.73483
 Alpha  occ. eigenvalues --   -0.73089  -0.72341  -0.71614  -0.71466  -0.70817
 Alpha  occ. eigenvalues --   -0.70059  -0.68969  -0.68751  -0.68353  -0.68102
 Alpha  occ. eigenvalues --   -0.67808  -0.67503  -0.66531  -0.65829  -0.65543
 Alpha  occ. eigenvalues --   -0.65093  -0.64660  -0.64307  -0.64235  -0.64016
 Alpha  occ. eigenvalues --   -0.63580  -0.63550  -0.63247  -0.62950  -0.62866
 Alpha  occ. eigenvalues --   -0.62241  -0.62033  -0.61266  -0.61055  -0.60432
 Alpha  occ. eigenvalues --   -0.59568  -0.59479  -0.58989  -0.58895  -0.58503
 Alpha  occ. eigenvalues --   -0.58095  -0.57103  -0.56766  -0.56422  -0.56106
 Alpha  occ. eigenvalues --   -0.55627  -0.55319  -0.54917  -0.54514  -0.54362
 Alpha  occ. eigenvalues --   -0.54127  -0.54024  -0.53797  -0.53741  -0.53156
 Alpha  occ. eigenvalues --   -0.53038  -0.52808  -0.52683  -0.52313  -0.52252
 Alpha  occ. eigenvalues --   -0.52170  -0.51958  -0.51769  -0.51584  -0.51378
 Alpha  occ. eigenvalues --   -0.51235  -0.50930  -0.50822  -0.50343  -0.50232
 Alpha  occ. eigenvalues --   -0.49932  -0.49659  -0.49492  -0.49371  -0.49257
 Alpha  occ. eigenvalues --   -0.49089  -0.48872  -0.48739  -0.48519  -0.48431
 Alpha  occ. eigenvalues --   -0.48343  -0.48068  -0.48008  -0.47746  -0.47661
 Alpha  occ. eigenvalues --   -0.47398  -0.47371  -0.47217  -0.46906  -0.46761
 Alpha  occ. eigenvalues --   -0.46423  -0.46171  -0.45938  -0.45747  -0.45364
 Alpha  occ. eigenvalues --   -0.45263  -0.45204  -0.44922  -0.44896  -0.44691
 Alpha  occ. eigenvalues --   -0.44412  -0.44294  -0.44227  -0.44109  -0.43958
 Alpha  occ. eigenvalues --   -0.43916  -0.43707  -0.43593  -0.43215  -0.43052
 Alpha  occ. eigenvalues --   -0.43006  -0.42800  -0.42351  -0.42253  -0.42119
 Alpha  occ. eigenvalues --   -0.41836  -0.41615  -0.41084  -0.40718  -0.40393
 Alpha  occ. eigenvalues --   -0.40047  -0.39833  -0.39777  -0.39669  -0.39090
 Alpha  occ. eigenvalues --   -0.39058  -0.38903  -0.38790  -0.38765  -0.38717
 Alpha  occ. eigenvalues --   -0.38664  -0.38496  -0.38479  -0.38240  -0.38140
 Alpha  occ. eigenvalues --   -0.38020  -0.37280  -0.36993  -0.36821  -0.35880
 Alpha  occ. eigenvalues --   -0.35231  -0.34307  -0.33706  -0.33674  -0.33570
 Alpha  occ. eigenvalues --   -0.33384  -0.33114  -0.33023  -0.32570  -0.32137
 Alpha  occ. eigenvalues --   -0.31776  -0.31550  -0.31360  -0.31345  -0.31035
 Alpha  occ. eigenvalues --   -0.30502  -0.30167  -0.28149
 Alpha virt. eigenvalues --   -0.11099  -0.10672  -0.07919  -0.06885  -0.06653
 Alpha virt. eigenvalues --   -0.06092  -0.05421  -0.05214  -0.04839  -0.04522
 Alpha virt. eigenvalues --   -0.03765  -0.03469  -0.02798  -0.02370  -0.01970

 Mulliken charges:
               1
     1  N   -0.786736
     2  H    0.418792
     3  H    0.401495
     4  H    0.463601
     5  C   -0.112253
     6  H    0.223870
     7  C    0.648971
     8  C   -0.487300
     9  H    0.215901
    10  H    0.197588
    11  H    0.180665
    12  O   -0.544116
    13  N   -0.624712
    14  H    0.400544
    15  C   -0.060105
    16  H    0.189648
    17  C    0.631037
    18  C   -0.408093
    19  H    0.173275
    20  H    0.234790
    21  O   -0.518625
    22  C    0.624222
    23  N   -0.736466
    24  H    0.363235
    25  H    0.359057
    26  O   -0.543595
    27  N   -0.620342
    28  H    0.387778
    29  C   -0.066006
    30  H    0.187899
    31  C    0.638735
    32  C   -0.283036
    33  H    0.172712
    34  H    0.192945
    35  O   -0.540721
    36  C   -0.421559
    37  H    0.271147
    38  H    0.178248
    39  C    0.607588
    40  O   -0.537863
    41  O   -0.516413
    42  N   -0.607102
    43  H    0.339564
    44  C   -0.029457
    45  H    0.172816
    46  C    0.644819
    47  C   -0.296375
    48  H    0.151415
    49  H    0.151675
    50  O   -0.573655
    51  C   -0.084365
    52  H    0.142200
    53  C   -0.451382
    54  H    0.147104
    55  H    0.141180
    56  H    0.158000
    57  C   -0.445145
    58  H    0.146297
    59  H    0.147457
    60  H    0.153793
    61  N   -0.606202
    62  H    0.365306
    63  C   -0.052905
    64  H    0.176540
    65  C    0.611678
    66  C   -0.264999
    67  H    0.152798
    68  H    0.150884
    69  O   -0.538786
    70  C   -0.094371
    71  H    0.166178
    72  C   -0.449700
    73  H    0.141910
    74  H    0.149212
    75  H    0.160251
    76  C   -0.479461
    77  H    0.117293
    78  H    0.129359
    79  H    0.163720
    80  N   -0.614058
    81  H    0.365009
    82  C   -0.096125
    83  H    0.188305
    84  C    0.648763
    85  C   -0.061616
    86  H    0.144606
    87  O   -0.551371
    88  C   -0.294418
    89  H    0.147582
    90  H    0.170148
    91  C   -0.480380
    92  H    0.191129
    93  H    0.134497
    94  H    0.150060
    95  C   -0.466553
    96  H    0.156601
    97  H    0.161786
    98  H    0.128852
    99  N   -0.607752
   100  H    0.348872
   101  C   -0.053844
   102  H    0.203568
   103  C    0.616479
   104  C   -0.371631
   105  H    0.151610
   106  H    0.192299
   107  O   -0.533076
   108  C    0.581396
   109  N   -0.733375
   110  H    0.336842
   111  H    0.372684
   112  O   -0.510993
   113  N   -0.601511
   114  H    0.367744
   115  C   -0.068449
   116  H    0.178501
   117  C    0.622654
   118  C   -0.073570
   119  H    0.139896
   120  O   -0.555091
   121  C   -0.464255
   122  H    0.148711
   123  H    0.158324
   124  H    0.153733
   125  C   -0.457282
   126  H    0.151367
   127  H    0.144892
   128  H    0.172702
   129  N   -0.609820
   130  H    0.360695
   131  C   -0.076055
   132  H    0.180402
   133  C    0.608588
   134  C   -0.252843
   135  H    0.153251
   136  H    0.152442
   137  O   -0.556918
   138  C   -0.298523
   139  H    0.160428
   140  H    0.149457
   141  C   -0.259083
   142  H    0.127823
   143  H    0.139365
   144  C   -0.142696
   145  H    0.126122
   146  H    0.145836
   147  N   -0.719632
   148  H    0.306723
   149  H    0.296802
   150  H    0.427783
   151  O   -0.448007
   152  H    0.430253
 Sum of Mulliken charges =   1.00000

 Dipole moment (field-independent basis, Debye):
    X=             -8.8797    Y=            -17.3124    Z=              0.9119  Tot=             19.4782
 Quadrupole moment (field-independent basis, Debye-Ang):
   XX=           -203.9310   YY=           -309.6120   ZZ=           -319.2305
   XY=             79.3417   XZ=             96.5926   YZ=              9.2955

 Normal termination of Gaussian 16 at Mon Jul  4 20:52:21 2022.
