 Gaussian 16, Revision C.01,
 Gaussian 16:  ES64L-G16RevC.01  3-Jul-2019

 ----------------------------------------------------------------------
 # B3LYP/6-31G* empiricaldispersion=gd3 guess=read geom=check nosymm in
 tegral(ultrafinegrid)
 ----------------------------------------------------------------------

 ------------------------------------------------------
 Candidate Structure: Conf:584 Charge calc in gas phase
 ------------------------------------------------------
 Structure from the checkpoint file:  "conf-584.chk"
 Charge =  1 Multiplicity = 1

                          Input orientation:
 ---------------------------------------------------------------------
 Center     Atomic      Atomic             Coordinates (Angstroms)
 Number     Number       Type             X           Y           Z
 ---------------------------------------------------------------------
      1          7           0       -2.887305    7.859308   -2.957647
      2          1           0       -1.988204    8.347043   -2.978097
      3          1           0       -3.617766    8.522297   -2.689899
      4          1           0       -3.084339    7.434197   -3.912161
      5          6           0       -2.848790    6.624179   -2.066597
      6          1           0       -1.925207    6.637881   -1.469105
      7          6           0       -2.775466    5.479529   -3.100190
      8          6           0       -4.088995    6.559267   -1.182393
      9          1           0       -3.972348    5.700784   -0.518266
     10          1           0       -5.007825    6.455802   -1.771208
     11          1           0       -4.157882    7.452507   -0.551012
     12          8           0       -3.011418    5.748171   -4.296270
     13          7           0       -2.453862    4.280647   -2.626200
     14          1           0       -2.244513    4.199825   -1.607082
     15          6           0       -2.349330    3.112164   -3.489106
     16          1           0       -3.298608    2.955476   -4.009968
     17          6           0       -2.003842    1.904245   -2.603161
     18          6           0       -1.246833    3.256854   -4.567686
     19          1           0       -0.294663    3.477722   -4.079593
     20          1           0       -1.514198    4.091718   -5.220555
     21          8           0       -1.209440    1.997380   -1.670496
     22          6           0       -1.208910    1.978592   -5.396473
     23          7           0        0.009136    1.359304   -5.491810
     24          1           0        0.075651    0.575752   -6.130186
     25          1           0        0.864936    1.852691   -5.279758
     26          8           0       -2.229902    1.484337   -5.858388
     27          7           0       -2.602440    0.738400   -2.961807
     28          1           0       -3.152057    0.722337   -3.813835
     29          6           0       -2.566084   -0.457484   -2.130788
     30          1           0       -2.528496   -0.113103   -1.090246
     31          6           0       -1.308616   -1.333572   -2.240684
     32          6           0       -3.839244   -1.290094   -2.337550
     33          1           0       -3.957733   -1.529307   -3.401208
     34          1           0       -3.702758   -2.235414   -1.807686
     35          8           0       -1.282602   -2.395314   -1.604291
     36          6           0       -5.090051   -0.564302   -1.817864
     37          1           0       -5.208764    0.398767   -2.331159
     38          1           0       -5.007504   -0.362998   -0.746304
     39          6           0       -6.363151   -1.357354   -2.028623
     40          8           0       -7.164809   -1.641446   -1.170508
     41          8           0       -6.512454   -1.712405   -3.330981
     42          7           0       -0.237361   -0.871014   -2.921496
     43          1           0       -0.276415    0.033973   -3.370585
     44          6           0        1.067284   -1.536136   -2.817578
     45          1           0        0.850673   -2.604178   -2.728433
     46          6           0        1.743939   -1.063517   -1.506099
     47          6           0        1.926366   -1.279264   -4.055918
     48          1           0        2.057787   -0.195720   -4.172316
     49          1           0        1.358891   -1.635217   -4.926840
     50          8           0        2.704520   -0.284803   -1.495285
     51          6           0        3.319778   -1.942653   -4.036655
     52          1           0        3.900514   -1.497970   -3.225044
     53          6           0        3.261316   -3.456129   -3.789615
     54          1           0        2.656482   -3.965283   -4.551333
     55          1           0        2.838900   -3.700446   -2.806686
     56          1           0        4.271010   -3.877470   -3.816921
     57          6           0        4.063053   -1.634407   -5.342150
     58          1           0        3.574311   -2.109557   -6.202774
     59          1           0        4.102838   -0.553482   -5.532511
     60          1           0        5.092840   -1.998689   -5.284397
     61          7           0        1.149645   -1.536260   -0.380711
     62          1           0        0.323909   -2.117363   -0.526491
     63          6           0        1.284084   -0.866415    0.920390
     64          1           0        1.227607    0.213981    0.771591
     65          6           0        2.646979   -1.089570    1.555454
     66          6           0        0.199495   -1.336714    1.906592
     67          1           0        0.282126   -2.425727    2.031159
     68          1           0        0.458162   -0.890890    2.874181
     69          8           0        3.005274   -0.339702    2.470090
     70          6           0       -1.253146   -0.961481    1.557503
     71          1           0       -1.536412   -1.476705    0.630168
     72          6           0       -2.186479   -1.470290    2.665895
     73          1           0       -1.965469   -0.975988    3.620629
     74          1           0       -2.083001   -2.551369    2.814903
     75          1           0       -3.234148   -1.265072    2.418635
     76          6           0       -1.416496    0.550669    1.352550
     77          1           0       -1.046824    1.103520    2.226082
     78          1           0       -0.885361    0.912178    0.468408
     79          1           0       -2.471505    0.819315    1.221816
     80          7           0        3.447386   -2.091203    1.112121
     81          1           0        3.171657   -2.651163    0.319816
     82          6           0        4.830404   -2.101230    1.581074
     83          1           0        4.808979   -2.092807    2.673290
     84          6           0        5.521220   -0.769605    1.225314
     85          6           0        5.606372   -3.368331    1.120146
     86          1           0        5.220163   -4.180143    1.752393
     87          8           0        6.130387   -0.096737    2.060709
     88          6           0        7.106962   -3.194827    1.438925
     89          1           0        7.543247   -2.489104    0.717734
     90          1           0        7.210283   -2.720580    2.422650
     91          6           0        5.374537   -3.777442   -0.343963
     92          1           0        5.726674   -3.028793   -1.059048
     93          1           0        4.321758   -3.993920   -0.563707
     94          1           0        5.908106   -4.708633   -0.556783
     95          6           0        7.903308   -4.503337    1.423771
     96          1           0        8.946968   -4.322403    1.702146
     97          1           0        7.904250   -4.976102    0.435725
     98          1           0        7.489500   -5.224283    2.138835
     99          7           0        5.480518   -0.419340   -0.089778
    100          1           0        4.830517   -0.891689   -0.708998
    101          6           0        6.272916    0.681659   -0.613170
    102          1           0        7.200328    0.718582   -0.037113
    103          6           0        5.613422    2.061728   -0.429014
    104          6           0        6.565842    0.457564   -2.112333
    105          1           0        7.253290    1.242773   -2.448295
    106          1           0        5.641724    0.540328   -2.688661
    107          8           0        6.208366    3.006943    0.093409
    108          6           0        7.122808   -0.935376   -2.390126
    109          7           0        8.407037   -1.149824   -2.000401
    110          1           0        9.006731   -0.407384   -1.671196
    111          1           0        8.819145   -2.056395   -2.175681
    112          8           0        6.422869   -1.816433   -2.880594
    113          7           0        4.358002    2.137268   -0.928205
    114          1           0        3.833852    1.276431   -1.070092
    115          6           0        3.600600    3.372156   -0.949199
    116          1           0        4.241196    4.146032   -0.513870
    117          6           0        2.379382    3.159998   -0.041660
    118          6           0        3.212339    3.795048   -2.389722
    119          1           0        2.688323    4.757352   -2.305965
    120          8           0        2.233205    2.063888    0.533412
    121          6           0        4.465141    4.009209   -3.245749
    122          1           0        4.995960    3.063825   -3.398808
    123          1           0        4.196263    4.406975   -4.230414
    124          1           0        5.160581    4.710929   -2.772416
    125          6           0        2.251876    2.789075   -3.039806
    126          1           0        2.698239    1.790696   -3.093232
    127          1           0        2.032072    3.120121   -4.063081
    128          1           0        1.307199    2.705866   -2.491094
    129          7           0        1.533332    4.171825    0.121691
    130          1           0        1.577771    5.026131   -0.434049
    131          6           0        0.225917    4.011745    0.766326
    132          1           0       -0.103751    2.985246    0.599852
    133          6           0       -0.749563    4.934099   -0.003467
    134          6           0        0.244619    4.289780    2.282244
    135          1           0       -0.793536    4.189963    2.618562
    136          1           0        0.533769    5.334999    2.457520
    137          8           0       -1.968298    4.609828    0.054244
    138          6           0        1.150134    3.332926    3.095922
    139          1           0        1.137844    2.345260    2.628447
    140          1           0        0.728932    3.208266    4.101469
    141          6           0        2.611078    3.812585    3.251669
    142          1           0        2.957529    4.296250    2.330380
    143          1           0        2.651988    4.594650    4.018740
    144          6           0        3.604569    2.702362    3.647578
    145          1           0        4.403543    3.074915    4.292812
    146          1           0        3.104035    1.871977    4.150096
    147          7           0        4.275423    2.097034    2.442521
    148          1           0        4.822718    1.249398    2.660491
    149          1           0        4.920721    2.753400    1.980700
    150          1           0        3.553578    1.818301    1.742046
    151          8           0       -0.245925    5.888711   -0.656961
    152          1           0       -7.348026   -2.213269   -3.389330
 ---------------------------------------------------------------------

 SCF Done:  E(RB3LYP) =  -3474.05485028     A.U. after    1 cycles

 Alpha  occ. eigenvalues --  -19.25492 -19.23082 -19.21694 -19.21441 -19.20707
 Alpha  occ. eigenvalues --  -19.20499 -19.20466 -19.20451 -19.20356 -19.20021
 Alpha  occ. eigenvalues --  -19.19729 -19.19678 -19.15976 -19.15194 -14.55804
 Alpha  occ. eigenvalues --  -14.50630 -14.45658 -14.45443 -14.45234 -14.45039
 Alpha  occ. eigenvalues --  -14.44898 -14.44468 -14.44365 -14.44215 -14.43922
 Alpha  occ. eigenvalues --  -14.43525 -10.39258 -10.38535 -10.38443 -10.38061
 Alpha  occ. eigenvalues --  -10.38025 -10.37786 -10.37691 -10.37378 -10.37365
 Alpha  occ. eigenvalues --  -10.37064 -10.36628 -10.34573 -10.33502 -10.33222
 Alpha  occ. eigenvalues --  -10.32667 -10.32459 -10.32320 -10.31786 -10.31600
 Alpha  occ. eigenvalues --  -10.30889 -10.30226 -10.28909 -10.28732 -10.28525
 Alpha  occ. eigenvalues --  -10.28127 -10.28008 -10.27307 -10.27301 -10.27249
 Alpha  occ. eigenvalues --  -10.27129 -10.26487 -10.26306 -10.25750 -10.25586
 Alpha  occ. eigenvalues --  -10.25256 -10.25202 -10.25156 -10.25095 -10.24907
 Alpha  occ. eigenvalues --  -10.24551 -10.23687 -10.23663 -10.23333 -10.23046
 Alpha  occ. eigenvalues --  -10.22951  -1.16243  -1.15157  -1.13582  -1.13243
 Alpha  occ. eigenvalues --   -1.12891  -1.12601  -1.12452  -1.12172  -1.11817
 Alpha  occ. eigenvalues --   -1.11703  -1.11279  -1.09591  -1.08978  -1.07331
 Alpha  occ. eigenvalues --   -1.05944  -1.02478  -1.02327  -1.02192  -1.01673
 Alpha  occ. eigenvalues --   -1.01046  -1.00656  -1.00473  -0.99923  -0.99761
 Alpha  occ. eigenvalues --   -0.99282  -0.99019  -0.89757  -0.89549  -0.88751
 Alpha  occ. eigenvalues --   -0.88402  -0.87907  -0.87677  -0.87507  -0.86836
 Alpha  occ. eigenvalues --   -0.86106  -0.83725  -0.83441  -0.82259  -0.80732
 Alpha  occ. eigenvalues --   -0.80297  -0.79972  -0.78330  -0.78161  -0.77262
 Alpha  occ. eigenvalues --   -0.76943  -0.75521  -0.75366  -0.74719  -0.74193
 Alpha  occ. eigenvalues --   -0.73472  -0.72311  -0.71463  -0.71350  -0.70195
 Alpha  occ. eigenvalues --   -0.69672  -0.69498  -0.68887  -0.68613  -0.67937
 Alpha  occ. eigenvalues --   -0.67888  -0.67823  -0.67720  -0.67462  -0.66934
 Alpha  occ. eigenvalues --   -0.66809  -0.66650  -0.65920  -0.65700  -0.65217
 Alpha  occ. eigenvalues --   -0.64576  -0.64020  -0.63787  -0.63568  -0.63214
 Alpha  occ. eigenvalues --   -0.62995  -0.62771  -0.62465  -0.62292  -0.61416
 Alpha  occ. eigenvalues --   -0.60899  -0.59683  -0.59378  -0.59218  -0.58251
 Alpha  occ. eigenvalues --   -0.57938  -0.57664  -0.57202  -0.57014  -0.56694
 Alpha  occ. eigenvalues --   -0.56584  -0.56253  -0.55640  -0.55564  -0.55374
 Alpha  occ. eigenvalues --   -0.54700  -0.54514  -0.54485  -0.54178  -0.53931
 Alpha  occ. eigenvalues --   -0.53637  -0.53291  -0.53127  -0.53044  -0.52888
 Alpha  occ. eigenvalues --   -0.52748  -0.52278  -0.52106  -0.51814  -0.51735
 Alpha  occ. eigenvalues --   -0.51564  -0.51425  -0.51218  -0.51047  -0.50668
 Alpha  occ. eigenvalues --   -0.50425  -0.50347  -0.50270  -0.50115  -0.50023
 Alpha  occ. eigenvalues --   -0.49594  -0.49437  -0.49292  -0.49243  -0.49008
 Alpha  occ. eigenvalues --   -0.48721  -0.48515  -0.48489  -0.48445  -0.48211
 Alpha  occ. eigenvalues --   -0.48117  -0.47975  -0.47664  -0.47387  -0.47279
 Alpha  occ. eigenvalues --   -0.47196  -0.47116  -0.46902  -0.46717  -0.46500
 Alpha  occ. eigenvalues --   -0.46361  -0.45958  -0.45801  -0.45651  -0.45474
 Alpha  occ. eigenvalues --   -0.45409  -0.45283  -0.45060  -0.44933  -0.44828
 Alpha  occ. eigenvalues --   -0.44747  -0.44541  -0.44286  -0.44169  -0.44063
 Alpha  occ. eigenvalues --   -0.43969  -0.43451  -0.43348  -0.43116  -0.42958
 Alpha  occ. eigenvalues --   -0.42553  -0.42449  -0.42287  -0.41992  -0.41957
 Alpha  occ. eigenvalues --   -0.41781  -0.40920  -0.40593  -0.40443  -0.40065
 Alpha  occ. eigenvalues --   -0.39640  -0.39540  -0.39404  -0.39272  -0.39215
 Alpha  occ. eigenvalues --   -0.38952  -0.38712  -0.38523  -0.37658  -0.37515
 Alpha  occ. eigenvalues --   -0.37241  -0.37226  -0.36606  -0.36358  -0.36170
 Alpha  occ. eigenvalues --   -0.35881  -0.35699  -0.35354  -0.34856  -0.34562
 Alpha  occ. eigenvalues --   -0.34328  -0.34089  -0.33928  -0.33825  -0.33441
 Alpha  occ. eigenvalues --   -0.33371  -0.32941  -0.32580  -0.32332  -0.32164
 Alpha  occ. eigenvalues --   -0.31391  -0.30362  -0.29220
 Alpha virt. eigenvalues --   -0.09018  -0.08733  -0.08145  -0.08031  -0.07523
 Alpha virt. eigenvalues --   -0.07154  -0.06955  -0.06536  -0.06265  -0.05901
 Alpha virt. eigenvalues --   -0.05422  -0.04770  -0.03505  -0.02233  -0.02127

 Mulliken charges:
               1
     1  N   -0.761352
     2  H    0.410984
     3  H    0.402812
     4  H    0.420300
     5  C   -0.123245
     6  H    0.271676
     7  C    0.632643
     8  C   -0.484842
     9  H    0.246002
    10  H    0.163424
    11  H    0.167627
    12  O   -0.569035
    13  N   -0.662052
    14  H    0.445401
    15  C    0.004605
    16  H    0.191987
    17  C    0.563340
    18  C   -0.384340
    19  H    0.169037
    20  H    0.221481
    21  O   -0.516884
    22  C    0.580445
    23  N   -0.764602
    24  H    0.357424
    25  H    0.361126
    26  O   -0.503368
    27  N   -0.625308
    28  H    0.368273
    29  C   -0.043730
    30  H    0.215627
    31  C    0.642643
    32  C   -0.316406
    33  H    0.176898
    34  H    0.203181
    35  O   -0.550201
    36  C   -0.343906
    37  H    0.167314
    38  H    0.182581
    39  C    0.569529
    40  O   -0.443989
    41  O   -0.563771
    42  N   -0.617906
    43  H    0.369941
    44  C   -0.076700
    45  H    0.196168
    46  C    0.630353
    47  C   -0.276495
    48  H    0.129926
    49  H    0.139841
    50  O   -0.554309
    51  C   -0.083808
    52  H    0.159599
    53  C   -0.459152
    54  H    0.145574
    55  H    0.126099
    56  H    0.172000
    57  C   -0.451000
    58  H    0.138180
    59  H    0.121126
    60  H    0.173701
    61  N   -0.659205
    62  H    0.391155
    63  C   -0.059359
    64  H    0.241477
    65  C    0.656207
    66  C   -0.301961
    67  H    0.143897
    68  H    0.168396
    69  O   -0.584158
    70  C   -0.106691
    71  H    0.145135
    72  C   -0.441710
    73  H    0.144455
    74  H    0.148928
    75  H    0.148840
    76  C   -0.484069
    77  H    0.143581
    78  H    0.188036
    79  H    0.146926
    80  N   -0.636672
    81  H    0.346952
    82  C   -0.029254
    83  H    0.189367
    84  C    0.615403
    85  C   -0.099215
    86  H    0.151233
    87  O   -0.560073
    88  C   -0.274511
    89  H    0.137660
    90  H    0.159114
    91  C   -0.517212
    92  H    0.193449
    93  H    0.135908
    94  H    0.170585
    95  C   -0.454446
    96  H    0.155619
    97  H    0.149207
    98  H    0.154189
    99  N   -0.613067
   100  H    0.371762
   101  C   -0.046018
   102  H    0.190748
   103  C    0.592436
   104  C   -0.405652
   105  H    0.182233
   106  H    0.195754
   107  O   -0.539850
   108  C    0.605199
   109  N   -0.730695
   110  H    0.352443
   111  H    0.358839
   112  O   -0.499835
   113  N   -0.623805
   114  H    0.420458
   115  C   -0.089174
   116  H    0.192102
   117  C    0.617724
   118  C   -0.079851
   119  H    0.143866
   120  O   -0.572545
   121  C   -0.454537
   122  H    0.153007
   123  H    0.151996
   124  H    0.163258
   125  C   -0.517055
   126  H    0.176792
   127  H    0.128292
   128  H    0.189657
   129  N   -0.594849
   130  H    0.358789
   131  C   -0.058921
   132  H    0.202056
   133  C    0.607005
   134  C   -0.275106
   135  H    0.169313
   136  H    0.141492
   137  O   -0.622295
   138  C   -0.285349
   139  H    0.179551
   140  H    0.145457
   141  C   -0.294817
   142  H    0.151736
   143  H    0.168007
   144  C   -0.178145
   145  H    0.188845
   146  H    0.216320
   147  N   -0.814118
   148  H    0.440253
   149  H    0.395173
   150  H    0.454427
   151  O   -0.607481
   152  H    0.418529
 Sum of Mulliken charges =   1.00000

 Dipole moment (field-independent basis, Debye):
    X=              7.8256    Y=             15.8435    Z=             -9.3221  Tot=             19.9789
 Quadrupole moment (field-independent basis, Debye-Ang):
   XX=           -314.0549   YY=           -261.5538   ZZ=           -370.7363
   XY=            -54.6444   XZ=             13.3329   YZ=            -43.2048

 Normal termination of Gaussian 16 at Mon Jul  4 20:52:29 2022.
