 Gaussian 16, Revision C.01,
 Gaussian 16:  ES64L-G16RevC.01  3-Jul-2019

 -------------------------------------------------------------------
 # B3LYP/6-31G* guess=read geom=check nosymm integral(ultrafinegrid)
 -------------------------------------------------------------------

 ------------------------------------------------------
 Candidate Structure: Conf:242 Charge calc in gas phase
 ------------------------------------------------------
 Structure from the checkpoint file:  "conf-242.chk"
 Charge =  1 Multiplicity = 1

                          Input orientation:
 ---------------------------------------------------------------------
 Center     Atomic      Atomic             Coordinates (Angstroms)
 Number     Number       Type             X           Y           Z
 ---------------------------------------------------------------------
      1          7           0       -6.862593   -2.528694    1.732795
      2          1           0       -7.393237   -3.165210    1.145491
      3          1           0       -6.803421   -2.930753    2.666093
      4          6           0       -7.443472   -1.196854    1.740393
      5          1           0       -7.856789   -1.011526    0.739448
      6          6           0       -6.302877   -0.176709    1.903460
      7          6           0       -8.611431   -0.984193    2.753815
      8          1           0       -9.254074   -1.865053    2.685478
      9          1           0       -8.229522   -0.914114    3.779501
     10          8           0       -6.499545    1.084940    2.194361
     11          6           0       -9.457922    0.220078    2.348240
     12          7           0       -9.129420    1.417848    3.015448
     13          1           0       -7.449047    1.327752    2.412932
     14          1           0       -8.992629    1.356879    4.022352
     15          8           0      -10.208211    0.195003    1.400464
     16          7           0       -5.090025   -0.574786    1.689028
     17          1           0       -4.959483   -1.563534    1.424282
     18          6           0       -3.859563    0.229516    1.705838
     19          1           0       -4.082290    1.194421    1.242927
     20          6           0       -2.877909   -0.591040    0.836789
     21          6           0       -3.359939    0.457217    3.170778
     22          1           0       -4.228170    0.876715    3.699450
     23          8           0       -3.079420   -1.800596    0.679070
     24          6           0       -2.232747    1.508413    3.262674
     25          1           0       -1.332195    1.141391    2.756378
     26          1           0       -1.964257    1.580380    4.323872
     27          6           0       -2.955206   -0.855706    3.858971
     28          1           0       -2.076572   -1.319223    3.395188
     29          1           0       -2.714893   -0.658558    4.908976
     30          1           0       -3.766898   -1.593039    3.842580
     31          6           0       -2.589675    2.910125    2.752281
     32          1           0       -1.781426    3.612578    2.977063
     33          1           0       -2.740968    2.946851    1.666220
     34          1           0       -3.502683    3.289074    3.227814
     35          7           0       -1.850815    0.092431    0.321822
     36          1           0       -1.720733    1.090405    0.482192
     37          6           0       -0.719851   -0.523641   -0.365008
     38          1           0       -0.424308   -1.415649    0.195679
     39          6           0        0.407253    0.528401   -0.303398
     40          6           0       -1.057851   -0.908002   -1.815854
     41          1           0       -0.195857   -1.371655   -2.306213
     42          1           0       -1.885190   -1.622408   -1.822782
     43          1           0       -1.346155   -0.022130   -2.391006
     44          8           0        0.148769    1.702706   -0.024743
     45          7           0        1.640277    0.066595   -0.584737
     46          1           0        1.779709   -0.896505   -0.871288
     47          6           0        2.802706    0.917859   -0.767779
     48          1           0        2.453657    1.930151   -0.996812
     49          6           0        3.605668    0.324280   -1.929236
     50          6           0        3.730662    0.975737    0.497425
     51          1           0        4.506279    1.726085    0.279027
     52          8           0        3.448521   -0.846107   -2.284343
     53          6           0        2.971511    1.398492    1.748919
     54          1           0        2.430580    2.336772    1.594356
     55          1           0        3.679185    1.518733    2.574095
     56          1           0        2.252314    0.623087    2.029925
     57          8           0        4.325754   -0.283784    0.744839
     58          1           0        5.145733   -0.348004    0.215190
     59          7           0        4.540914    1.130581   -2.496543
     60          1           0        4.796708    1.995526   -2.032204
     61          6           0        5.620375    0.514615   -3.249254
     62          1           0        5.185308   -0.067889   -4.068159
     63          6           0        6.404794   -0.437811   -2.312765
     64          6           0        6.503008    1.612541   -3.852049
     65          1           0        5.929040    2.132115   -4.633671
     66          1           0        7.383666    1.150350   -4.321144
     67          8           0        6.510730   -0.217410   -1.108098
     68          8           0        6.862363    2.493123   -2.799018
     69          1           0        7.376692    3.227200   -3.167316
     70          7           0        6.943449   -1.528709   -2.911330
     71          1           0        6.728181   -1.711975   -3.882406
     72          6           0        7.660521   -2.551790   -2.161816
     73          1           0        8.369197   -3.053918   -2.823609
     74          1           0        8.230546   -2.057931   -1.370435
     75          6           0        6.810313   -3.642795   -1.486723
     76          8           0        7.367137   -4.632371   -1.029899
     77          7           0        5.475989   -3.413632   -1.372817
     78          1           0        5.034769   -2.645147   -1.862338
     79          6           0        4.619713   -4.381307   -0.710865
     80          1           0        5.148695   -4.753128    0.171084
     81          6           0        4.358037   -5.572787   -1.637399
     82          6           0        3.302856   -3.691169   -0.295210
     83          1           0        3.578022   -2.728788    0.153201
     84          1           0        2.730999   -3.463124   -1.206146
     85          8           0        4.324900   -5.522589   -2.845457
     86          6           0        2.428265   -4.473268    0.692689
     87          1           0        2.154603   -5.451655    0.279879
     88          1           0        3.005202   -4.673642    1.605910
     89          6           0        1.163979   -3.680515    1.048235
     90          1           0        0.571299   -3.528838    0.131293
     91          1           0        1.442677   -2.683705    1.415907
     92          6           0        0.275521   -4.344443    2.100155
     93          1           0        0.005404   -5.360647    1.762072
     94          1           0        0.845243   -4.464602    3.029910
     95          7           0       -0.890358   -3.495691    2.397542
     96          1           0       -1.440726   -3.925582    3.139862
     97          1           0       -1.508587   -3.445956    1.587689
     98          8           0        4.117584   -6.705106   -0.936187
     99          1           0        3.948468   -7.405514   -1.595118
    100          1           0       -9.735025    2.194440    2.753576
 ---------------------------------------------------------------------

 SCF Done:  E(RB3LYP) =  -2418.42813927     A.U. after    3 cycles

 Alpha  occ. eigenvalues --  -19.35140 -19.26871 -19.24270 -19.23147 -19.22383
 Alpha  occ. eigenvalues --  -19.20411 -19.20178 -19.19527 -19.19272 -19.18367
 Alpha  occ. eigenvalues --  -19.15682 -14.52753 -14.50927 -14.47052 -14.45820
 Alpha  occ. eigenvalues --  -14.44397 -14.43973 -14.43956 -14.40594 -14.37444
 Alpha  occ. eigenvalues --  -10.47202 -10.43976 -10.39766 -10.39593 -10.37192
 Alpha  occ. eigenvalues --  -10.37007 -10.36702 -10.36313 -10.35818 -10.34765
 Alpha  occ. eigenvalues --  -10.33434 -10.32403 -10.32133 -10.31730 -10.30615
 Alpha  occ. eigenvalues --  -10.30598 -10.30421 -10.28881 -10.28455 -10.27428
 Alpha  occ. eigenvalues --  -10.26460 -10.26409 -10.26369 -10.26310 -10.24226
 Alpha  occ. eigenvalues --  -10.23997 -10.23720 -10.23037  -1.25268  -1.18698
 Alpha  occ. eigenvalues --   -1.15015  -1.14551  -1.12812  -1.11925  -1.11134
 Alpha  occ. eigenvalues --   -1.10420  -1.10333  -1.07906  -1.07075  -1.05969
 Alpha  occ. eigenvalues --   -1.05276  -1.04301  -1.02449  -1.00681  -1.00315
 Alpha  occ. eigenvalues --   -1.00213  -0.97065  -0.93816  -0.92714  -0.91208
 Alpha  occ. eigenvalues --   -0.87155  -0.86269  -0.85658  -0.85107  -0.82794
 Alpha  occ. eigenvalues --   -0.81893  -0.81133  -0.80160  -0.79119  -0.78643
 Alpha  occ. eigenvalues --   -0.77906  -0.74678  -0.74064  -0.72944  -0.72452
 Alpha  occ. eigenvalues --   -0.71788  -0.69584  -0.69319  -0.68783  -0.68537
 Alpha  occ. eigenvalues --   -0.67736  -0.67601  -0.66845  -0.66511  -0.66129
 Alpha  occ. eigenvalues --   -0.65245  -0.65021  -0.64220  -0.63747  -0.63378
 Alpha  occ. eigenvalues --   -0.62681  -0.62145  -0.61234  -0.60962  -0.60240
 Alpha  occ. eigenvalues --   -0.59599  -0.58786  -0.58339  -0.57832  -0.57270
 Alpha  occ. eigenvalues --   -0.56860  -0.56378  -0.55725  -0.55619  -0.55465
 Alpha  occ. eigenvalues --   -0.55318  -0.54778  -0.54638  -0.54429  -0.54247
 Alpha  occ. eigenvalues --   -0.53841  -0.52890  -0.52454  -0.52436  -0.52356
 Alpha  occ. eigenvalues --   -0.52065  -0.51874  -0.51228  -0.51104  -0.50754
 Alpha  occ. eigenvalues --   -0.50573  -0.50312  -0.49765  -0.49490  -0.49454
 Alpha  occ. eigenvalues --   -0.49320  -0.48796  -0.48332  -0.48276  -0.47923
 Alpha  occ. eigenvalues --   -0.47505  -0.47073  -0.46568  -0.46204  -0.45986
 Alpha  occ. eigenvalues --   -0.45941  -0.45368  -0.45105  -0.45023  -0.44675
 Alpha  occ. eigenvalues --   -0.44356  -0.44204  -0.44129  -0.43956  -0.43892
 Alpha  occ. eigenvalues --   -0.43677  -0.42754  -0.42264  -0.42203  -0.42090
 Alpha  occ. eigenvalues --   -0.41861  -0.41326  -0.41227  -0.40728  -0.40050
 Alpha  occ. eigenvalues --   -0.39233  -0.38804  -0.38759  -0.38610  -0.38146
 Alpha  occ. eigenvalues --   -0.36546  -0.36091  -0.36042  -0.35703  -0.35121
 Alpha  occ. eigenvalues --   -0.34934  -0.34667  -0.34254  -0.33820  -0.32707
 Alpha  occ. eigenvalues --   -0.32195  -0.31397  -0.30065  -0.29781  -0.29141
 Alpha virt. eigenvalues --   -0.16449  -0.13575  -0.08464  -0.06997  -0.06486
 Alpha virt. eigenvalues --   -0.05812  -0.05525  -0.05422  -0.03689  -0.02604
 Alpha virt. eigenvalues --   -0.01790  -0.01713  -0.00854  -0.00832  -0.00396

 Mulliken charges:
               1
     1  N   -0.738169
     2  H    0.353402
     3  H    0.337185
     4  C   -0.075926
     5  H    0.236112
     6  C    0.613520
     7  C   -0.375166
     8  H    0.220508
     9  H    0.171012
    10  O   -0.581934
    11  C    0.530463
    12  N   -0.785279
    13  H    0.478990
    14  H    0.367975
    15  O   -0.408571
    16  N   -0.542460
    17  H    0.421991
    18  C   -0.081717
    19  H    0.194800
    20  C    0.656915
    21  C   -0.082126
    22  H    0.137873
    23  O   -0.556072
    24  C   -0.276366
    25  H    0.164911
    26  H    0.160362
    27  C   -0.485871
    28  H    0.212684
    29  H    0.164321
    30  H    0.123392
    31  C   -0.462203
    32  H    0.178673
    33  H    0.144517
    34  H    0.147051
    35  N   -0.628168
    36  H    0.375597
    37  C   -0.064283
    38  H    0.205468
    39  C    0.627683
    40  C   -0.454894
    41  H    0.170776
    42  H    0.183190
    43  H    0.165607
    44  O   -0.550049
    45  N   -0.603487
    46  H    0.369231
    47  C   -0.078858
    48  H    0.181384
    49  C    0.622599
    50  C    0.132621
    51  H    0.130812
    52  O   -0.548314
    53  C   -0.449498
    54  H    0.155090
    55  H    0.166861
    56  H    0.156143
    57  O   -0.652864
    58  H    0.449417
    59  N   -0.593142
    60  H    0.362439
    61  C   -0.076443
    62  H    0.180055
    63  C    0.628469
    64  C   -0.047905
    65  H    0.155679
    66  H    0.152075
    67  O   -0.536645
    68  O   -0.615251
    69  H    0.415652
    70  N   -0.601049
    71  H    0.346570
    72  C   -0.234996
    73  H    0.193601
    74  H    0.221209
    75  C    0.617301
    76  O   -0.512185
    77  N   -0.619763
    78  H    0.362780
    79  C   -0.016554
    80  H    0.193649
    81  C    0.595501
    82  C   -0.331734
    83  H    0.189032
    84  H    0.146359
    85  O   -0.468643
    86  C   -0.264293
    87  H    0.150503
    88  H    0.147627
    89  C   -0.265521
    90  H    0.117612
    91  H    0.151566
    92  C   -0.135963
    93  H    0.121820
    94  H    0.148113
    95  N   -0.744715
    96  H    0.295297
    97  H    0.314865
    98  O   -0.561970
    99  H    0.412724
   100  H    0.379414
 Sum of Mulliken charges =   1.00000

 Dipole moment (field-independent basis, Debye):
    X=            -22.0059    Y=              2.6671    Z=              5.2885  Tot=             22.7891
 Quadrupole moment (field-independent basis, Debye-Ang):
   XX=            -50.6926   YY=           -257.9936   ZZ=           -216.3628
   XY=             42.4032   XZ=           -135.5978   YZ=            -10.4404

 Normal termination of Gaussian 16 at Fri May 27 02:50:42 2022.
