 Gaussian 16, Revision C.01,
 Gaussian 16:  ES64L-G16RevC.01  3-Jul-2019

 -------------------------------------------------------------------
 # B3LYP/6-31G* guess=read geom=check nosymm integral(ultrafinegrid)
 -------------------------------------------------------------------

 ------------------------------------------------------
 Candidate Structure: Conf:797 Charge calc in gas phase
 ------------------------------------------------------
 Structure from the checkpoint file:  "conf-797.chk"
 Charge =  1 Multiplicity = 1

                          Input orientation:
 ---------------------------------------------------------------------
 Center     Atomic      Atomic             Coordinates (Angstroms)
 Number     Number       Type             X           Y           Z
 ---------------------------------------------------------------------
      1          7           0       -5.619768    1.167833    4.551795
      2          1           0       -4.801224    0.858813    5.065140
      3          1           0       -5.992804    0.433006    3.961794
      4          6           0       -5.531165    2.471690    3.950283
      5          1           0       -6.451060    2.623595    3.368381
      6          6           0       -4.374638    2.643227    2.935912
      7          6           0       -5.519332    3.578894    5.049304
      8          1           0       -6.215743    3.241739    5.818567
      9          1           0       -4.523675    3.678129    5.498130
     10          8           0       -4.017611    3.798319    2.436603
     11          6           0       -6.048230    4.895670    4.487976
     12          7           0       -5.046245    5.784773    4.034782
     13          1           0       -4.246125    5.916109    4.650862
     14          1           0       -5.429128    6.671600    3.709591
     15          8           0       -7.220399    5.091419    4.270292
     16          7           0       -3.755771    1.586403    2.509225
     17          1           0       -4.047534    0.658899    2.842674
     18          6           0       -2.687046    1.488272    1.501751
     19          1           0       -2.939679    2.155607    0.673433
     20          6           0       -2.777319    0.006002    1.061317
     21          6           0       -1.306641    1.904622    2.108614
     22          1           0       -1.495898    2.888807    2.560185
     23          8           0       -3.368017   -0.799500    1.785024
     24          6           0       -0.201740    2.093970    1.047119
     25          1           0        0.097015    1.124752    0.636334
     26          1           0        0.683658    2.450734    1.587259
     27          6           0       -0.843184    0.932955    3.204652
     28          1           0       -0.583454   -0.042433    2.781106
     29          1           0        0.051854    1.330602    3.693434
     30          1           0       -1.602239    0.781216    3.981280
     31          6           0       -0.503786    3.087020   -0.081163
     32          1           0        0.385597    3.202187   -0.706756
     33          1           0       -1.318259    2.758598   -0.742978
     34          1           0       -0.780227    4.075286    0.306598
     35          7           0       -2.225281   -0.300800   -0.129327
     36          1           0       -1.633132    0.399354   -0.560108
     37          6           0       -1.999408   -1.683659   -0.549051
     38          1           0       -2.595347   -2.301510    0.129927
     39          6           0       -0.506300   -2.012890   -0.300318
     40          6           0       -2.471910   -1.898592   -1.993254
     41          1           0       -2.423495   -2.954423   -2.277436
     42          1           0       -3.514061   -1.582948   -2.091506
     43          1           0       -1.867596   -1.325898   -2.705601
     44          8           0        0.174067   -1.298933    0.443967
     45          7           0       -0.002207   -3.098526   -0.917473
     46          1           0       -0.526548   -3.638018   -1.597431
     47          6           0        1.395001   -3.511163   -0.767654
     48          1           0        1.710438   -3.257922    0.249257
     49          6           0        2.277735   -2.742028   -1.784905
     50          6           0        1.489256   -5.029896   -1.022737
     51          1           0        2.555328   -5.291150   -1.040184
     52          8           0        2.806424   -3.312953   -2.742429
     53          6           0        0.780178   -5.863809    0.035476
     54          1           0        1.225649   -5.701962    1.022986
     55          1           0        0.868938   -6.923718   -0.217932
     56          1           0       -0.285045   -5.616304    0.091308
     57          8           0        0.893361   -5.313295   -2.287771
     58          1           0        1.504843   -4.918067   -2.939211
     59          7           0        2.396924   -1.415586   -1.547855
     60          1           0        1.895252   -0.991706   -0.768381
     61          6           0        3.139051   -0.518025   -2.417929
     62          1           0        4.129430   -0.941043   -2.620823
     63          6           0        3.232918    0.836277   -1.706967
     64          6           0        2.421091   -0.313657   -3.772784
     65          1           0        1.446402    0.156438   -3.582908
     66          1           0        2.263678   -1.297584   -4.228058
     67          8           0        2.321166    1.226519   -0.977707
     68          8           0        3.238625    0.502929   -4.603175
     69          1           0        2.651869    1.017171   -5.193820
     70          7           0        4.337980    1.573603   -1.986450
     71          1           0        5.002392    1.195227   -2.648982
     72          6           0        4.426955    2.981733   -1.638711
     73          1           0        3.854230    3.145245   -0.724828
     74          1           0        5.469075    3.243231   -1.431735
     75          6           0        3.905863    3.973282   -2.695808
     76          8           0        3.833747    5.164355   -2.423258
     77          7           0        3.585317    3.439138   -3.908106
     78          1           0        3.624042    2.431618   -4.044692
     79          6           0        3.167235    4.276009   -5.016445
     80          1           0        2.917429    5.254806   -4.598519
     81          6           0        1.930531    3.691049   -5.679508
     82          6           0        4.268314    4.455640   -6.098575
     83          1           0        4.482250    3.476398   -6.550052
     84          1           0        3.856668    5.089091   -6.894961
     85          8           0        1.626127    2.509205   -5.720130
     86          6           0        5.559703    5.067455   -5.545506
     87          1           0        5.330370    6.017784   -5.044897
     88          1           0        5.989091    4.409947   -4.783316
     89          6           0        6.615534    5.300497   -6.633308
     90          1           0        6.266252    6.062132   -7.343970
     91          1           0        6.755772    4.378302   -7.218405
     92          6           0        7.972494    5.736506   -6.066327
     93          1           0        8.621906    6.057482   -6.899315
     94          1           0        7.829780    6.615042   -5.424257
     95          7           0        8.559227    4.672577   -5.237972
     96          1           0        9.382820    5.027866   -4.755215
     97          1           0        8.893880    3.921725   -5.841732
     98          8           0        1.203045    4.632131   -6.300489
     99          1           0        0.478306    4.175442   -6.770099
    100          1           0       -4.434429    4.600059    2.884976
 ---------------------------------------------------------------------

 SCF Done:  E(RB3LYP) =  -2418.43012528     A.U. after    1 cycles

 Alpha  occ. eigenvalues --  -19.35084 -19.28052 -19.26421 -19.24007 -19.23017
 Alpha  occ. eigenvalues --  -19.21738 -19.21239 -19.20611 -19.19821 -19.19565
 Alpha  occ. eigenvalues --  -19.17057 -14.53383 -14.50546 -14.47605 -14.46077
 Alpha  occ. eigenvalues --  -14.45454 -14.44284 -14.43334 -14.41942 -14.35778
 Alpha  occ. eigenvalues --  -10.47281 -10.43456 -10.41040 -10.40634 -10.39399
 Alpha  occ. eigenvalues --  -10.38431 -10.36821 -10.36551 -10.36506 -10.34870
 Alpha  occ. eigenvalues --  -10.33863 -10.33850 -10.30994 -10.30974 -10.30812
 Alpha  occ. eigenvalues --  -10.30742 -10.30494 -10.30481 -10.29595 -10.28422
 Alpha  occ. eigenvalues --  -10.26774 -10.26570 -10.25983 -10.25191 -10.25156
 Alpha  occ. eigenvalues --  -10.24077 -10.22843 -10.22764  -1.25269  -1.19234
 Alpha  occ. eigenvalues --   -1.18241  -1.16209  -1.13256  -1.11934  -1.11161
 Alpha  occ. eigenvalues --   -1.10723  -1.10196  -1.09137  -1.08801  -1.08123
 Alpha  occ. eigenvalues --   -1.04806  -1.04066  -1.03684  -1.01513  -1.00635
 Alpha  occ. eigenvalues --   -0.99687  -0.98445  -0.92889  -0.92372  -0.90752
 Alpha  occ. eigenvalues --   -0.88108  -0.86272  -0.86063  -0.84897  -0.83466
 Alpha  occ. eigenvalues --   -0.81702  -0.81516  -0.80156  -0.79223  -0.79120
 Alpha  occ. eigenvalues --   -0.77979  -0.75477  -0.75045  -0.72730  -0.72418
 Alpha  occ. eigenvalues --   -0.72059  -0.70864  -0.69776  -0.69578  -0.68812
 Alpha  occ. eigenvalues --   -0.68271  -0.67501  -0.67330  -0.66740  -0.66534
 Alpha  occ. eigenvalues --   -0.65864  -0.65300  -0.64664  -0.64521  -0.63608
 Alpha  occ. eigenvalues --   -0.62712  -0.62514  -0.61360  -0.60946  -0.60324
 Alpha  occ. eigenvalues --   -0.60098  -0.58876  -0.58780  -0.58331  -0.57852
 Alpha  occ. eigenvalues --   -0.57320  -0.57125  -0.56905  -0.56583  -0.55768
 Alpha  occ. eigenvalues --   -0.55463  -0.54665  -0.54132  -0.54118  -0.53988
 Alpha  occ. eigenvalues --   -0.53960  -0.53415  -0.53293  -0.52711  -0.52690
 Alpha  occ. eigenvalues --   -0.52551  -0.52295  -0.51955  -0.51379  -0.51012
 Alpha  occ. eigenvalues --   -0.50572  -0.50459  -0.50298  -0.50030  -0.49743
 Alpha  occ. eigenvalues --   -0.49698  -0.49212  -0.48960  -0.48784  -0.48485
 Alpha  occ. eigenvalues --   -0.48384  -0.47867  -0.47744  -0.47249  -0.47060
 Alpha  occ. eigenvalues --   -0.46797  -0.46378  -0.46129  -0.45868  -0.45316
 Alpha  occ. eigenvalues --   -0.44928  -0.44697  -0.44525  -0.44266  -0.43952
 Alpha  occ. eigenvalues --   -0.43578  -0.43168  -0.42489  -0.42316  -0.42032
 Alpha  occ. eigenvalues --   -0.41561  -0.41273  -0.41227  -0.40695  -0.40309
 Alpha  occ. eigenvalues --   -0.39824  -0.39414  -0.39058  -0.38209  -0.37997
 Alpha  occ. eigenvalues --   -0.37819  -0.37799  -0.37305  -0.36819  -0.36537
 Alpha  occ. eigenvalues --   -0.35530  -0.35085  -0.34614  -0.34136  -0.33750
 Alpha  occ. eigenvalues --   -0.32203  -0.31888  -0.31429  -0.30304  -0.27984
 Alpha virt. eigenvalues --   -0.16524  -0.13185  -0.09692  -0.07906  -0.07584
 Alpha virt. eigenvalues --   -0.06302  -0.06207  -0.05520  -0.04979  -0.03264
 Alpha virt. eigenvalues --   -0.03189  -0.02055  -0.01118  -0.00488   0.00032

 Mulliken charges:
               1
     1  N   -0.727864
     2  H    0.335782
     3  H    0.350645
     4  C   -0.064139
     5  H    0.233069
     6  C    0.597330
     7  C   -0.357640
     8  H    0.242849
     9  H    0.167389
    10  O   -0.575687
    11  C    0.526238
    12  N   -0.789467
    13  H    0.367476
    14  H    0.378216
    15  O   -0.404310
    16  N   -0.549354
    17  H    0.378294
    18  C   -0.090633
    19  H    0.200921
    20  C    0.643983
    21  C   -0.080115
    22  H    0.140022
    23  O   -0.540431
    24  C   -0.293649
    25  H    0.199797
    26  H    0.162633
    27  C   -0.472949
    28  H    0.199396
    29  H    0.170009
    30  H    0.123087
    31  C   -0.473998
    32  H    0.196612
    33  H    0.118696
    34  H    0.147320
    35  N   -0.582938
    36  H    0.357902
    37  C   -0.086482
    38  H    0.221876
    39  C    0.627425
    40  C   -0.468731
    41  H    0.175395
    42  H    0.181581
    43  H    0.166503
    44  O   -0.532806
    45  N   -0.603328
    46  H    0.356893
    47  C   -0.077891
    48  H    0.188252
    49  C    0.631462
    50  C    0.110472
    51  H    0.155561
    52  O   -0.540702
    53  C   -0.449560
    54  H    0.150881
    55  H    0.178627
    56  H    0.144912
    57  O   -0.649166
    58  H    0.421259
    59  N   -0.650175
    60  H    0.388014
    61  C   -0.030271
    62  H    0.181509
    63  C    0.601646
    64  C   -0.038208
    65  H    0.134863
    66  H    0.175617
    67  O   -0.538293
    68  O   -0.661811
    69  H    0.443541
    70  N   -0.598127
    71  H    0.352120
    72  C   -0.239710
    73  H    0.212069
    74  H    0.200307
    75  C    0.605992
    76  O   -0.514610
    77  N   -0.638755
    78  H    0.368291
    79  C   -0.048817
    80  H    0.207794
    81  C    0.597746
    82  C   -0.273022
    83  H    0.142605
    84  H    0.157697
    85  O   -0.501621
    86  C   -0.252088
    87  H    0.148977
    88  H    0.163547
    89  C   -0.255305
    90  H    0.134891
    91  H    0.126110
    92  C   -0.143898
    93  H    0.124184
    94  H    0.144274
    95  N   -0.718739
    96  H    0.302845
    97  H    0.294486
    98  O   -0.544107
    99  H    0.420822
   100  H    0.480685
 Sum of Mulliken charges =   1.00000

 Dipole moment (field-independent basis, Debye):
    X=            -10.0110    Y=             12.0410    Z=              5.1063  Tot=             16.4706
 Quadrupole moment (field-independent basis, Debye-Ang):
   XX=           -185.1796   YY=           -223.3877   ZZ=           -182.8863
   XY=            -29.5102   XZ=            -70.0686   YZ=             18.3442

 Normal termination of Gaussian 16 at Fri May 27 02:49:51 2022.
