 Gaussian 16, Revision C.01,
 Gaussian 16:  ES64L-G16RevC.01  3-Jul-2019

 -------------------------------------------------------------------
 # B3LYP/6-31G* guess=read geom=check nosymm integral(ultrafinegrid)
 -------------------------------------------------------------------

 ------------------------------------------------------
 Candidate Structure: Conf:112 Charge calc in gas phase
 ------------------------------------------------------
 Structure from the checkpoint file:  "conf-112.chk"
 Charge =  1 Multiplicity = 1

                          Input orientation:
 ---------------------------------------------------------------------
 Center     Atomic      Atomic             Coordinates (Angstroms)
 Number     Number       Type             X           Y           Z
 ---------------------------------------------------------------------
      1          7           0       -6.690026   -0.137572    5.877408
      2          1           0       -6.133393   -0.091234    6.735742
      3          1           0       -7.501026   -0.810124    6.002425
      4          6           0       -5.887263   -0.637680    4.705462
      5          1           0       -5.153951   -1.355716    5.081101
      6          6           0       -5.226922    0.631108    4.107150
      7          6           0       -6.830832   -1.302492    3.679858
      8          1           0       -7.478723   -0.532931    3.238595
      9          1           0       -6.223511   -1.710752    2.866529
     10          8           0       -5.770527    1.714116    4.332298
     11          6           0       -7.736683   -2.369652    4.304987
     12          7           0       -8.019262   -3.445070    3.556119
     13          1           0       -6.967963    0.832844    5.630085
     14          1           0       -8.669482   -4.132175    3.920034
     15          8           0       -8.203375   -2.211436    5.443030
     16          7           0       -4.129413    0.431770    3.371999
     17          1           0       -3.794678   -0.506529    3.167026
     18          6           0       -3.449916    1.472867    2.593905
     19          1           0       -4.145757    2.311143    2.489661
     20          6           0       -3.154105    0.804249    1.239724
     21          6           0       -2.128624    1.972050    3.275449
     22          1           0       -1.417412    1.133628    3.256233
     23          8           0       -2.936409   -0.418397    1.203943
     24          6           0       -2.384324    2.361795    4.747736
     25          1           0       -2.872507    1.521711    5.256208
     26          1           0       -3.093048    3.200613    4.784085
     27          6           0       -1.517470    3.139274    2.480699
     28          1           0       -2.219816    3.981237    2.408642
     29          1           0       -0.622012    3.509686    2.985058
     30          1           0       -1.206441    2.855200    1.471682
     31          6           0       -1.113646    2.715641    5.531108
     32          1           0       -1.351635    2.870090    6.588813
     33          1           0       -0.371963    1.910490    5.470132
     34          1           0       -0.642898    3.634629    5.169625
     35          7           0       -3.126844    1.592201    0.148392
     36          1           0       -3.233797    2.591920    0.272998
     37          6           0       -2.570253    1.145555   -1.145820
     38          1           0       -2.972597    0.146349   -1.334742
     39          6           0       -1.037318    1.074443   -0.967725
     40          6           0       -2.965197    2.102227   -2.263594
     41          1           0       -2.536647    1.758576   -3.209717
     42          1           0       -4.053259    2.150842   -2.366072
     43          1           0       -2.570407    3.104486   -2.070251
     44          8           0       -0.322688    2.069233   -1.139063
     45          7           0       -0.575569   -0.110974   -0.523470
     46          1           0       -1.238209   -0.869957   -0.429516
     47          6           0        0.801755   -0.333443   -0.062917
     48          1           0        1.156987    0.623095    0.334783
     49          6           0        1.639301   -0.728723   -1.299155
     50          6           0        0.800900   -1.373006    1.075248
     51          1           0        0.475592   -2.338228    0.658120
     52          8           0        1.958533   -1.896940   -1.535971
     53          6           0        2.182067   -1.539706    1.692211
     54          1           0        2.892595   -1.910458    0.949951
     55          1           0        2.128107   -2.257074    2.515722
     56          1           0        2.541686   -0.585902    2.094474
     57          8           0       -0.084364   -0.958337    2.120136
     58          1           0       -0.998081   -0.975108    1.787814
     59          7           0        1.911347    0.319053   -2.108250
     60          1           0        1.542841    1.213827   -1.801559
     61          6           0        2.200674    0.189164   -3.544458
     62          1           0        1.672916   -0.705314   -3.909111
     63          6           0        3.701301    0.002469   -3.840987
     64          6           0        1.647042    1.422650   -4.281520
     65          1           0        1.778554    1.266689   -5.352995
     66          1           0        2.228433    2.314946   -4.012459
     67          8           0        4.271463    0.661664   -4.712032
     68          8           0        0.255809    1.611393   -4.041781
     69          1           0        0.146191    2.120325   -3.222710
     70          7           0        4.320293   -0.951413   -3.100324
     71          1           0        3.744696   -1.549001   -2.511707
     72          6           0        5.723927   -1.295679   -3.311438
     73          1           0        6.273211   -0.372950   -3.519245
     74          1           0        6.114555   -1.756715   -2.403187
     75          6           0        5.888105   -2.308512   -4.458263
     76          8           0        6.075744   -3.501015   -4.243463
     77          7           0        5.748433   -1.762578   -5.698021
     78          1           0        5.550730   -0.768468   -5.774035
     79          6           0        5.672374   -2.576004   -6.894756
     80          1           0        6.077300   -3.559141   -6.639796
     81          6           0        6.529930   -1.946697   -7.984655
     82          6           0        4.215642   -2.734780   -7.408678
     83          1           0        3.840139   -1.740125   -7.688066
     84          1           0        4.232562   -3.337692   -8.324592
     85          8           0        6.897305   -0.794098   -8.008609
     86          6           0        3.278423   -3.360614   -6.369227
     87          1           0        3.592033   -4.392852   -6.160934
     88          1           0        3.386381   -2.807240   -5.430249
     89          6           0        1.804993   -3.329640   -6.793365
     90          1           0        1.665004   -3.923897   -7.707077
     91          1           0        1.517246   -2.297526   -7.034407
     92          6           0        0.849154   -3.854367   -5.716061
     93          1           0       -0.176634   -3.802748   -6.100359
     94          1           0        1.062837   -4.921140   -5.525467
     95          7           0        0.903993   -3.028179   -4.496049
     96          1           0        1.742429   -3.242383   -3.959145
     97          1           0        0.130831   -3.276164   -3.880880
     98          8           0        6.797044   -2.831346   -8.973507
     99          1           0        7.308247   -2.344392   -9.647677
    100          1           0       -7.656716   -3.578172    2.622783
 ---------------------------------------------------------------------

 SCF Done:  E(RB3LYP) =  -2418.43959800     A.U. after    1 cycles

 Alpha  occ. eigenvalues --  -19.28501 -19.27689 -19.25496 -19.23310 -19.22535
 Alpha  occ. eigenvalues --  -19.22396 -19.19910 -19.19777 -19.17579 -19.16778
 Alpha  occ. eigenvalues --  -19.14554 -14.59354 -14.51759 -14.51296 -14.49539
 Alpha  occ. eigenvalues --  -14.46889 -14.43133 -14.40855 -14.38784 -14.36033
 Alpha  occ. eigenvalues --  -10.46115 -10.44984 -10.42769 -10.42343 -10.39488
 Alpha  occ. eigenvalues --  -10.37800 -10.36698 -10.36488 -10.35526 -10.34894
 Alpha  occ. eigenvalues --  -10.33795 -10.32229 -10.31946 -10.31931 -10.30630
 Alpha  occ. eigenvalues --  -10.28617 -10.28421 -10.28279 -10.27927 -10.27571
 Alpha  occ. eigenvalues --  -10.27096 -10.26846 -10.26257 -10.24953 -10.24468
 Alpha  occ. eigenvalues --  -10.22807 -10.21820 -10.21799  -1.20577  -1.19768
 Alpha  occ. eigenvalues --   -1.17168  -1.14230  -1.14148  -1.14025  -1.11376
 Alpha  occ. eigenvalues --   -1.09801  -1.08534  -1.07756  -1.07019  -1.06756
 Alpha  occ. eigenvalues --   -1.06385  -1.05508  -1.05159  -1.02827  -0.99500
 Alpha  occ. eigenvalues --   -0.96875  -0.95891  -0.95579  -0.92402  -0.92338
 Alpha  occ. eigenvalues --   -0.88922  -0.86539  -0.85859  -0.83774  -0.83479
 Alpha  occ. eigenvalues --   -0.82381  -0.80889  -0.79752  -0.79016  -0.76477
 Alpha  occ. eigenvalues --   -0.76425  -0.75373  -0.74772  -0.74431  -0.73342
 Alpha  occ. eigenvalues --   -0.73170  -0.72613  -0.71397  -0.70651  -0.69589
 Alpha  occ. eigenvalues --   -0.68728  -0.68204  -0.67609  -0.66658  -0.66365
 Alpha  occ. eigenvalues --   -0.66061  -0.65206  -0.64761  -0.64174  -0.62957
 Alpha  occ. eigenvalues --   -0.62535  -0.61737  -0.61417  -0.60863  -0.60721
 Alpha  occ. eigenvalues --   -0.60484  -0.60047  -0.59548  -0.59129  -0.58540
 Alpha  occ. eigenvalues --   -0.58396  -0.57497  -0.57311  -0.56252  -0.56234
 Alpha  occ. eigenvalues --   -0.55445  -0.55210  -0.54770  -0.54318  -0.53477
 Alpha  occ. eigenvalues --   -0.53386  -0.53264  -0.52716  -0.52612  -0.52355
 Alpha  occ. eigenvalues --   -0.51882  -0.51607  -0.51204  -0.51079  -0.50682
 Alpha  occ. eigenvalues --   -0.50379  -0.49923  -0.49678  -0.49198  -0.48995
 Alpha  occ. eigenvalues --   -0.48548  -0.48359  -0.48079  -0.47677  -0.47363
 Alpha  occ. eigenvalues --   -0.47228  -0.46812  -0.46618  -0.46536  -0.45929
 Alpha  occ. eigenvalues --   -0.45766  -0.45354  -0.45156  -0.44414  -0.44395
 Alpha  occ. eigenvalues --   -0.43906  -0.43880  -0.43697  -0.43555  -0.43089
 Alpha  occ. eigenvalues --   -0.42849  -0.42744  -0.42687  -0.42605  -0.41928
 Alpha  occ. eigenvalues --   -0.41795  -0.41510  -0.41153  -0.40629  -0.40545
 Alpha  occ. eigenvalues --   -0.39813  -0.39281  -0.38894  -0.38371  -0.37372
 Alpha  occ. eigenvalues --   -0.37023  -0.36845  -0.36615  -0.35775  -0.35583
 Alpha  occ. eigenvalues --   -0.35256  -0.34388  -0.33048  -0.32525  -0.31884
 Alpha  occ. eigenvalues --   -0.31067  -0.29622  -0.28577  -0.28136  -0.27455
 Alpha virt. eigenvalues --   -0.14389  -0.13446  -0.11767  -0.10572  -0.08979
 Alpha virt. eigenvalues --   -0.06624  -0.06261  -0.05946  -0.03972  -0.03461
 Alpha virt. eigenvalues --   -0.03324  -0.02563  -0.02439  -0.01887  -0.00914

 Mulliken charges:
               1
     1  N   -0.753988
     2  H    0.412273
     3  H    0.447339
     4  C   -0.125046
     5  H    0.218548
     6  C    0.646775
     7  C   -0.400439
     8  H    0.231106
     9  H    0.203037
    10  O   -0.520595
    11  C    0.648672
    12  N   -0.724685
    13  H    0.418981
    14  H    0.386383
    15  O   -0.532408
    16  N   -0.597303
    17  H    0.360352
    18  C   -0.075715
    19  H    0.188232
    20  C    0.640138
    21  C   -0.090909
    22  H    0.168778
    23  O   -0.576005
    24  C   -0.252058
    25  H    0.113389
    26  H    0.151411
    27  C   -0.496423
    28  H    0.147968
    29  H    0.186318
    30  H    0.171049
    31  C   -0.456289
    32  H    0.157771
    33  H    0.161048
    34  H    0.165160
    35  N   -0.583730
    36  H    0.356296
    37  C   -0.057448
    38  H    0.179988
    39  C    0.653281
    40  C   -0.487462
    41  H    0.212469
    42  H    0.167529
    43  H    0.180485
    44  O   -0.565099
    45  N   -0.595645
    46  H    0.349501
    47  C   -0.074188
    48  H    0.184827
    49  C    0.645069
    50  C    0.107884
    51  H    0.140825
    52  O   -0.549005
    53  C   -0.461372
    54  H    0.180742
    55  H    0.168593
    56  H    0.154672
    57  O   -0.657977
    58  H    0.410879
    59  N   -0.604799
    60  H    0.353254
    61  C   -0.111321
    62  H    0.236723
    63  C    0.632066
    64  C   -0.072664
    65  H    0.184530
    66  H    0.150104
    67  O   -0.540229
    68  O   -0.647795
    69  H    0.411675
    70  N   -0.611204
    71  H    0.371294
    72  C   -0.232521
    73  H    0.190469
    74  H    0.177846
    75  C    0.591295
    76  O   -0.516557
    77  N   -0.589600
    78  H    0.369143
    79  C   -0.052898
    80  H    0.201519
    81  C    0.583258
    82  C   -0.269512
    83  H    0.145059
    84  H    0.159525
    85  O   -0.458861
    86  C   -0.269610
    87  H    0.146316
    88  H    0.142670
    89  C   -0.241225
    90  H    0.131803
    91  H    0.139352
    92  C   -0.145280
    93  H    0.135601
    94  H    0.121912
    95  N   -0.723709
    96  H    0.316659
    97  H    0.291402
    98  O   -0.566792
    99  H    0.414738
   100  H    0.372382
 Sum of Mulliken charges =   1.00000

 Dipole moment (field-independent basis, Debye):
    X=            -31.3947    Y=             -3.2200    Z=             19.1355  Tot=             36.9075
 Quadrupole moment (field-independent basis, Debye-Ang):
   XX=           -118.8580   YY=           -262.7433   ZZ=           -180.8482
   XY=             43.1198   XZ=            -99.7320   YZ=             -0.6314

 Normal termination of Gaussian 16 at Fri May 27 02:48:56 2022.
