 Gaussian 16, Revision C.01,
 Gaussian 16:  ES64L-G16RevC.01  3-Jul-2019

 -------------------------------------------------------------------
 # B3LYP/6-31G* guess=read geom=check nosymm integral(ultrafinegrid)
 -------------------------------------------------------------------

 ------------------------------------------------------
 Candidate Structure: Conf:746 Charge calc in gas phase
 ------------------------------------------------------
 Structure from the checkpoint file:  "conf-746.chk"
 Charge =  1 Multiplicity = 1

                          Input orientation:
 ---------------------------------------------------------------------
 Center     Atomic      Atomic             Coordinates (Angstroms)
 Number     Number       Type             X           Y           Z
 ---------------------------------------------------------------------
      1          7           0       -7.587544   -0.924448    2.982172
      2          1           0       -8.299685   -1.548193    3.357290
      3          1           0       -7.799364   -0.780123    1.995640
      4          6           0       -6.259938   -1.516702    3.116884
      5          1           0       -6.072639   -1.639195    4.192203
      6          6           0       -5.253844   -0.517776    2.542789
      7          6           0       -6.067847   -2.879607    2.396160
      8          1           0       -6.634587   -3.649250    2.938260
      9          1           0       -6.490476   -2.815919    1.390331
     10          8           0       -5.119680   -0.341609    1.337890
     11          6           0       -4.637844   -3.383316    2.206384
     12          7           0       -3.683265   -3.047048    3.196609
     13          1           0       -4.059078   -2.951762    4.137347
     14          1           0       -2.873067   -1.594299    2.714221
     15          8           0       -4.307745   -4.013802    1.221600
     16          7           0       -4.420712    0.096666    3.441196
     17          1           0       -4.644815    0.090752    4.427055
     18          6           0       -3.401158    1.011123    2.964372
     19          1           0       -3.865297    1.779732    2.337145
     20          6           0       -2.434305    0.243475    2.065844
     21          6           0       -2.679861    1.694258    4.171796
     22          1           0       -3.508824    2.052128    4.800626
     23          8           0       -2.206628   -1.027058    2.183621
     24          6           0       -1.854381    2.938077    3.779243
     25          1           0       -1.009861    2.651398    3.138795
     26          1           0       -1.399711    3.311719    4.704709
     27          6           0       -1.835732    0.706259    4.993775
     28          1           0       -0.949320    0.374560    4.440585
     29          1           0       -1.485302    1.189167    5.910757
     30          1           0       -2.397828   -0.187241    5.288577
     31          6           0       -2.644744    4.080047    3.128226
     32          1           0       -2.001596    4.954658    2.993039
     33          1           0       -3.038439    3.822970    2.136905
     34          1           0       -3.494051    4.383829    3.751268
     35          7           0       -1.722111    0.891796    1.184642
     36          1           0       -1.789044    1.907601    1.090876
     37          6           0       -0.666687    0.316484    0.338016
     38          1           0       -0.251744   -0.549656    0.857893
     39          6           0        0.377383    1.446998    0.224079
     40          6           0       -1.218756   -0.097938   -1.034626
     41          1           0       -0.417386   -0.530216   -1.641601
     42          1           0       -2.007025   -0.846520   -0.916292
     43          1           0       -1.626575    0.769259   -1.562640
     44          8           0        0.008059    2.621740    0.298268
     45          7           0        1.638249    1.029567    0.047872
     46          1           0        1.851661    0.040317   -0.027055
     47          6           0        2.791429    1.891309   -0.138277
     48          1           0        2.462900    2.838352   -0.578571
     49          6           0        3.745217    1.132438   -1.067905
     50          6           0        3.540461    2.161967    1.217444
     51          1           0        4.399443    2.808954    0.982147
     52          8           0        3.596491   -0.075001   -1.280892
     53          6           0        2.661167    2.871029    2.240529
     54          1           0        2.225917    3.789736    1.836366
     55          1           0        3.264648    3.113115    3.119996
     56          1           0        1.849318    2.211242    2.561369
     57          8           0        3.973310    0.939665    1.776441
     58          1           0        4.851789    0.725258    1.402960
     59          7           0        4.796318    1.828460   -1.565903
     60          1           0        5.003560    2.748010   -1.189849
     61          6           0        5.969523    1.093018   -2.014723
     62          1           0        5.693638    0.477999   -2.878217
     63          6           0        6.440531    0.167996   -0.863812
     64          6           0        7.042179    2.094134   -2.461632
     65          1           0        6.717403    2.555548   -3.406035
     66          1           0        7.981917    1.554920   -2.647841
     67          8           0        6.356041    0.509942    0.313901
     68          8           0        7.176027    3.060314   -1.431664
     69          1           0        7.815581    3.731881   -1.713266
     70          7           0        6.914755   -1.041861   -1.249558
     71          1           0        6.863743   -1.295193   -2.227725
     72          6           0        7.219300   -2.097829   -0.294977
     73          1           0        8.108053   -2.647918   -0.611964
     74          1           0        7.438833   -1.621849    0.663840
     75          6           0        6.105352   -3.138027   -0.080026
     76          8           0        6.392149   -4.228037    0.395038
     77          7           0        4.836578   -2.761812   -0.414248
     78          1           0        4.647699   -1.841553   -0.798051
     79          6           0        3.737402   -3.707921   -0.325169
     80          1           0        4.189194   -4.611209    0.106089
     81          6           0        3.231561   -4.097321   -1.720155
     82          6           0        2.566718   -3.244331    0.566413
     83          1           0        2.973827   -2.632946    1.379460
     84          1           0        1.900656   -2.605991   -0.029067
     85          8           0        2.066167   -4.240920   -2.022599
     86          6           0        1.776116   -4.436173    1.134714
     87          1           0        1.663833   -5.194336    0.351391
     88          1           0        2.365652   -4.899135    1.938586
     89          6           0        0.374244   -4.085395    1.652860
     90          1           0       -0.240655   -3.746658    0.805959
     91          1           0        0.412771   -3.253521    2.370316
     92          6           0       -0.295002   -5.296778    2.310472
     93          1           0       -0.119555   -6.184879    1.683270
     94          1           0        0.176774   -5.497269    3.279498
     95          7           0       -1.739835   -5.083699    2.545488
     96          1           0       -2.121211   -5.914737    2.999985
     97          1           0       -2.228456   -5.027044    1.648802
     98          8           0        4.240946   -4.290618   -2.597252
     99          1           0        3.823058   -4.582275   -3.430003
    100          1           0       -2.856952   -3.695085    3.151984
 ---------------------------------------------------------------------

 SCF Done:  E(RB3LYP) =  -2418.43179835     A.U. after    1 cycles

 Alpha  occ. eigenvalues --  -19.32619 -19.26467 -19.24494 -19.23585 -19.22841
 Alpha  occ. eigenvalues --  -19.22493 -19.22326 -19.21089 -19.20963 -19.20582
 Alpha  occ. eigenvalues --  -19.17611 -14.51895 -14.48686 -14.46267 -14.45887
 Alpha  occ. eigenvalues --  -14.45859 -14.45781 -14.42458 -14.41848 -14.40904
 Alpha  occ. eigenvalues --  -10.45893 -10.40307 -10.39965 -10.39567 -10.39018
 Alpha  occ. eigenvalues --  -10.38871 -10.38320 -10.37207 -10.35651 -10.35358
 Alpha  occ. eigenvalues --  -10.33981 -10.33787 -10.33411 -10.32602 -10.32322
 Alpha  occ. eigenvalues --  -10.32222 -10.30428 -10.30308 -10.29683 -10.28945
 Alpha  occ. eigenvalues --  -10.28932 -10.28741 -10.28675 -10.27198 -10.25873
 Alpha  occ. eigenvalues --  -10.25793 -10.25231 -10.24876  -1.23220  -1.17451
 Alpha  occ. eigenvalues --   -1.15759  -1.14882  -1.14403  -1.14194  -1.12819
 Alpha  occ. eigenvalues --   -1.11815  -1.09745  -1.08889  -1.08606  -1.08368
 Alpha  occ. eigenvalues --   -1.05212  -1.02855  -1.02311  -1.01827  -1.00523
 Alpha  occ. eigenvalues --   -0.99269  -0.98853  -0.96692  -0.93354  -0.90329
 Alpha  occ. eigenvalues --   -0.87678  -0.87177  -0.86518  -0.85165  -0.84414
 Alpha  occ. eigenvalues --   -0.82993  -0.82828  -0.80358  -0.79919  -0.79460
 Alpha  occ. eigenvalues --   -0.77030  -0.76228  -0.75548  -0.74149  -0.73183
 Alpha  occ. eigenvalues --   -0.72010  -0.70598  -0.70318  -0.69333  -0.68536
 Alpha  occ. eigenvalues --   -0.68091  -0.67990  -0.67196  -0.66874  -0.66798
 Alpha  occ. eigenvalues --   -0.65817  -0.65638  -0.65021  -0.63902  -0.63243
 Alpha  occ. eigenvalues --   -0.62742  -0.62543  -0.61766  -0.61296  -0.60225
 Alpha  occ. eigenvalues --   -0.59984  -0.59695  -0.58734  -0.57854  -0.57623
 Alpha  occ. eigenvalues --   -0.57207  -0.57063  -0.56683  -0.56214  -0.55967
 Alpha  occ. eigenvalues --   -0.55647  -0.55449  -0.54938  -0.54768  -0.54600
 Alpha  occ. eigenvalues --   -0.54030  -0.53604  -0.53477  -0.53245  -0.53013
 Alpha  occ. eigenvalues --   -0.52818  -0.52478  -0.52016  -0.51998  -0.51836
 Alpha  occ. eigenvalues --   -0.51319  -0.51062  -0.50783  -0.50631  -0.50164
 Alpha  occ. eigenvalues --   -0.49939  -0.49629  -0.49205  -0.49065  -0.48769
 Alpha  occ. eigenvalues --   -0.48400  -0.48077  -0.47992  -0.47900  -0.47418
 Alpha  occ. eigenvalues --   -0.47344  -0.46952  -0.46782  -0.46464  -0.46354
 Alpha  occ. eigenvalues --   -0.46072  -0.45962  -0.45665  -0.45365  -0.44376
 Alpha  occ. eigenvalues --   -0.44264  -0.44046  -0.43630  -0.43592  -0.43507
 Alpha  occ. eigenvalues --   -0.43361  -0.42577  -0.42042  -0.40744  -0.40667
 Alpha  occ. eigenvalues --   -0.40336  -0.40161  -0.39951  -0.38442  -0.38357
 Alpha  occ. eigenvalues --   -0.37636  -0.37585  -0.37011  -0.36579  -0.36510
 Alpha  occ. eigenvalues --   -0.36245  -0.36088  -0.35970  -0.35360  -0.34234
 Alpha  occ. eigenvalues --   -0.33754  -0.33269  -0.33229  -0.31281  -0.31102
 Alpha virt. eigenvalues --   -0.14545  -0.10118  -0.09446  -0.08997  -0.08087
 Alpha virt. eigenvalues --   -0.07257  -0.06359  -0.05886  -0.03733  -0.03512
 Alpha virt. eigenvalues --   -0.03056  -0.02175  -0.01435  -0.00981  -0.00457

 Mulliken charges:
               1
     1  N   -0.709400
     2  H    0.322049
     3  H    0.327847
     4  C   -0.073106
     5  H    0.133725
     6  C    0.632679
     7  C   -0.370167
     8  H    0.184819
     9  H    0.207978
    10  O   -0.508989
    11  C    0.568513
    12  N   -0.867186
    13  H    0.332905
    14  H    0.507689
    15  O   -0.449492
    16  N   -0.652055
    17  H    0.351942
    18  C   -0.021463
    19  H    0.208414
    20  C    0.673014
    21  C   -0.123978
    22  H    0.162241
    23  O   -0.598337
    24  C   -0.286436
    25  H    0.154558
    26  H    0.168992
    27  C   -0.472010
    28  H    0.167005
    29  H    0.185176
    30  H    0.140285
    31  C   -0.463506
    32  H    0.181678
    33  H    0.144339
    34  H    0.163593
    35  N   -0.566654
    36  H    0.396949
    37  C   -0.094296
    38  H    0.204026
    39  C    0.642344
    40  C   -0.448356
    41  H    0.187545
    42  H    0.195995
    43  H    0.182957
    44  O   -0.545722
    45  N   -0.596691
    46  H    0.370462
    47  C   -0.082945
    48  H    0.188726
    49  C    0.629768
    50  C    0.127871
    51  H    0.136651
    52  O   -0.553469
    53  C   -0.444788
    54  H    0.157147
    55  H    0.170658
    56  H    0.144526
    57  O   -0.661200
    58  H    0.450006
    59  N   -0.593844
    60  H    0.366559
    61  C   -0.067936
    62  H    0.176277
    63  C    0.624931
    64  C   -0.053147
    65  H    0.159455
    66  H    0.158637
    67  O   -0.536668
    68  O   -0.615269
    69  H    0.418938
    70  N   -0.595375
    71  H    0.345634
    72  C   -0.241673
    73  H    0.200537
    74  H    0.226654
    75  C    0.602968
    76  O   -0.501514
    77  N   -0.637823
    78  H    0.380284
    79  C   -0.052616
    80  H    0.219250
    81  C    0.590337
    82  C   -0.273108
    83  H    0.159777
    84  H    0.134342
    85  O   -0.469206
    86  C   -0.271508
    87  H    0.162246
    88  H    0.147620
    89  C   -0.264678
    90  H    0.140755
    91  H    0.130734
    92  C   -0.137182
    93  H    0.143970
    94  H    0.153749
    95  N   -0.769075
    96  H    0.317044
    97  H    0.341436
    98  O   -0.560048
    99  H    0.416582
   100  H    0.407127
 Sum of Mulliken charges =   1.00000

 Dipole moment (field-independent basis, Debye):
    X=             -2.7601    Y=              0.8406    Z=              6.7881  Tot=              7.3759
 Quadrupole moment (field-independent basis, Debye-Ang):
   XX=           -152.5307   YY=           -244.9632   ZZ=           -210.2715
   XY=             49.6113   XZ=           -102.4912   YZ=            -16.9068

 Normal termination of Gaussian 16 at Fri May 27 02:49:55 2022.
