 Gaussian 16, Revision C.01,
 Gaussian 16:  ES64L-G16RevC.01  3-Jul-2019

 -------------------------------------------------------------------
 # B3LYP/6-31G* guess=read geom=check nosymm integral(ultrafinegrid)
 -------------------------------------------------------------------

 ------------------------------------------------------
 Candidate Structure: Conf:197 Charge calc in gas phase
 ------------------------------------------------------
 Structure from the checkpoint file:  "conf-197.chk"
 Charge =  1 Multiplicity = 1

                          Input orientation:
 ---------------------------------------------------------------------
 Center     Atomic      Atomic             Coordinates (Angstroms)
 Number     Number       Type             X           Y           Z
 ---------------------------------------------------------------------
      1          7           0       -7.803277    3.839573    4.265331
      2          1           0       -7.753070    3.806458    5.287437
      3          1           0       -8.808426    3.965128    3.955062
      4          6           0       -7.304761    2.568949    3.630923
      5          1           0       -7.526111    1.741118    4.308878
      6          6           0       -5.781973    2.784847    3.436365
      7          6           0       -7.996743    2.360892    2.266493
      8          1           0       -7.669816    3.150683    1.576358
      9          1           0       -7.650656    1.411982    1.845513
     10          8           0       -5.365653    3.945281    3.432530
     11          6           0       -9.523652    2.432421    2.357560
     12          7           0      -10.222565    1.595719    1.576757
     13          1           0       -7.149750    4.582649    3.942904
     14          1           0      -11.233486    1.666061    1.571547
     15          8           0      -10.070021    3.258052    3.104773
     16          7           0       -5.066637    1.671676    3.254397
     17          1           0       -5.546269    0.786090    3.084683
     18          6           0       -3.700622    1.638666    2.725047
     19          1           0       -3.500074    2.609040    2.258250
     20          6           0       -3.737611    0.534202    1.639421
     21          6           0       -2.623876    1.377105    3.817421
     22          1           0       -1.666135    1.321797    3.279142
     23          8           0       -4.722538   -0.208767    1.542520
     24          6           0       -2.840258    0.027374    4.532915
     25          1           0       -2.997828   -0.760772    3.784857
     26          1           0       -3.767334    0.079881    5.121085
     27          6           0       -2.543119    2.561851    4.791259
     28          1           0       -3.450349    2.635668    5.402350
     29          1           0       -1.694282    2.448016    5.470935
     30          1           0       -2.420453    3.511434    4.259990
     31          6           0       -1.680640   -0.388662    5.445801
     32          1           0       -1.863732   -1.381680    5.869157
     33          1           0       -0.735515   -0.433209    4.891507
     34          1           0       -1.545038    0.303502    6.282863
     35          7           0       -2.653360    0.447390    0.854261
     36          1           0       -1.831118    1.029126    0.999217
     37          6           0       -2.461599   -0.601331   -0.140862
     38          1           0       -2.828726   -1.545179    0.279054
     39          6           0       -0.939525   -0.686862   -0.372192
     40          6           0       -3.218031   -0.307531   -1.448413
     41          1           0       -3.069818   -1.113985   -2.172893
     42          1           0       -4.287242   -0.222656   -1.237444
     43          1           0       -2.865536    0.627960   -1.894453
     44          8           0       -0.200418    0.222660    0.029467
     45          7           0       -0.515815   -1.766760   -1.052318
     46          1           0       -1.142040   -2.565408   -1.133142
     47          6           0        0.893519   -2.158812   -1.191056
     48          1           0        1.405358   -1.938875   -0.243094
     49          6           0        1.640898   -1.370242   -2.297899
     50          6           0        0.940298   -3.689828   -1.491796
     51          1           0        0.823372   -3.816982   -2.570028
     52          8           0        2.195972   -1.961434   -3.226648
     53          6           0        2.240943   -4.331035   -1.031937
     54          1           0        3.114382   -3.869291   -1.500797
     55          1           0        2.236900   -5.395134   -1.287787
     56          1           0        2.353464   -4.237706    0.058139
     57          8           0       -0.203347   -4.342470   -0.917018
     58          1           0        0.017833   -4.576290   -0.000420
     59          7           0        1.632425   -0.024024   -2.151767
     60          1           0        1.290189    0.330332   -1.259926
     61          6           0        2.482358    0.833987   -2.953520
     62          1           0        2.779486    0.256136   -3.833930
     63          6           0        3.773691    1.168607   -2.164763
     64          6           0        1.710817    2.062908   -3.458880
     65          1           0        1.549248    2.781758   -2.640966
     66          1           0        0.729760    1.729123   -3.823686
     67          8           0        3.994642    0.651362   -1.068155
     68          8           0        2.480416    2.637091   -4.512550
     69          1           0        2.100169    3.496343   -4.748790
     70          7           0        4.624347    2.020283   -2.782404
     71          1           0        4.372101    2.337092   -3.712635
     72          6           0        5.999450    2.212552   -2.318388
     73          1           0        6.401610    3.115999   -2.777683
     74          1           0        5.990054    2.327488   -1.231044
     75          6           0        6.859016    1.012507   -2.762108
     76          8           0        7.548269    1.048452   -3.769812
     77          7           0        6.705506   -0.085194   -1.958158
     78          1           0        5.990709   -0.008790   -1.239051
     79          6           0        7.021215   -1.435557   -2.427910
     80          1           0        7.501756   -1.301688   -3.402961
     81          6           0        5.684579   -2.161376   -2.642480
     82          6           0        7.944452   -2.203721   -1.476589
     83          1           0        7.446247   -2.312335   -0.504160
     84          1           0        8.058792   -3.222461   -1.869020
     85          8           0        5.313495   -3.128845   -2.007765
     86          6           0        9.315141   -1.541271   -1.302455
     87          1           0        9.788331   -1.413369   -2.287049
     88          1           0        9.197251   -0.535801   -0.885990
     89          6           0       10.252733   -2.348662   -0.396651
     90          1           0       10.454760   -3.331392   -0.845710
     91          1           0        9.754375   -2.552049    0.564365
     92          6           0       11.590668   -1.651944   -0.122195
     93          1           0       12.271437   -2.367029    0.374062
     94          1           0       12.060883   -1.385217   -1.077562
     95          7           0       11.391689   -0.407543    0.634356
     96          1           0       12.273440    0.097420    0.705984
     97          1           0       11.120752   -0.634394    1.591053
     98          8           0        4.938585   -1.559441   -3.586386
     99          1           0        4.033946   -1.951256   -3.575459
    100          1           0       -9.786066    0.924849    0.960505
 ---------------------------------------------------------------------

 SCF Done:  E(RB3LYP) =  -2418.44660534     A.U. after    1 cycles

 Alpha  occ. eigenvalues --  -19.27688 -19.26756 -19.23039 -19.23020 -19.22819
 Alpha  occ. eigenvalues --  -19.22257 -19.21947 -19.19603 -19.17655 -19.17375
 Alpha  occ. eigenvalues --  -19.14876 -14.58578 -14.51011 -14.49660 -14.46540
 Alpha  occ. eigenvalues --  -14.45356 -14.42802 -14.41668 -14.38928 -14.33633
 Alpha  occ. eigenvalues --  -10.45285 -10.43849 -10.41754 -10.39980 -10.38881
 Alpha  occ. eigenvalues --  -10.36819 -10.36667 -10.35115 -10.34876 -10.34718
 Alpha  occ. eigenvalues --  -10.33692 -10.32102 -10.31492 -10.31320 -10.31054
 Alpha  occ. eigenvalues --  -10.29955 -10.29840 -10.27635 -10.27553 -10.27443
 Alpha  occ. eigenvalues --  -10.26694 -10.26397 -10.25713 -10.23116 -10.22975
 Alpha  occ. eigenvalues --  -10.20982 -10.20336 -10.19705  -1.19676  -1.18775
 Alpha  occ. eigenvalues --   -1.14951  -1.13769  -1.13252  -1.13173  -1.11291
 Alpha  occ. eigenvalues --   -1.10254  -1.09936  -1.09234  -1.06616  -1.06416
 Alpha  occ. eigenvalues --   -1.05978  -1.04435  -1.03147  -1.01754  -0.99491
 Alpha  occ. eigenvalues --   -0.97810  -0.95631  -0.94965  -0.91461  -0.90211
 Alpha  occ. eigenvalues --   -0.87845  -0.85566  -0.84718  -0.83316  -0.82405
 Alpha  occ. eigenvalues --   -0.82310  -0.80224  -0.78827  -0.77690  -0.76209
 Alpha  occ. eigenvalues --   -0.75795  -0.75242  -0.73945  -0.73098  -0.72231
 Alpha  occ. eigenvalues --   -0.71825  -0.71738  -0.71458  -0.69227  -0.68837
 Alpha  occ. eigenvalues --   -0.68792  -0.67861  -0.66691  -0.65884  -0.65573
 Alpha  occ. eigenvalues --   -0.65293  -0.64536  -0.64399  -0.63422  -0.62136
 Alpha  occ. eigenvalues --   -0.61349  -0.61247  -0.60969  -0.60078  -0.59577
 Alpha  occ. eigenvalues --   -0.59315  -0.59038  -0.58562  -0.58187  -0.57722
 Alpha  occ. eigenvalues --   -0.57132  -0.56704  -0.55734  -0.55457  -0.55411
 Alpha  occ. eigenvalues --   -0.55050  -0.54279  -0.54012  -0.53294  -0.53134
 Alpha  occ. eigenvalues --   -0.52875  -0.52563  -0.52327  -0.52191  -0.51594
 Alpha  occ. eigenvalues --   -0.51583  -0.51225  -0.51077  -0.50863  -0.50688
 Alpha  occ. eigenvalues --   -0.50497  -0.50089  -0.49538  -0.48908  -0.48640
 Alpha  occ. eigenvalues --   -0.48077  -0.47930  -0.47645  -0.47045  -0.46920
 Alpha  occ. eigenvalues --   -0.46797  -0.46502  -0.46264  -0.46187  -0.45490
 Alpha  occ. eigenvalues --   -0.45346  -0.45278  -0.44685  -0.44241  -0.43688
 Alpha  occ. eigenvalues --   -0.43568  -0.43456  -0.43194  -0.42842  -0.42415
 Alpha  occ. eigenvalues --   -0.42291  -0.42216  -0.41984  -0.41613  -0.41113
 Alpha  occ. eigenvalues --   -0.40924  -0.40864  -0.40432  -0.39558  -0.39149
 Alpha  occ. eigenvalues --   -0.39123  -0.37420  -0.37262  -0.36959  -0.36370
 Alpha  occ. eigenvalues --   -0.35955  -0.35754  -0.35393  -0.35187  -0.35155
 Alpha  occ. eigenvalues --   -0.35072  -0.34600  -0.33386  -0.32617  -0.32379
 Alpha  occ. eigenvalues --   -0.31680  -0.31297  -0.28308  -0.27570  -0.25724
 Alpha virt. eigenvalues --   -0.13439  -0.12476  -0.09810  -0.08851  -0.07699
 Alpha virt. eigenvalues --   -0.06060  -0.05612  -0.04989  -0.04421  -0.03378
 Alpha virt. eigenvalues --   -0.03087  -0.01711  -0.01017  -0.00559  -0.00256

 Mulliken charges:
               1
     1  N   -0.753945
     2  H    0.410710
     3  H    0.444836
     4  C   -0.125434
     5  H    0.218385
     6  C    0.641031
     7  C   -0.405595
     8  H    0.227872
     9  H    0.211290
    10  O   -0.523178
    11  C    0.647450
    12  N   -0.725412
    13  H    0.417459
    14  H    0.383976
    15  O   -0.534175
    16  N   -0.587283
    17  H    0.363146
    18  C   -0.091159
    19  H    0.191056
    20  C    0.635232
    21  C   -0.078276
    22  H    0.146941
    23  O   -0.563543
    24  C   -0.271453
    25  H    0.148863
    26  H    0.131308
    27  C   -0.454308
    28  H    0.139537
    29  H    0.173551
    30  H    0.162376
    31  C   -0.453568
    32  H    0.161270
    33  H    0.156304
    34  H    0.159306
    35  N   -0.616337
    36  H    0.368155
    37  C   -0.044987
    38  H    0.184916
    39  C    0.625247
    40  C   -0.444100
    41  H    0.172098
    42  H    0.177121
    43  H    0.164505
    44  O   -0.558323
    45  N   -0.612425
    46  H    0.364290
    47  C   -0.097939
    48  H    0.189354
    49  C    0.650911
    50  C    0.118381
    51  H    0.186022
    52  O   -0.542642
    53  C   -0.509446
    54  H    0.226984
    55  H    0.172308
    56  H    0.131713
    57  O   -0.640276
    58  H    0.397971
    59  N   -0.605116
    60  H    0.379123
    61  C   -0.095504
    62  H    0.221101
    63  C    0.618201
    64  C   -0.037085
    65  H    0.138144
    66  H    0.148545
    67  O   -0.549573
    68  O   -0.619397
    69  H    0.412235
    70  N   -0.585148
    71  H    0.371505
    72  C   -0.239932
    73  H    0.182455
    74  H    0.184831
    75  C    0.597383
    76  O   -0.496284
    77  N   -0.593976
    78  H    0.358852
    79  C   -0.053163
    80  H    0.200558
    81  C    0.571444
    82  C   -0.252222
    83  H    0.137286
    84  H    0.144903
    85  O   -0.467303
    86  C   -0.253868
    87  H    0.133067
    88  H    0.169316
    89  C   -0.252667
    90  H    0.129261
    91  H    0.120229
    92  C   -0.140702
    93  H    0.114493
    94  H    0.141214
    95  N   -0.712351
    96  H    0.298115
    97  H    0.289586
    98  O   -0.598650
    99  H    0.449929
   100  H    0.373090
 Sum of Mulliken charges =   1.00000

 Dipole moment (field-independent basis, Debye):
    X=            -33.2343    Y=             10.5467    Z=             14.3270  Tot=             37.6963
 Quadrupole moment (field-independent basis, Debye-Ang):
   XX=            -23.8003   YY=           -240.8689   ZZ=           -225.7548
   XY=            -68.7523   XZ=            -62.6359   YZ=             17.6419

 Normal termination of Gaussian 16 at Fri May 27 02:49:56 2022.
