 Gaussian 16, Revision C.01,
 Gaussian 16:  ES64L-G16RevC.01  3-Jul-2019

 -------------------------------------------------------------------
 # B3LYP/6-31G* guess=read geom=check nosymm integral(ultrafinegrid)
 -------------------------------------------------------------------

 ------------------------------------------------------
 Candidate Structure: Conf:121 Charge calc in gas phase
 ------------------------------------------------------
 Structure from the checkpoint file:  "conf-121.chk"
 Charge =  1 Multiplicity = 1

                          Input orientation:
 ---------------------------------------------------------------------
 Center     Atomic      Atomic             Coordinates (Angstroms)
 Number     Number       Type             X           Y           Z
 ---------------------------------------------------------------------
      1          7           0       -8.675031    1.900513    2.782271
      2          1           0       -7.997035    2.594168    3.219094
      3          1           0       -9.304219    1.540671    3.505770
      4          6           0       -7.730651    0.837688    2.248751
      5          1           0       -8.095043   -0.137365    2.577451
      6          6           0       -6.372343    1.220005    2.897037
      7          6           0       -7.706602    0.880899    0.714378
      8          1           0       -7.295343    1.835732    0.366801
      9          1           0       -7.053683    0.081183    0.351914
     10          8           0       -6.302863    2.324814    3.457246
     11          6           0       -9.136018    0.612239    0.224134
     12          7           0       -9.742532    1.665441   -0.415232
     13          1           0       -9.183091    2.334446   -0.930971
     14          1           0       -9.254612    2.328322    2.048274
     15          8           0       -9.720250   -0.403762    0.552727
     16          7           0       -5.400297    0.325416    2.781881
     17          1           0       -5.509624   -0.507826    2.200269
     18          6           0       -3.990867    0.542706    3.137991
     19          1           0       -3.825928    1.621081    3.225090
     20          6           0       -3.232703   -0.052045    1.925323
     21          6           0       -3.610196   -0.158838    4.479428
     22          1           0       -3.745076   -1.238646    4.317877
     23          8           0       -3.749000   -0.982594    1.295034
     24          6           0       -4.553907    0.278123    5.620642
     25          1           0       -5.592077    0.129805    5.300239
     26          1           0       -4.435542    1.356630    5.793879
     27          6           0       -2.136829    0.102951    4.832190
     28          1           0       -1.949697    1.174750    4.979667
     29          1           0       -1.870908   -0.405748    5.761893
     30          1           0       -1.449987   -0.258406    4.062919
     31          6           0       -4.347687   -0.486305    6.934431
     32          1           0       -5.114246   -0.202858    7.663395
     33          1           0       -4.420623   -1.569770    6.780286
     34          1           0       -3.375434   -0.277285    7.390411
     35          7           0       -2.046097    0.493473    1.623091
     36          1           0       -1.621894    1.224500    2.190853
     37          6           0       -1.160334   -0.027447    0.587974
     38          1           0       -1.179918   -1.122291    0.629755
     39          6           0        0.246430    0.491855    0.948153
     40          6           0       -1.583812    0.433398   -0.819116
     41          1           0       -0.894939    0.059902   -1.583688
     42          1           0       -2.584704    0.052882   -1.038913
     43          1           0       -1.595094    1.526811   -0.874224
     44          8           0        0.385985    1.401225    1.761621
     45          7           0        1.271113   -0.132758    0.306685
     46          1           0        1.043815   -0.687172   -0.515067
     47          6           0        2.616350    0.441133    0.236907
     48          1           0        2.610787    1.352173    0.841636
     49          6           0        2.868936    0.755785   -1.247368
     50          6           0        3.650112   -0.549236    0.858170
     51          1           0        3.685279   -1.447863    0.225797
     52          8           0        2.258130    0.139660   -2.130091
     53          6           0        5.053567    0.031735    0.966795
     54          1           0        5.515539    0.132790   -0.017578
     55          1           0        5.669521   -0.653694    1.555170
     56          1           0        5.042496    0.997297    1.488249
     57          8           0        3.231979   -0.869172    2.176536
     58          1           0        2.340580   -1.247244    2.109511
     59          7           0        3.758632    1.736075   -1.517683
     60          1           0        4.302637    2.118312   -0.753682
     61          6           0        4.121411    2.153967   -2.877041
     62          1           0        3.210936    2.125222   -3.483221
     63          6           0        5.162971    1.189935   -3.491952
     64          6           0        4.674477    3.589127   -2.838547
     65          1           0        5.494195    3.637394   -2.102455
     66          1           0        3.882069    4.267802   -2.507126
     67          8           0        6.330309    1.535206   -3.674629
     68          8           0        5.091310    4.016129   -4.111302
     69          1           0        5.872750    3.471222   -4.318098
     70          7           0        4.673533   -0.034803   -3.818931
     71          1           0        3.742867   -0.258796   -3.472905
     72          6           0        5.561499   -1.126891   -4.137670
     73          1           0        5.124571   -1.744245   -4.931040
     74          1           0        6.494855   -0.698645   -4.515322
     75          6           0        5.851478   -2.001018   -2.901909
     76          8           0        5.350763   -1.765566   -1.804335
     77          7           0        6.679461   -3.049248   -3.133894
     78          1           0        7.177611   -3.130290   -4.014330
     79          6           0        7.171701   -3.897952   -2.057481
     80          1           0        7.379411   -3.268784   -1.183379
     81          6           0        8.486759   -4.499759   -2.532131
     82          6           0        6.162112   -4.987580   -1.622833
     83          1           0        6.569368   -5.488696   -0.736867
     84          1           0        5.255150   -4.461425   -1.304803
     85          8           0        8.930735   -4.387204   -3.655552
     86          6           0        5.827820   -6.021219   -2.705033
     87          1           0        5.492285   -5.504332   -3.614446
     88          1           0        6.736877   -6.574978   -2.981871
     89          6           0        4.753415   -7.017835   -2.253108
     90          1           0        3.830651   -6.470247   -2.006396
     91          1           0        5.065931   -7.525197   -1.331730
     92          6           0        4.440535   -8.082510   -3.307311
     93          1           0        4.162528   -7.584054   -4.255460
     94          1           0        5.351368   -8.658061   -3.516398
     95          7           0        3.430057   -9.021218   -2.807061
     96          1           0        3.299661   -9.777933   -3.476409
     97          1           0        2.528662   -8.549439   -2.739630
     98          8           0        9.099974   -5.193930   -1.556351
     99          1           0        9.920675   -5.558053   -1.940081
    100          1           0      -10.653422    1.465357   -0.818203
 ---------------------------------------------------------------------

 SCF Done:  E(RB3LYP) =  -2418.42851378     A.U. after    1 cycles

 Alpha  occ. eigenvalues --  -19.27449 -19.26028 -19.25725 -19.22119 -19.21009
 Alpha  occ. eigenvalues --  -19.20566 -19.20243 -19.20047 -19.18552 -19.17968
 Alpha  occ. eigenvalues --  -19.17798 -14.60577 -14.50186 -14.50019 -14.45892
 Alpha  occ. eigenvalues --  -14.44591 -14.44518 -14.41829 -14.41566 -14.35093
 Alpha  occ. eigenvalues --  -10.44274 -10.43577 -10.41904 -10.39270 -10.38460
 Alpha  occ. eigenvalues --  -10.37932 -10.37141 -10.36027 -10.34873 -10.34837
 Alpha  occ. eigenvalues --  -10.34677 -10.32829 -10.30565 -10.30145 -10.29749
 Alpha  occ. eigenvalues --  -10.29724 -10.29434 -10.29042 -10.28759 -10.27180
 Alpha  occ. eigenvalues --  -10.26953 -10.26237 -10.25423 -10.24732 -10.24071
 Alpha  occ. eigenvalues --  -10.23184 -10.23004 -10.22352  -1.19894  -1.17845
 Alpha  occ. eigenvalues --   -1.17082  -1.14547  -1.14037  -1.12916  -1.11870
 Alpha  occ. eigenvalues --   -1.10018  -1.09293  -1.08114  -1.07870  -1.06639
 Alpha  occ. eigenvalues --   -1.06263  -1.04714  -1.02402  -1.00906  -1.00448
 Alpha  occ. eigenvalues --   -0.98520  -0.98048  -0.94978  -0.91796  -0.91031
 Alpha  occ. eigenvalues --   -0.87205  -0.85703  -0.85370  -0.84454  -0.82530
 Alpha  occ. eigenvalues --   -0.82023  -0.81004  -0.79738  -0.78028  -0.77451
 Alpha  occ. eigenvalues --   -0.75017  -0.74703  -0.73998  -0.73952  -0.73284
 Alpha  occ. eigenvalues --   -0.72898  -0.71321  -0.70427  -0.68942  -0.68249
 Alpha  occ. eigenvalues --   -0.68086  -0.67522  -0.67013  -0.66767  -0.66409
 Alpha  occ. eigenvalues --   -0.65654  -0.65140  -0.64601  -0.63969  -0.63530
 Alpha  occ. eigenvalues --   -0.62722  -0.62110  -0.60912  -0.60282  -0.59282
 Alpha  occ. eigenvalues --   -0.59058  -0.58740  -0.58242  -0.57730  -0.57157
 Alpha  occ. eigenvalues --   -0.57101  -0.56300  -0.55744  -0.55491  -0.55163
 Alpha  occ. eigenvalues --   -0.54776  -0.54471  -0.53910  -0.53803  -0.53706
 Alpha  occ. eigenvalues --   -0.53371  -0.53244  -0.53101  -0.52621  -0.52275
 Alpha  occ. eigenvalues --   -0.52010  -0.51477  -0.51395  -0.51136  -0.50697
 Alpha  occ. eigenvalues --   -0.50548  -0.49978  -0.49926  -0.49322  -0.48723
 Alpha  occ. eigenvalues --   -0.48540  -0.48125  -0.47773  -0.47545  -0.47239
 Alpha  occ. eigenvalues --   -0.47006  -0.46255  -0.46139  -0.45990  -0.45901
 Alpha  occ. eigenvalues --   -0.45617  -0.45519  -0.45285  -0.44811  -0.44657
 Alpha  occ. eigenvalues --   -0.44510  -0.44318  -0.43757  -0.43220  -0.43154
 Alpha  occ. eigenvalues --   -0.42449  -0.42144  -0.41820  -0.41805  -0.41720
 Alpha  occ. eigenvalues --   -0.41410  -0.41380  -0.40145  -0.39496  -0.39140
 Alpha  occ. eigenvalues --   -0.39106  -0.38714  -0.38526  -0.38202  -0.37612
 Alpha  occ. eigenvalues --   -0.37220  -0.36303  -0.35967  -0.35703  -0.34990
 Alpha  occ. eigenvalues --   -0.34660  -0.34197  -0.34064  -0.32447  -0.32281
 Alpha  occ. eigenvalues --   -0.31727  -0.31532  -0.31003  -0.30322  -0.27294
 Alpha virt. eigenvalues --   -0.14026  -0.11428  -0.10828  -0.08171  -0.06816
 Alpha virt. eigenvalues --   -0.06520  -0.06386  -0.05370  -0.05296  -0.04029
 Alpha virt. eigenvalues --   -0.03805  -0.03432  -0.01995  -0.01744  -0.00562

 Mulliken charges:
               1
     1  N   -0.759736
     2  H    0.434008
     3  H    0.423248
     4  C   -0.112055
     5  H    0.245590
     6  C    0.650498
     7  C   -0.384704
     8  H    0.182262
     9  H    0.238559
    10  O   -0.539256
    11  C    0.548268
    12  N   -0.737734
    13  H    0.359626
    14  H    0.412147
    15  O   -0.452601
    16  N   -0.595262
    17  H    0.371457
    18  C   -0.077031
    19  H    0.185255
    20  C    0.627711
    21  C   -0.073277
    22  H    0.145056
    23  O   -0.553646
    24  C   -0.251761
    25  H    0.117185
    26  H    0.150108
    27  C   -0.478242
    28  H    0.156529
    29  H    0.177931
    30  H    0.162643
    31  C   -0.454368
    32  H    0.156940
    33  H    0.152288
    34  H    0.164729
    35  N   -0.611686
    36  H    0.367887
    37  C   -0.048294
    38  H    0.187133
    39  C    0.603320
    40  C   -0.457142
    41  H    0.177044
    42  H    0.178675
    43  H    0.165454
    44  O   -0.515058
    45  N   -0.625296
    46  H    0.356400
    47  C   -0.102681
    48  H    0.191451
    49  C    0.653608
    50  C    0.148258
    51  H    0.153894
    52  O   -0.563624
    53  C   -0.479554
    54  H    0.176601
    55  H    0.179792
    56  H    0.141911
    57  O   -0.616441
    58  H    0.395419
    59  N   -0.602855
    60  H    0.348218
    61  C   -0.088066
    62  H    0.193413
    63  C    0.624370
    64  C   -0.036391
    65  H    0.132165
    66  H    0.154283
    67  O   -0.535926
    68  O   -0.621223
    69  H    0.420015
    70  N   -0.585163
    71  H    0.373614
    72  C   -0.256231
    73  H    0.182467
    74  H    0.215907
    75  C    0.611011
    76  O   -0.528339
    77  N   -0.608147
    78  H    0.356652
    79  C   -0.031875
    80  H    0.194839
    81  C    0.585000
    82  C   -0.267972
    83  H    0.161890
    84  H    0.164923
    85  O   -0.468389
    86  C   -0.272707
    87  H    0.136526
    88  H    0.140614
    89  C   -0.246157
    90  H    0.121023
    91  H    0.152744
    92  C   -0.136103
    93  H    0.110691
    94  H    0.142982
    95  N   -0.714609
    96  H    0.299992
    97  H    0.289604
    98  O   -0.560983
    99  H    0.423818
   100  H    0.374938
 Sum of Mulliken charges =   1.00000

 Dipole moment (field-independent basis, Debye):
    X=            -28.4709    Y=              2.7057    Z=              5.7486  Tot=             29.1712
 Quadrupole moment (field-independent basis, Debye-Ang):
   XX=             25.7905   YY=           -261.5731   ZZ=           -246.9541
   XY=           -101.2806   XZ=            -64.4385   YZ=             33.5489

 Normal termination of Gaussian 16 at Fri May 27 02:48:57 2022.
