 Gaussian 16, Revision C.01,
 Gaussian 16:  ES64L-G16RevC.01  3-Jul-2019

 -------------------------------------------------------------------
 # B3LYP/6-31G* guess=read geom=check nosymm integral(ultrafinegrid)
 -------------------------------------------------------------------

 ------------------------------------------------------
 Candidate Structure: Conf:535 Charge calc in gas phase
 ------------------------------------------------------
 Structure from the checkpoint file:  "conf-535.chk"
 Charge =  1 Multiplicity = 1

                          Input orientation:
 ---------------------------------------------------------------------
 Center     Atomic      Atomic             Coordinates (Angstroms)
 Number     Number       Type             X           Y           Z
 ---------------------------------------------------------------------
      1          7           0        0.327244   -3.778331   -0.216639
      2          1           0        0.793725   -4.668716    0.008859
      3          1           0       -0.403921   -3.883932   -0.930411
      4          6           0       -0.269115   -3.213433    1.033848
      5          1           0       -0.809064   -4.038143    1.512345
      6          6           0       -1.318826   -2.176865    0.566703
      7          6           0        0.850754   -2.731663    1.962791
      8          1           0        1.426023   -1.933898    1.477274
      9          1           0        0.421603   -2.327330    2.886604
     10          8           0       -1.778240   -2.278128   -0.567142
     11          6           0        1.795302   -3.888829    2.325492
     12          7           0        2.662558   -3.639655    3.330359
     13          1           0        1.071025   -3.154991   -0.606379
     14          1           0        3.332010   -4.356549    3.578536
     15          8           0        1.754743   -4.968326    1.734759
     16          7           0       -1.735519   -1.265628    1.475071
     17          1           0       -1.147064   -1.102660    2.280952
     18          6           0       -2.567794   -0.128149    1.076090
     19          1           0       -3.465985   -0.524582    0.589845
     20          6           0       -1.760021    0.711799    0.058343
     21          6           0       -2.971599    0.673905    2.348620
     22          1           0       -2.033011    0.915751    2.874332
     23          8           0       -0.527126    0.703232    0.095401
     24          6           0       -3.842603   -0.205778    3.275771
     25          1           0       -3.398329   -1.205792    3.353247
     26          1           0       -4.823175   -0.348510    2.799857
     27          6           0       -3.666212    2.003579    2.013631
     28          1           0       -4.591636    1.833678    1.446230
     29          1           0       -3.947782    2.520353    2.934647
     30          1           0       -3.027121    2.682616    1.442609
     31          6           0       -4.032097    0.358536    4.688710
     32          1           0       -4.606813   -0.341040    5.304438
     33          1           0       -3.067755    0.522663    5.185434
     34          1           0       -4.572345    1.310226    4.688230
     35          7           0       -2.473758    1.430803   -0.830490
     36          1           0       -3.483348    1.395780   -0.782680
     37          6           0       -1.881509    2.316661   -1.839336
     38          1           0       -1.387688    1.689575   -2.592348
     39          6           0       -0.842585    3.257100   -1.171717
     40          6           0       -2.986523    3.144034   -2.496648
     41          1           0       -2.571205    3.747915   -3.308464
     42          1           0       -3.761796    2.496903   -2.922180
     43          1           0       -3.433492    3.820456   -1.762232
     44          8           0       -1.180487    4.067465   -0.317752
     45          7           0        0.412790    3.076654   -1.646377
     46          1           0        0.566458    2.363435   -2.351644
     47          6           0        1.662485    3.648372   -1.176096
     48          1           0        1.615244    4.744673   -1.164299
     49          6           0        2.709040    3.148059   -2.203583
     50          6           0        2.094568    3.118240    0.238125
     51          1           0        3.137181    3.425077    0.389390
     52          8           0        2.385639    2.347261   -3.088304
     53          6           0        1.292970    3.662792    1.420158
     54          1           0        1.279575    4.757693    1.421066
     55          1           0        1.765994    3.318892    2.346079
     56          1           0        0.257370    3.323637    1.398166
     57          8           0        2.130381    1.700069    0.212916
     58          1           0        1.207705    1.380056    0.148714
     59          7           0        3.998378    3.546694   -2.047700
     60          1           0        4.239153    4.056268   -1.205094
     61          6           0        5.107780    2.810956   -2.695703
     62          1           0        4.769965    2.568203   -3.705891
     63          6           0        5.367927    1.517189   -1.888003
     64          6           0        6.349022    3.701249   -2.789397
     65          1           0        7.184485    3.102401   -3.158854
     66          1           0        6.632922    4.057575   -1.786933
     67          8           0        6.304951    1.399482   -1.115478
     68          8           0        6.171252    4.759234   -3.710049
     69          1           0        5.452095    5.325547   -3.389134
     70          7           0        4.414438    0.538407   -2.086418
     71          1           0        3.568467    0.871188   -2.547360
     72          6           0        4.203010   -0.464619   -1.046751
     73          1           0        5.174954   -0.879690   -0.758732
     74          1           0        3.734926   -0.026183   -0.159861
     75          6           0        3.290705   -1.581151   -1.528902
     76          8           0        2.495841   -2.130118   -0.745936
     77          7           0        3.399213   -1.937754   -2.822220
     78          1           0        4.085956   -1.452535   -3.388374
     79          6           0        2.554331   -2.951681   -3.448293
     80          1           0        1.504329   -2.661018   -3.335041
     81          6           0        2.683109   -4.302875   -2.738288
     82          6           0        2.902394   -3.068430   -4.944210
     83          1           0        2.788211   -2.069587   -5.387414
     84          1           0        3.960471   -3.345714   -5.035582
     85          8           0        1.741858   -4.930847   -2.294892
     86          6           0        2.029938   -4.078099   -5.699603
     87          1           0        2.153344   -5.084290   -5.283513
     88          1           0        0.970019   -3.815366   -5.571108
     89          6           0        2.359647   -4.136711   -7.196421
     90          1           0        3.440159   -4.298695   -7.328313
     91          1           0        2.133308   -3.172991   -7.672869
     92          6           0        1.598076   -5.247461   -7.931010
     93          1           0        0.520568   -5.112586   -7.771249
     94          1           0        1.770420   -5.139488   -9.015566
     95          7           0        1.964015   -6.566595   -7.398829
     96          1           0        2.896328   -6.819791   -7.725058
     97          1           0        1.336407   -7.277333   -7.770104
     98          8           0        3.951810   -4.735528   -2.688432
     99          1           0        3.945727   -5.610763   -2.254537
    100          1           0        2.722740   -2.746027    3.796096
 ---------------------------------------------------------------------

 SCF Done:  E(RB3LYP) =  -2418.45998514     A.U. after    1 cycles

 Alpha  occ. eigenvalues --  -19.29911 -19.24479 -19.24157 -19.24020 -19.23635
 Alpha  occ. eigenvalues --  -19.22923 -19.22411 -19.22095 -19.21776 -19.20757
 Alpha  occ. eigenvalues --  -19.19654 -14.53607 -14.47996 -14.47622 -14.47349
 Alpha  occ. eigenvalues --  -14.47056 -14.46609 -14.44432 -14.44136 -14.37493
 Alpha  occ. eigenvalues --  -10.42545 -10.41480 -10.41427 -10.40498 -10.39791
 Alpha  occ. eigenvalues --  -10.39324 -10.37869 -10.37563 -10.37146 -10.34412
 Alpha  occ. eigenvalues --  -10.34059 -10.33149 -10.33000 -10.32965 -10.32938
 Alpha  occ. eigenvalues --  -10.32131 -10.31691 -10.31143 -10.29778 -10.28640
 Alpha  occ. eigenvalues --  -10.27175 -10.27152 -10.27120 -10.26226 -10.25967
 Alpha  occ. eigenvalues --  -10.25481 -10.25234 -10.24744  -1.21000  -1.16572
 Alpha  occ. eigenvalues --   -1.15426  -1.15185  -1.15020  -1.14145  -1.12440
 Alpha  occ. eigenvalues --   -1.11935  -1.11435  -1.09791  -1.09356  -1.09044
 Alpha  occ. eigenvalues --   -1.04539  -1.04253  -1.02842  -1.02786  -1.02258
 Alpha  occ. eigenvalues --   -1.00882  -1.00649  -0.94239  -0.91976  -0.90047
 Alpha  occ. eigenvalues --   -0.89907  -0.87858  -0.86222  -0.84723  -0.83713
 Alpha  occ. eigenvalues --   -0.83200  -0.81115  -0.80937  -0.79662  -0.78752
 Alpha  occ. eigenvalues --   -0.77443  -0.74589  -0.73449  -0.72981  -0.72009
 Alpha  occ. eigenvalues --   -0.71577  -0.70758  -0.70190  -0.70140  -0.69918
 Alpha  occ. eigenvalues --   -0.69389  -0.68439  -0.68319  -0.67414  -0.66792
 Alpha  occ. eigenvalues --   -0.66155  -0.66026  -0.65180  -0.64986  -0.63972
 Alpha  occ. eigenvalues --   -0.63154  -0.61952  -0.61659  -0.61332  -0.60522
 Alpha  occ. eigenvalues --   -0.59638  -0.59310  -0.59156  -0.58705  -0.58252
 Alpha  occ. eigenvalues --   -0.57881  -0.57764  -0.57030  -0.56980  -0.56690
 Alpha  occ. eigenvalues --   -0.56376  -0.55630  -0.55404  -0.54930  -0.54751
 Alpha  occ. eigenvalues --   -0.54607  -0.54142  -0.53856  -0.53712  -0.52998
 Alpha  occ. eigenvalues --   -0.52884  -0.52256  -0.52206  -0.51886  -0.51757
 Alpha  occ. eigenvalues --   -0.51295  -0.50977  -0.50833  -0.50794  -0.50370
 Alpha  occ. eigenvalues --   -0.50082  -0.49806  -0.49574  -0.48930  -0.48724
 Alpha  occ. eigenvalues --   -0.48567  -0.48277  -0.48108  -0.47648  -0.47573
 Alpha  occ. eigenvalues --   -0.47387  -0.47304  -0.46856  -0.46805  -0.46325
 Alpha  occ. eigenvalues --   -0.45534  -0.45426  -0.45318  -0.45182  -0.45153
 Alpha  occ. eigenvalues --   -0.44859  -0.43701  -0.43600  -0.42320  -0.42206
 Alpha  occ. eigenvalues --   -0.41828  -0.41542  -0.41539  -0.40762  -0.40701
 Alpha  occ. eigenvalues --   -0.40635  -0.40250  -0.39073  -0.38649  -0.38477
 Alpha  occ. eigenvalues --   -0.38024  -0.37956  -0.37762  -0.37618  -0.37155
 Alpha  occ. eigenvalues --   -0.36756  -0.36494  -0.36045  -0.35734  -0.35402
 Alpha  occ. eigenvalues --   -0.34743  -0.33387  -0.32803  -0.32474  -0.29758
 Alpha virt. eigenvalues --   -0.10890  -0.10049  -0.09788  -0.09293  -0.08888
 Alpha virt. eigenvalues --   -0.08215  -0.06946  -0.06132  -0.04869  -0.02693
 Alpha virt. eigenvalues --   -0.02597  -0.02161  -0.01969  -0.01353  -0.00077

 Mulliken charges:
               1
     1  N   -0.762576
     2  H    0.428077
     3  H    0.408890
     4  C   -0.115658
     5  H    0.227220
     6  C    0.668234
     7  C   -0.424840
     8  H    0.242839
     9  H    0.178063
    10  O   -0.527486
    11  C    0.641646
    12  N   -0.741862
    13  H    0.442896
    14  H    0.370070
    15  O   -0.524223
    16  N   -0.606945
    17  H    0.344893
    18  C   -0.060311
    19  H    0.179741
    20  C    0.662409
    21  C   -0.104655
    22  H    0.133702
    23  O   -0.573504
    24  C   -0.257881
    25  H    0.136949
    26  H    0.147938
    27  C   -0.494461
    28  H    0.140490
    29  H    0.176105
    30  H    0.193075
    31  C   -0.452900
    32  H    0.164061
    33  H    0.143960
    34  H    0.163781
    35  N   -0.594941
    36  H    0.346986
    37  C   -0.018067
    38  H    0.160655
    39  C    0.636813
    40  C   -0.494585
    41  H    0.182678
    42  H    0.162100
    43  H    0.194075
    44  O   -0.527202
    45  N   -0.628795
    46  H    0.362073
    47  C   -0.043217
    48  H    0.183442
    49  C    0.633014
    50  C    0.118382
    51  H    0.127977
    52  O   -0.547439
    53  C   -0.458113
    54  H    0.156490
    55  H    0.150992
    56  H    0.179647
    57  O   -0.675904
    58  H    0.450188
    59  N   -0.612367
    60  H    0.344209
    61  C   -0.103223
    62  H    0.202104
    63  C    0.616740
    64  C   -0.040569
    65  H    0.183561
    66  H    0.144976
    67  O   -0.495955
    68  O   -0.601035
    69  H    0.395969
    70  N   -0.654680
    71  H    0.371409
    72  C   -0.213927
    73  H    0.214603
    74  H    0.217598
    75  C    0.608781
    76  O   -0.576588
    77  N   -0.591017
    78  H    0.363208
    79  C    0.003511
    80  H    0.175060
    81  C    0.607501
    82  C   -0.320124
    83  H    0.159187
    84  H    0.170689
    85  O   -0.498203
    86  C   -0.268816
    87  H    0.182848
    88  H    0.136605
    89  C   -0.256384
    90  H    0.134122
    91  H    0.137562
    92  C   -0.144301
    93  H    0.142452
    94  H    0.131427
    95  N   -0.719217
    96  H    0.299134
    97  H    0.308073
    98  O   -0.547700
    99  H    0.429049
   100  H    0.358744
 Sum of Mulliken charges =   1.00000

 Dipole moment (field-independent basis, Debye):
    X=              2.7608    Y=             -7.3787    Z=             -1.7145  Tot=              8.0627
 Quadrupole moment (field-independent basis, Debye-Ang):
   XX=           -246.6119   YY=           -223.3749   ZZ=           -202.7987
   XY=            -22.7255   XZ=            -11.2336   YZ=             17.2933

 Normal termination of Gaussian 16 at Fri May 27 02:49:55 2022.
