 Gaussian 16, Revision C.01,
 Gaussian 16:  ES64L-G16RevC.01  3-Jul-2019

 -------------------------------------------------------------------
 # B3LYP/6-31G* guess=read geom=check nosymm integral(ultrafinegrid)
 -------------------------------------------------------------------

 ------------------------------------------------------
 Candidate Structure: Conf:962 Charge calc in gas phase
 ------------------------------------------------------
 Structure from the checkpoint file:  "conf-962.chk"
 Charge =  1 Multiplicity = 1

                          Input orientation:
 ---------------------------------------------------------------------
 Center     Atomic      Atomic             Coordinates (Angstroms)
 Number     Number       Type             X           Y           Z
 ---------------------------------------------------------------------
      1          7           0       -7.847425   -0.399540    3.490021
      2          1           0       -8.825354   -0.425415    3.219206
      3          1           0       -7.734141   -0.815906    4.410347
      4          6           0       -7.243837    0.905778    3.363400
      5          1           0       -7.558330    1.315543    2.395404
      6          6           0       -5.691456    0.840394    3.300903
      7          6           0       -7.557389    1.976449    4.447559
      8          1           0       -7.506721    1.559196    5.463229
      9          1           0       -6.729190    2.710418    4.381321
     10          8           0       -5.031798    1.845150    3.593076
     11          6           0       -8.846079    2.663957    4.256539
     12          7           0       -9.161446    3.713558    5.519214
     13          1           0       -9.370145    3.211620    6.390529
     14          1           0       -9.984675    4.269041    5.256902
     15          8           0       -9.683962    2.669359    3.428809
     16          7           0       -5.188550   -0.332143    2.900256
     17          1           0       -5.853155   -1.051300    2.631648
     18          6           0       -3.749288   -0.558344    2.687343
     19          1           0       -3.231327    0.117869    3.375217
     20          6           0       -3.421402   -0.143465    1.230339
     21          6           0       -3.351675   -2.014716    3.003373
     22          1           0       -3.904127   -2.661745    2.306407
     23          8           0       -3.371839   -0.957146    0.313700
     24          6           0       -3.740140   -2.390101    4.450595
     25          1           0       -4.772112   -2.069883    4.649558
     26          1           0       -3.106539   -1.821748    5.146955
     27          6           0       -1.847563   -2.212268    2.745933
     28          1           0       -1.247967   -1.482998    3.304083
     29          1           0       -1.533471   -3.214538    3.050468
     30          1           0       -1.615081   -2.101923    1.685379
     31          6           0       -3.632277   -3.887751    4.761354
     32          1           0       -3.967785   -4.096062    5.783369
     33          1           0       -4.254125   -4.479603    4.078622
     34          1           0       -2.604792   -4.253868    4.675248
     35          7           0       -3.266282    1.197575    1.054463
     36          1           0       -3.212216    1.788678    1.875932
     37          6           0       -2.787778    1.758483   -0.215065
     38          1           0       -3.144384    1.085139   -0.998015
     39          6           0       -1.246150    1.737598   -0.157238
     40          6           0       -3.321853    3.170651   -0.426442
     41          1           0       -3.008877    3.549621   -1.404108
     42          1           0       -4.415625    3.175281   -0.384131
     43          1           0       -2.920784    3.849587    0.331768
     44          8           0       -0.613370    2.688782    0.312177
     45          7           0       -0.674418    0.593134   -0.589577
     46          1           0       -1.245938   -0.209250   -0.840312
     47          6           0        0.747697    0.335140   -0.418646
     48          1           0        1.276984    1.273867   -0.615392
     49          6           0        1.119196   -0.742561   -1.445294
     50          6           0        1.089713   -0.140337    1.033558
     51          1           0        0.754110   -1.179356    1.129913
     52          8           0        0.346187   -1.670058   -1.672476
     53          6           0        2.588908   -0.056450    1.319704
     54          1           0        3.170843   -0.706585    0.657683
     55          1           0        2.774559   -0.362714    2.353707
     56          1           0        2.945638    0.976640    1.208550
     57          8           0        0.328798    0.581631    1.997192
     58          1           0        0.365553    1.525518    1.755853
     59          7           0        2.310869   -0.582530   -2.076727
     60          1           0        2.960602    0.120113   -1.748527
     61          6           0        2.876864   -1.616691   -2.917214
     62          1           0        2.043356   -2.233583   -3.267778
     63          6           0        3.844476   -2.506811   -2.094254
     64          6           0        3.570147   -0.972843   -4.120828
     65          1           0        2.822581   -0.408554   -4.696892
     66          1           0        3.990632   -1.750969   -4.774938
     67          8           0        4.145865   -2.253629   -0.933162
     68          8           0        4.584294   -0.121012   -3.603960
     69          1           0        4.987094    0.363480   -4.339917
     70          7           0        4.323740   -3.586607   -2.755883
     71          1           0        4.056646   -3.824055   -3.705781
     72          6           0        5.248279   -4.511483   -2.145197
     73          1           0        6.149895   -3.989119   -1.799313
     74          1           0        4.802969   -4.988679   -1.261112
     75          6           0        5.611704   -5.571372   -3.190614
     76          8           0        5.119258   -5.555386   -4.317228
     77          7           0        6.500991   -6.508163   -2.778875
     78          1           0        6.832948   -6.503899   -1.824088
     79          6           0        6.891305   -7.621953   -3.637818
     80          1           0        6.019914   -7.879216   -4.249265
     81          6           0        7.239339   -8.866686   -2.832008
     82          6           0        8.049659   -7.275003   -4.605143
     83          1           0        8.206188   -8.147126   -5.250395
     84          1           0        7.695628   -6.457561   -5.243440
     85          8           0        7.473227   -9.942110   -3.328899
     86          6           0        9.362905   -6.883328   -3.918342
     87          1           0        9.185329   -6.035043   -3.242375
     88          1           0        9.716142   -7.713794   -3.289571
     89          6           0       10.466327   -6.509886   -4.917586
     90          1           0       10.119526   -5.682106   -5.554493
     91          1           0       10.654089   -7.359076   -5.591318
     92          6           0       11.786360   -6.103552   -4.239977
     93          1           0       11.604742   -5.252354   -3.569787
     94          1           0       12.136377   -6.925318   -3.601011
     95          7           0       12.887647   -5.737705   -5.133040
     96          1           0       12.599915   -4.970257   -5.739510
     97          1           0       13.102515   -6.518026   -5.753029
     98          8           0        7.297891   -8.643918   -1.493339
     99          1           0        7.549900   -9.493127   -1.082818
    100          1           0       -8.373153    4.346774    5.699701
 ---------------------------------------------------------------------

 SCF Done:  E(RB3LYP) =  -2418.36594967     A.U. after    1 cycles

 Alpha  occ. eigenvalues --  -19.37955 -19.25567 -19.23064 -19.20528 -19.19143
 Alpha  occ. eigenvalues --  -19.18484 -19.17884 -19.17452 -19.16784 -19.16493
 Alpha  occ. eigenvalues --  -19.15868 -14.63776 -14.46661 -14.45959 -14.42850
 Alpha  occ. eigenvalues --  -14.41722 -14.40964 -14.40921 -14.40369 -14.33975
 Alpha  occ. eigenvalues --  -10.52926 -10.40031 -10.37681 -10.37528 -10.37489
 Alpha  occ. eigenvalues --  -10.35666 -10.34685 -10.33925 -10.33773 -10.33090
 Alpha  occ. eigenvalues --  -10.31159 -10.29485 -10.29339 -10.29079 -10.28312
 Alpha  occ. eigenvalues --  -10.28155 -10.28054 -10.27925 -10.26140 -10.25098
 Alpha  occ. eigenvalues --  -10.24159 -10.23652 -10.23626 -10.23231 -10.22546
 Alpha  occ. eigenvalues --  -10.22379 -10.21625 -10.20687  -1.29294  -1.16381
 Alpha  occ. eigenvalues --   -1.16136  -1.14724  -1.10452  -1.09484  -1.09111
 Alpha  occ. eigenvalues --   -1.08496  -1.07805  -1.07348  -1.07035  -1.05208
 Alpha  occ. eigenvalues --   -1.04205  -1.02245  -0.99064  -0.98333  -0.97399
 Alpha  occ. eigenvalues --   -0.97077  -0.96764  -0.94992  -0.90740  -0.88321
 Alpha  occ. eigenvalues --   -0.84927  -0.84290  -0.83331  -0.82663  -0.80935
 Alpha  occ. eigenvalues --   -0.80310  -0.79957  -0.76993  -0.76754  -0.76541
 Alpha  occ. eigenvalues --   -0.76343  -0.75253  -0.73944  -0.73154  -0.71365
 Alpha  occ. eigenvalues --   -0.70052  -0.69800  -0.68845  -0.68395  -0.68232
 Alpha  occ. eigenvalues --   -0.66118  -0.65742  -0.65607  -0.64606  -0.64420
 Alpha  occ. eigenvalues --   -0.64076  -0.63829  -0.63803  -0.63333  -0.63264
 Alpha  occ. eigenvalues --   -0.62218  -0.61807  -0.60943  -0.60320  -0.59875
 Alpha  occ. eigenvalues --   -0.58455  -0.57647  -0.57096  -0.56427  -0.56040
 Alpha  occ. eigenvalues --   -0.55300  -0.54851  -0.54385  -0.53848  -0.53423
 Alpha  occ. eigenvalues --   -0.53357  -0.53181  -0.53043  -0.52358  -0.52176
 Alpha  occ. eigenvalues --   -0.52057  -0.51530  -0.51145  -0.51030  -0.50285
 Alpha  occ. eigenvalues --   -0.49709  -0.49334  -0.49137  -0.49076  -0.48749
 Alpha  occ. eigenvalues --   -0.48540  -0.48333  -0.47815  -0.47506  -0.47132
 Alpha  occ. eigenvalues --   -0.46796  -0.46556  -0.46317  -0.45877  -0.45531
 Alpha  occ. eigenvalues --   -0.45126  -0.45096  -0.44625  -0.44483  -0.44209
 Alpha  occ. eigenvalues --   -0.44071  -0.43737  -0.43311  -0.43009  -0.42698
 Alpha  occ. eigenvalues --   -0.42593  -0.42502  -0.42168  -0.41897  -0.41176
 Alpha  occ. eigenvalues --   -0.40882  -0.40573  -0.40103  -0.39760  -0.39392
 Alpha  occ. eigenvalues --   -0.39362  -0.39006  -0.38842  -0.38657  -0.38360
 Alpha  occ. eigenvalues --   -0.37545  -0.37194  -0.37106  -0.37078  -0.36464
 Alpha  occ. eigenvalues --   -0.36070  -0.33640  -0.33454  -0.33219  -0.31971
 Alpha  occ. eigenvalues --   -0.31634  -0.31528  -0.31128  -0.31057  -0.30647
 Alpha  occ. eigenvalues --   -0.29622  -0.29589  -0.29280  -0.29079  -0.25984
 Alpha virt. eigenvalues --   -0.21999  -0.15571  -0.11647  -0.09314  -0.08123
 Alpha virt. eigenvalues --   -0.07913  -0.05428  -0.04559  -0.04463  -0.03251
 Alpha virt. eigenvalues --   -0.03037  -0.02098  -0.02007  -0.01697  -0.00307

 Mulliken charges:
               1
     1  N   -0.732147
     2  H    0.336431
     3  H    0.325799
     4  C   -0.074241
     5  H    0.214144
     6  C    0.637379
     7  C   -0.397559
     8  H    0.202916
     9  H    0.269077
    10  O   -0.548618
    11  C    0.550851
    12  N   -0.813669
    13  H    0.425546
    14  H    0.430559
    15  O   -0.305566
    16  N   -0.595551
    17  H    0.371389
    18  C   -0.060327
    19  H    0.181140
    20  C    0.637051
    21  C   -0.091196
    22  H    0.145555
    23  O   -0.523759
    24  C   -0.254683
    25  H    0.103930
    26  H    0.139564
    27  C   -0.484970
    28  H    0.166562
    29  H    0.154497
    30  H    0.191459
    31  C   -0.448899
    32  H    0.146342
    33  H    0.147227
    34  H    0.164245
    35  N   -0.598544
    36  H    0.350342
    37  C   -0.059101
    38  H    0.181211
    39  C    0.638907
    40  C   -0.455348
    41  H    0.170920
    42  H    0.139736
    43  H    0.172975
    44  O   -0.562694
    45  N   -0.598173
    46  H    0.368570
    47  C   -0.090838
    48  H    0.165006
    49  C    0.618732
    50  C    0.155203
    51  H    0.150961
    52  O   -0.533562
    53  C   -0.496709
    54  H    0.199051
    55  H    0.159770
    56  H    0.133481
    57  O   -0.651903
    58  H    0.408877
    59  N   -0.583304
    60  H    0.353830
    61  C   -0.103231
    62  H    0.201010
    63  C    0.643791
    64  C   -0.039770
    65  H    0.147683
    66  H    0.139789
    67  O   -0.517495
    68  O   -0.619296
    69  H    0.407757
    70  N   -0.623428
    71  H    0.356226
    72  C   -0.187067
    73  H    0.191746
    74  H    0.189150
    75  C    0.604672
    76  O   -0.527580
    77  N   -0.618866
    78  H    0.354923
    79  C   -0.050781
    80  H    0.208698
    81  C    0.592571
    82  C   -0.266353
    83  H    0.168013
    84  H    0.165807
    85  O   -0.450961
    86  C   -0.272519
    87  H    0.131985
    88  H    0.140236
    89  C   -0.263505
    90  H    0.126704
    91  H    0.132170
    92  C   -0.141306
    93  H    0.138903
    94  H    0.142586
    95  N   -0.702241
    96  H    0.292302
    97  H    0.294577
    98  O   -0.585337
    99  H    0.422206
   100  H    0.428352
 Sum of Mulliken charges =   1.00000

 Dipole moment (field-independent basis, Debye):
    X=            -34.9110    Y=              9.5162    Z=             20.9670  Tot=             41.8205
 Quadrupole moment (field-independent basis, Debye-Ang):
   XX=             97.7127   YY=           -213.3027   ZZ=           -122.7008
   XY=           -145.4031   XZ=           -245.9495   YZ=             59.5815

 Normal termination of Gaussian 16 at Fri May 27 02:49:46 2022.
