 Gaussian 16, Revision C.01,
 Gaussian 16:  ES64L-G16RevC.01  3-Jul-2019

 -------------------------------------------------------------------
 # B3LYP/6-31G* guess=read geom=check nosymm integral(ultrafinegrid)
 -------------------------------------------------------------------

 ------------------------------------------------------
 Candidate Structure: Conf:123 Charge calc in gas phase
 ------------------------------------------------------
 Structure from the checkpoint file:  "conf-123.chk"
 Charge =  1 Multiplicity = 1

                          Input orientation:
 ---------------------------------------------------------------------
 Center     Atomic      Atomic             Coordinates (Angstroms)
 Number     Number       Type             X           Y           Z
 ---------------------------------------------------------------------
      1          7           0       -7.150200    2.104279    2.080319
      2          1           0       -6.811296    2.134933    1.119290
      3          1           0       -7.064396    3.044989    2.460320
      4          6           0       -6.363617    1.147870    2.849036
      5          1           0       -6.675998    1.237617    3.898648
      6          6           0       -4.848283    1.368146    2.743268
      7          6           0       -6.690446   -0.269407    2.317016
      8          1           0       -7.736693   -0.491216    2.561333
      9          1           0       -6.606214   -0.267112    1.227696
     10          8           0       -4.238744    1.236741    1.687229
     11          6           0       -5.810119   -1.418287    2.791105
     12          7           0       -5.390184   -1.387681    4.152716
     13          1           0       -6.036268   -0.943122    4.801181
     14          1           0       -3.662514   -0.691239    3.999469
     15          8           0       -5.425442   -2.307155    2.065961
     16          7           0       -4.172099    1.631943    3.908921
     17          1           0       -4.669997    1.807295    4.770639
     18          6           0       -2.720492    1.716615    3.905097
     19          1           0       -2.392062    2.519151    3.233241
     20          6           0       -2.191043    0.408589    3.324284
     21          6           0       -2.181833    1.996498    5.343130
     22          1           0       -2.658265    1.262598    6.011537
     23          8           0       -2.726856   -0.740183    3.633496
     24          6           0       -2.607686    3.418468    5.783037
     25          1           0       -3.662691    3.590265    5.532626
     26          1           0       -2.039040    4.149334    5.192071
     27          6           0       -0.659652    1.810972    5.435542
     28          1           0       -0.131435    2.462283    4.728211
     29          1           0       -0.311074    2.068370    6.438231
     30          1           0       -0.351205    0.777951    5.247131
     31          6           0       -2.414402    3.694389    7.278914
     32          1           0       -2.783636    4.693970    7.528153
     33          1           0       -2.966460    2.973404    7.893795
     34          1           0       -1.362367    3.653826    7.576527
     35          7           0       -1.137427    0.396316    2.565872
     36          1           0       -0.627884    1.260946    2.344052
     37          6           0       -0.525156   -0.772502    1.915876
     38          1           0       -0.363899   -1.549084    2.671636
     39          6           0        0.836378   -0.235348    1.413035
     40          6           0       -1.406126   -1.311318    0.775282
     41          1           0       -0.919304   -2.169987    0.304503
     42          1           0       -2.377791   -1.634507    1.156229
     43          1           0       -1.562409   -0.540771    0.015160
     44          8           0        1.083297    0.973175    1.519406
     45          7           0        1.659054   -1.129337    0.848080
     46          1           0        1.496186   -2.118452    1.014083
     47          6           0        3.058737   -0.818160    0.508960
     48          1           0        3.443516   -0.144782    1.286029
     49          6           0        3.192473   -0.098092   -0.861400
     50          6           0        3.870015   -2.133313    0.502892
     51          1           0        3.719100   -2.617072   -0.469972
     52          8           0        3.889198   -0.572708   -1.763535
     53          6           0        5.358385   -1.885763    0.723196
     54          1           0        5.761599   -1.247389   -0.066991
     55          1           0        5.908677   -2.833486    0.697096
     56          1           0        5.531293   -1.415925    1.697567
     57          8           0        3.308548   -2.948483    1.545582
     58          1           0        3.756543   -3.808139    1.517472
     59          7           0        2.518324    1.062806   -0.980061
     60          1           0        2.042265    1.475664   -0.179309
     61          6           0        2.533376    1.844597   -2.216084
     62          1           0        2.531447    1.144742   -3.058155
     63          6           0        3.805556    2.716346   -2.280242
     64          6           0        1.286233    2.737014   -2.263468
     65          1           0        0.390131    2.108860   -2.301927
     66          1           0        1.324373    3.343480   -3.178340
     67          8           0        3.795967    3.906821   -1.964121
     68          8           0        1.186932    3.532579   -1.094606
     69          1           0        1.979267    4.105625   -1.129908
     70          7           0        4.919635    2.078039   -2.724139
     71          1           0        4.878384    1.065176   -2.793659
     72          6           0        6.194969    2.778657   -2.808366
     73          1           0        6.397839    3.329740   -1.886377
     74          1           0        6.986539    2.037075   -2.949022
     75          6           0        6.279875    3.810960   -3.948538
     76          8           0        7.095701    4.718807   -3.900693
     77          7           0        5.430002    3.590773   -4.992574
     78          1           0        4.682378    2.922759   -4.852157
     79          6           0        5.166714    4.610512   -5.991710
     80          1           0        5.621699    5.542811   -5.639976
     81          6           0        3.655981    4.794148   -6.071103
     82          6           0        5.744688    4.272910   -7.388381
     83          1           0        5.250942    3.366525   -7.767324
     84          1           0        5.475162    5.089374   -8.069845
     85          8           0        2.836837    4.032394   -5.593752
     86          6           0        7.263467    4.069226   -7.372298
     87          1           0        7.745163    4.947515   -6.921563
     88          1           0        7.519676    3.216895   -6.735625
     89          6           0        7.840019    3.831499   -8.773379
     90          1           0        7.695550    4.724840   -9.397010
     91          1           0        7.285851    3.020294   -9.271382
     92          6           0        9.331620    3.475116   -8.761955
     93          1           0        9.716668    3.512312   -9.796546
     94          1           0        9.880210    4.239156   -8.196466
     95          7           0        9.557732    2.184138   -8.096141
     96          1           0       10.557247    2.028979   -7.976104
     97          1           0        9.229006    1.431174   -8.700389
     98          8           0        3.314710    5.890022   -6.774279
     99          1           0        2.339353    5.914305   -6.805251
    100          1           0       -5.141991   -2.325431    4.466923
 ---------------------------------------------------------------------

 SCF Done:  E(RB3LYP) =  -2418.41649129     A.U. after    2 cycles

 Alpha  occ. eigenvalues --  -19.34819 -19.25453 -19.24919 -19.24832 -19.24644
 Alpha  occ. eigenvalues --  -19.24533 -19.20539 -19.20032 -19.19850 -19.18915
 Alpha  occ. eigenvalues --  -19.15449 -14.53202 -14.50363 -14.49179 -14.47872
 Alpha  occ. eigenvalues --  -14.44036 -14.43046 -14.42820 -14.39985 -14.34426
 Alpha  occ. eigenvalues --  -10.47364 -10.41758 -10.41544 -10.41496 -10.38759
 Alpha  occ. eigenvalues --  -10.37778 -10.37720 -10.37570 -10.35609 -10.35453
 Alpha  occ. eigenvalues --  -10.33459 -10.33446 -10.33320 -10.33087 -10.31090
 Alpha  occ. eigenvalues --  -10.30320 -10.30230 -10.29957 -10.29659 -10.29631
 Alpha  occ. eigenvalues --  -10.28331 -10.28326 -10.27753 -10.25723 -10.23780
 Alpha  occ. eigenvalues --  -10.23060 -10.21304 -10.20844  -1.25229  -1.17094
 Alpha  occ. eigenvalues --   -1.16829  -1.16443  -1.16415  -1.12483  -1.11700
 Alpha  occ. eigenvalues --   -1.10690  -1.10415  -1.07733  -1.07328  -1.07134
 Alpha  occ. eigenvalues --   -1.06655  -1.04191  -1.03128  -1.00674  -1.00374
 Alpha  occ. eigenvalues --   -0.98988  -0.96684  -0.94597  -0.91793  -0.91011
 Alpha  occ. eigenvalues --   -0.88189  -0.87506  -0.86066  -0.84279  -0.83397
 Alpha  occ. eigenvalues --   -0.83210  -0.81323  -0.80056  -0.79532  -0.77917
 Alpha  occ. eigenvalues --   -0.77583  -0.76813  -0.75995  -0.73063  -0.72545
 Alpha  occ. eigenvalues --   -0.72263  -0.70244  -0.70154  -0.69732  -0.69297
 Alpha  occ. eigenvalues --   -0.68768  -0.67569  -0.67067  -0.66452  -0.65811
 Alpha  occ. eigenvalues --   -0.65393  -0.65148  -0.64474  -0.63978  -0.62941
 Alpha  occ. eigenvalues --   -0.62604  -0.62137  -0.61584  -0.60936  -0.60493
 Alpha  occ. eigenvalues --   -0.60082  -0.59337  -0.58369  -0.57808  -0.57363
 Alpha  occ. eigenvalues --   -0.56920  -0.56866  -0.56475  -0.56076  -0.55693
 Alpha  occ. eigenvalues --   -0.55443  -0.54950  -0.54789  -0.54386  -0.54155
 Alpha  occ. eigenvalues --   -0.53339  -0.53045  -0.52675  -0.52484  -0.52369
 Alpha  occ. eigenvalues --   -0.51863  -0.51812  -0.51779  -0.51334  -0.51157
 Alpha  occ. eigenvalues --   -0.50760  -0.50290  -0.50120  -0.50081  -0.49729
 Alpha  occ. eigenvalues --   -0.49481  -0.49196  -0.48979  -0.48648  -0.48595
 Alpha  occ. eigenvalues --   -0.48269  -0.47969  -0.47780  -0.47714  -0.47601
 Alpha  occ. eigenvalues --   -0.47246  -0.46723  -0.46485  -0.45874  -0.45699
 Alpha  occ. eigenvalues --   -0.45599  -0.45464  -0.44903  -0.44718  -0.44545
 Alpha  occ. eigenvalues --   -0.44299  -0.43696  -0.43471  -0.42665  -0.42450
 Alpha  occ. eigenvalues --   -0.42388  -0.40656  -0.40496  -0.39838  -0.39762
 Alpha  occ. eigenvalues --   -0.39700  -0.39010  -0.38780  -0.38619  -0.37860
 Alpha  occ. eigenvalues --   -0.37337  -0.37165  -0.36745  -0.36298  -0.36013
 Alpha  occ. eigenvalues --   -0.35644  -0.34703  -0.33908  -0.33719  -0.33233
 Alpha  occ. eigenvalues --   -0.33035  -0.31092  -0.29836  -0.28841  -0.26558
 Alpha virt. eigenvalues --   -0.16269  -0.11946  -0.10879  -0.10312  -0.07706
 Alpha virt. eigenvalues --   -0.07316  -0.04928  -0.04598  -0.03992  -0.03457
 Alpha virt. eigenvalues --   -0.02543  -0.01866  -0.01680  -0.01381  -0.00775

 Mulliken charges:
               1
     1  N   -0.688717
     2  H    0.329878
     3  H    0.318963
     4  C   -0.082523
     5  H    0.132994
     6  C    0.611311
     7  C   -0.349909
     8  H    0.210494
     9  H    0.213553
    10  O   -0.512670
    11  C    0.548165
    12  N   -0.807301
    13  H    0.345931
    14  H    0.487517
    15  O   -0.425330
    16  N   -0.650794
    17  H    0.346336
    18  C   -0.013088
    19  H    0.202935
    20  C    0.661940
    21  C   -0.113780
    22  H    0.139218
    23  O   -0.593189
    24  C   -0.269653
    25  H    0.135876
    26  H    0.164693
    27  C   -0.482185
    28  H    0.170944
    29  H    0.190592
    30  H    0.158825
    31  C   -0.455690
    32  H    0.176779
    33  H    0.151392
    34  H    0.169165
    35  N   -0.563947
    36  H    0.405370
    37  C   -0.074540
    38  H    0.207247
    39  C    0.642559
    40  C   -0.454775
    41  H    0.179240
    42  H    0.206419
    43  H    0.192320
    44  O   -0.548386
    45  N   -0.608490
    46  H    0.366884
    47  C   -0.072932
    48  H    0.193385
    49  C    0.637102
    50  C    0.120946
    51  H    0.167240
    52  O   -0.540370
    53  C   -0.474836
    54  H    0.183997
    55  H    0.157080
    56  H    0.161890
    57  O   -0.657919
    58  H    0.413186
    59  N   -0.620724
    60  H    0.391231
    61  C   -0.082594
    62  H    0.179491
    63  C    0.625694
    64  C   -0.060841
    65  H    0.140591
    66  H    0.176691
    67  O   -0.527531
    68  O   -0.644161
    69  H    0.423670
    70  N   -0.627255
    71  H    0.370731
    72  C   -0.225618
    73  H    0.203104
    74  H    0.187247
    75  C    0.610896
    76  O   -0.506735
    77  N   -0.587045
    78  H    0.341227
    79  C   -0.051208
    80  H    0.204455
    81  C    0.589702
    82  C   -0.265129
    83  H    0.133567
    84  H    0.156204
    85  O   -0.487738
    86  C   -0.251778
    87  H    0.147213
    88  H    0.170682
    89  C   -0.253677
    90  H    0.131319
    91  H    0.121378
    92  C   -0.142622
    93  H    0.118283
    94  H    0.144067
    95  N   -0.714445
    96  H    0.299841
    97  H    0.291192
    98  O   -0.554678
    99  H    0.416551
   100  H    0.367411
 Sum of Mulliken charges =   1.00000

 Dipole moment (field-independent basis, Debye):
    X=            -10.3499    Y=             -1.1491    Z=             14.9199  Tot=             18.1946
 Quadrupole moment (field-independent basis, Debye-Ang):
   XX=           -186.8878   YY=           -268.1087   ZZ=           -141.7464
   XY=            -45.4363   XZ=            -92.9992   YZ=              3.6077

 Normal termination of Gaussian 16 at Fri May 27 02:49:14 2022.
