 Gaussian 16, Revision C.01,
 Gaussian 16:  ES64L-G16RevC.01  3-Jul-2019

 -------------------------------------------------------------------
 # B3LYP/6-31G* guess=read geom=check nosymm integral(ultrafinegrid)
 -------------------------------------------------------------------

 ------------------------------------------------------
 Candidate Structure: Conf:879 Charge calc in gas phase
 ------------------------------------------------------
 Structure from the checkpoint file:  "conf-879.chk"
 Charge =  1 Multiplicity = 1

                          Input orientation:
 ---------------------------------------------------------------------
 Center     Atomic      Atomic             Coordinates (Angstroms)
 Number     Number       Type             X           Y           Z
 ---------------------------------------------------------------------
      1          7           0       -6.837949    0.670664    5.554201
      2          1           0       -7.359408    0.198277    6.288199
      3          1           0       -7.489915    1.180200    4.961769
      4          6           0       -6.013892   -0.238083    4.788868
      5          1           0       -5.349902   -0.760045    5.486760
      6          6           0       -5.187801    0.595085    3.793950
      7          6           0       -6.821096   -1.327261    3.986603
      8          1           0       -7.383641   -1.942083    4.693062
      9          1           0       -7.515383   -0.800745    3.323831
     10          8           0       -5.671437    0.934812    2.704816
     11          6           0       -5.962263   -2.262173    3.185291
     12          7           0       -5.403352   -1.656889    1.883387
     13          1           0       -5.913372   -0.806697    1.603064
     14          1           0       -5.406653   -2.376505    1.153324
     15          8           0       -5.630067   -3.379992    3.432505
     16          7           0       -3.926690    0.880099    4.157866
     17          1           0       -3.591321    0.551589    5.053340
     18          6           0       -2.973538    1.551770    3.281517
     19          1           0       -3.416411    2.499767    2.951436
     20          6           0       -2.764495    0.672142    2.022824
     21          6           0       -1.673215    1.855278    4.091729
     22          1           0       -1.330574    0.893133    4.504226
     23          8           0       -2.988527   -0.555039    2.022756
     24          6           0       -1.999177    2.814569    5.264313
     25          1           0       -2.920743    2.501761    5.770871
     26          1           0       -2.214129    3.808503    4.847446
     27          6           0       -0.544645    2.421435    3.217896
     28          1           0       -0.846439    3.365500    2.742537
     29          1           0        0.325238    2.648300    3.839305
     30          1           0       -0.217208    1.722525    2.445343
     31          6           0       -0.886358    2.922339    6.313904
     32          1           0       -1.204322    3.570249    7.136950
     33          1           0       -0.642573    1.941121    6.739140
     34          1           0        0.034494    3.346971    5.903113
     35          7           0       -2.352051    1.307394    0.917732
     36          1           0       -2.066513    2.276145    0.993326
     37          6           0       -2.026944    0.620034   -0.327747
     38          1           0       -2.793654   -0.143901   -0.488890
     39          6           0       -0.641157   -0.058893   -0.229650
     40          6           0       -2.026204    1.633025   -1.485847
     41          1           0       -1.877121    1.121127   -2.440531
     42          1           0       -2.982632    2.163295   -1.529034
     43          1           0       -1.211732    2.357230   -1.367684
     44          8           0        0.208017    0.327598    0.577929
     45          7           0       -0.424591   -1.031547   -1.139751
     46          1           0       -1.122724   -1.239893   -1.850237
     47          6           0        0.910273   -1.514256   -1.521411
     48          1           0        1.493841   -1.732254   -0.623852
     49          6           0        1.562794   -0.373560   -2.327379
     50          6           0        0.726045   -2.772819   -2.400058
     51          1           0        1.698418   -2.993917   -2.862194
     52          8           0        1.372386   -0.249222   -3.547526
     53          6           0        0.251423   -3.986531   -1.613184
     54          1           0        0.993528   -4.279032   -0.862681
     55          1           0        0.097247   -4.826088   -2.296490
     56          1           0       -0.695193   -3.780680   -1.102306
     57          8           0       -0.247285   -2.490267   -3.404678
     58          1           0        0.147712   -1.773033   -3.941985
     59          7           0        2.233216    0.531140   -1.588557
     60          1           0        2.578535    0.233169   -0.682141
     61          6           0        2.675527    1.826583   -2.105596
     62          1           0        2.035065    2.049097   -2.963742
     63          6           0        4.139288    1.683907   -2.556184
     64          6           0        2.482331    2.893259   -1.016312
     65          1           0        2.696548    3.878983   -1.436363
     66          1           0        3.202046    2.722276   -0.204618
     67          8           0        5.072488    2.173566   -1.918989
     68          8           0        1.145034    2.921835   -0.536531
     69          1           0        0.983266    2.087895   -0.057971
     70          7           0        4.302200    0.896228   -3.652110
     71          1           0        3.474412    0.433820   -4.019331
     72          6           0        5.604809    0.309727   -3.967678
     73          1           0        5.574801   -0.092439   -4.980612
     74          1           0        6.363530    1.093985   -3.908095
     75          6           0        5.906039   -0.845692   -2.995622
     76          8           0        5.700179   -2.019251   -3.280703
     77          7           0        6.365955   -0.446862   -1.772555
     78          1           0        6.301807    0.542472   -1.545486
     79          6           0        6.514736   -1.407077   -0.695436
     80          1           0        7.134766   -2.233716   -1.050795
     81          6           0        5.160606   -2.001871   -0.296610
     82          6           0        7.180076   -0.711286    0.513905
     83          1           0        8.094675   -0.238835    0.137847
     84          1           0        6.518550    0.102284    0.841474
     85          8           0        4.102546   -1.400209   -0.256482
     86          6           0        7.506709   -1.611388    1.718773
     87          1           0        7.923730   -0.963868    2.501726
     88          1           0        6.576654   -2.020178    2.133826
     89          6           0        8.482249   -2.772096    1.461149
     90          1           0        8.053698   -3.466783    0.725148
     91          1           0        8.595263   -3.348260    2.387052
     92          6           0        9.883097   -2.347400    1.009223
     93          1           0        9.822801   -1.805609    0.046743
     94          1           0       10.295650   -1.637959    1.738984
     95          7           0       10.772950   -3.512865    0.973466
     96          1           0       11.717707   -3.220621    0.729108
     97          1           0       10.476526   -4.148098    0.232955
     98          8           0        5.274379   -3.289500    0.074085
     99          1           0        4.390927   -3.588306    0.361422
    100          1           0       -4.390652   -1.315102    2.016942
 ---------------------------------------------------------------------

 SCF Done:  E(RB3LYP) =  -2418.41577164     A.U. after    2 cycles

 Alpha  occ. eigenvalues --  -19.32151 -19.27265 -19.25682 -19.25432 -19.22506
 Alpha  occ. eigenvalues --  -19.21931 -19.21805 -19.21441 -19.21377 -19.19430
 Alpha  occ. eigenvalues --  -19.17612 -14.57503 -14.49761 -14.49130 -14.46414
 Alpha  occ. eigenvalues --  -14.44942 -14.44884 -14.43317 -14.41638 -14.35201
 Alpha  occ. eigenvalues --  -10.48036 -10.42417 -10.42317 -10.39590 -10.39543
 Alpha  occ. eigenvalues --  -10.37973 -10.37485 -10.36288 -10.36022 -10.35180
 Alpha  occ. eigenvalues --  -10.34887 -10.34634 -10.32164 -10.32138 -10.31019
 Alpha  occ. eigenvalues --  -10.30872 -10.30430 -10.30230 -10.29207 -10.28796
 Alpha  occ. eigenvalues --  -10.28230 -10.26899 -10.26167 -10.25710 -10.25387
 Alpha  occ. eigenvalues --  -10.25105 -10.24248 -10.22696  -1.23703  -1.18238
 Alpha  occ. eigenvalues --   -1.17850  -1.16537  -1.14322  -1.12957  -1.11165
 Alpha  occ. eigenvalues --   -1.11123  -1.09501  -1.09395  -1.08922  -1.08621
 Alpha  occ. eigenvalues --   -1.06109  -1.05376  -1.02627  -1.02613  -1.01248
 Alpha  occ. eigenvalues --   -0.99356  -0.98427  -0.92487  -0.92011  -0.91607
 Alpha  occ. eigenvalues --   -0.89285  -0.86563  -0.86165  -0.84881  -0.83968
 Alpha  occ. eigenvalues --   -0.81667  -0.81292  -0.79480  -0.79153  -0.78328
 Alpha  occ. eigenvalues --   -0.76395  -0.74870  -0.74763  -0.74045  -0.72503
 Alpha  occ. eigenvalues --   -0.72103  -0.71764  -0.71243  -0.70469  -0.69614
 Alpha  occ. eigenvalues --   -0.69188  -0.68349  -0.67479  -0.67100  -0.66740
 Alpha  occ. eigenvalues --   -0.66285  -0.65440  -0.64606  -0.64048  -0.63718
 Alpha  occ. eigenvalues --   -0.62646  -0.61966  -0.61689  -0.61232  -0.60691
 Alpha  occ. eigenvalues --   -0.60021  -0.59689  -0.58981  -0.58961  -0.58458
 Alpha  occ. eigenvalues --   -0.58061  -0.57449  -0.57176  -0.56761  -0.56618
 Alpha  occ. eigenvalues --   -0.55958  -0.55554  -0.55251  -0.54805  -0.54674
 Alpha  occ. eigenvalues --   -0.53975  -0.53892  -0.53297  -0.53130  -0.52970
 Alpha  occ. eigenvalues --   -0.52651  -0.52197  -0.51929  -0.51535  -0.51273
 Alpha  occ. eigenvalues --   -0.51027  -0.50807  -0.50702  -0.50560  -0.50279
 Alpha  occ. eigenvalues --   -0.49490  -0.49394  -0.49282  -0.48681  -0.48272
 Alpha  occ. eigenvalues --   -0.47894  -0.47735  -0.47683  -0.47499  -0.47025
 Alpha  occ. eigenvalues --   -0.46576  -0.46459  -0.46384  -0.46062  -0.45764
 Alpha  occ. eigenvalues --   -0.45472  -0.45298  -0.44916  -0.44623  -0.44541
 Alpha  occ. eigenvalues --   -0.44349  -0.43942  -0.43472  -0.42966  -0.42828
 Alpha  occ. eigenvalues --   -0.42479  -0.41290  -0.41190  -0.40338  -0.40049
 Alpha  occ. eigenvalues --   -0.39650  -0.39517  -0.39338  -0.38695  -0.38650
 Alpha  occ. eigenvalues --   -0.38051  -0.37986  -0.37655  -0.36587  -0.36482
 Alpha  occ. eigenvalues --   -0.35674  -0.35454  -0.35190  -0.34664  -0.34361
 Alpha  occ. eigenvalues --   -0.33529  -0.32005  -0.31711  -0.30176  -0.27401
 Alpha virt. eigenvalues --   -0.18612  -0.12584  -0.11455  -0.09368  -0.07678
 Alpha virt. eigenvalues --   -0.07447  -0.06725  -0.05709  -0.04717  -0.03663
 Alpha virt. eigenvalues --   -0.03147  -0.02990  -0.02608  -0.01602  -0.01186

 Mulliken charges:
               1
     1  N   -0.697747
     2  H    0.334725
     3  H    0.333347
     4  C   -0.068247
     5  H    0.174201
     6  C    0.629427
     7  C   -0.371534
     8  H    0.216137
     9  H    0.198455
    10  O   -0.566260
    11  C    0.531107
    12  N   -0.830183
    13  H    0.421702
    14  H    0.410133
    15  O   -0.337951
    16  N   -0.590954
    17  H    0.356257
    18  C   -0.038146
    19  H    0.188930
    20  C    0.660789
    21  C   -0.112555
    22  H    0.145028
    23  O   -0.603849
    24  C   -0.266838
    25  H    0.139288
    26  H    0.153263
    27  C   -0.515919
    28  H    0.146492
    29  H    0.179237
    30  H    0.204953
    31  C   -0.454113
    32  H    0.168836
    33  H    0.149211
    34  H    0.165668
    35  N   -0.563544
    36  H    0.363655
    37  C   -0.061618
    38  H    0.158831
    39  C    0.652846
    40  C   -0.501245
    41  H    0.182710
    42  H    0.176985
    43  H    0.207090
    44  O   -0.539990
    45  N   -0.592910
    46  H    0.351751
    47  C   -0.075788
    48  H    0.189770
    49  C    0.630793
    50  C    0.105579
    51  H    0.163220
    52  O   -0.566670
    53  C   -0.447077
    54  H    0.145452
    55  H    0.181293
    56  H    0.144026
    57  O   -0.650621
    58  H    0.424899
    59  N   -0.592045
    60  H    0.376155
    61  C   -0.097257
    62  H    0.193154
    63  C    0.628880
    64  C   -0.050829
    65  H    0.174841
    66  H    0.154000
    67  O   -0.538637
    68  O   -0.656334
    69  H    0.425935
    70  N   -0.587821
    71  H    0.366984
    72  C   -0.238613
    73  H    0.191225
    74  H    0.195193
    75  C    0.592440
    76  O   -0.513567
    77  N   -0.613449
    78  H    0.371128
    79  C   -0.008693
    80  H    0.195509
    81  C    0.608107
    82  C   -0.311394
    83  H    0.170726
    84  H    0.152290
    85  O   -0.508573
    86  C   -0.272685
    87  H    0.146559
    88  H    0.136582
    89  C   -0.260090
    90  H    0.139714
    91  H    0.157703
    92  C   -0.136480
    93  H    0.112596
    94  H    0.141035
    95  N   -0.714278
    96  H    0.301409
    97  H    0.294883
    98  O   -0.541886
    99  H    0.409918
   100  H    0.473339
 Sum of Mulliken charges =   1.00000

 Dipole moment (field-independent basis, Debye):
    X=            -16.8770    Y=             -1.1104    Z=             11.6546  Tot=             20.5401
 Quadrupole moment (field-independent basis, Debye-Ang):
   XX=           -124.0187   YY=           -279.2713   ZZ=           -223.0368
   XY=             18.1119   XZ=            -73.0900   YZ=             -0.8300

 Normal termination of Gaussian 16 at Fri May 27 02:50:12 2022.
