 Gaussian 16, Revision C.01,
 Gaussian 16:  ES64L-G16RevC.01  3-Jul-2019

 -------------------------------------------------------------------
 # B3LYP/6-31G* guess=read geom=check nosymm integral(ultrafinegrid)
 -------------------------------------------------------------------

 ------------------------------------------------------
 Candidate Structure: Conf:472 Charge calc in gas phase
 ------------------------------------------------------
 Structure from the checkpoint file:  "conf-472.chk"
 Charge =  1 Multiplicity = 1

                          Input orientation:
 ---------------------------------------------------------------------
 Center     Atomic      Atomic             Coordinates (Angstroms)
 Number     Number       Type             X           Y           Z
 ---------------------------------------------------------------------
      1          7           0       -5.316429    0.792217    7.031549
      2          1           0       -5.929082    0.364977    7.723572
      3          1           0       -5.257094    1.786170    7.249168
      4          6           0       -5.851314    0.613446    5.685313
      5          1           0       -5.887228   -0.468482    5.498212
      6          6           0       -4.859694    1.260030    4.716541
      7          6           0       -7.254750    1.232799    5.444127
      8          1           0       -7.997659    0.662087    6.018231
      9          1           0       -7.267846    2.256322    5.827191
     10          8           0       -4.774885    2.473628    4.582008
     11          6           0       -7.746364    1.329382    4.002318
     12          7           0       -7.275671    0.333506    3.093546
     13          1           0       -7.141828   -0.592446    3.494307
     14          1           0       -5.721718    0.965441    2.292263
     15          8           0       -8.462052    2.217298    3.604002
     16          7           0       -4.134036    0.411355    3.915593
     17          1           0       -4.061184   -0.568535    4.152060
     18          6           0       -3.193847    0.974109    2.968403
     19          1           0       -2.555284    1.706930    3.477245
     20          6           0       -3.966503    1.756528    1.905964
     21          6           0       -2.280908   -0.109011    2.314319
     22          1           0       -1.651890    0.440165    1.600954
     23          8           0       -5.218433    1.537416    1.631783
     24          6           0       -3.067061   -1.175819    1.518988
     25          1           0       -3.862701   -0.693824    0.934797
     26          1           0       -3.573810   -1.858144    2.217014
     27          6           0       -1.347859   -0.716307    3.375013
     28          1           0       -1.894585   -1.311196    4.116584
     29          1           0       -0.618499   -1.380126    2.903699
     30          1           0       -0.792915    0.060566    3.911517
     31          6           0       -2.189907   -1.989803    0.558305
     32          1           0       -2.797386   -2.722724    0.018138
     33          1           0       -1.712580   -1.342335   -0.186282
     34          1           0       -1.406569   -2.542416    1.087005
     35          7           0       -3.332069    2.627516    1.171290
     36          1           0       -2.325162    2.776558    1.332464
     37          6           0       -3.915746    3.399512    0.033401
     38          1           0       -4.576710    2.716171   -0.509802
     39          6           0       -2.674862    3.752528   -0.818461
     40          6           0       -4.680137    4.630554    0.506435
     41          1           0       -5.088770    5.153682   -0.362749
     42          1           0       -5.504682    4.343489    1.163645
     43          1           0       -4.014706    5.320312    1.029745
     44          8           0       -2.223946    4.889603   -0.861902
     45          7           0       -2.070672    2.671893   -1.378852
     46          1           0       -2.470567    1.742877   -1.289331
     47          6           0       -0.644341    2.667287   -1.651134
     48          1           0       -0.386116    3.582971   -2.190206
     49          6           0       -0.372597    1.399768   -2.478194
     50          6           0        0.183482    2.576777   -0.311808
     51          1           0        0.192610    1.525816   -0.004092
     52          8           0       -0.981526    0.365605   -2.202723
     53          6           0        1.609116    3.091387   -0.479332
     54          1           0        2.146254    2.550374   -1.266056
     55          1           0        2.162395    2.973866    0.456701
     56          1           0        1.606590    4.156201   -0.745557
     57          8           0       -0.481752    3.241952    0.776327
     58          1           0       -0.504524    4.195216    0.575983
     59          7           0        0.548275    1.516217   -3.462180
     60          1           0        1.142488    2.342427   -3.477633
     61          6           0        1.163269    0.371848   -4.127088
     62          1           0        0.829026   -0.535335   -3.615240
     63          6           0        2.688344    0.564237   -4.008301
     64          6           0        0.719920    0.291744   -5.607452
     65          1           0        1.193297   -0.572230   -6.082912
     66          1           0        1.066167    1.195270   -6.134311
     67          8           0        3.159841    1.648466   -3.654118
     68          8           0       -0.670020    0.101619   -5.734647
     69          1           0       -1.109160    0.894260   -5.388275
     70          7           0        3.441746   -0.494742   -4.353621
     71          1           0        3.048945   -1.396914   -4.612466
     72          6           0        4.888695   -0.461271   -4.350030
     73          1           0        5.262193    0.328549   -5.013202
     74          1           0        5.273186   -0.241503   -3.345133
     75          6           0        5.377844   -1.839571   -4.817631
     76          8           0        4.577016   -2.739736   -5.063705
     77          7           0        6.719808   -1.958529   -4.942857
     78          1           0        7.324856   -1.234067   -4.569199
     79          6           0        7.379617   -3.234201   -5.197764
     80          1           0        6.687390   -4.035589   -4.919854
     81          6           0        8.601612   -3.289303   -4.287905
     82          6           0        7.804939   -3.425912   -6.674586
     83          1           0        8.497998   -2.617969   -6.946876
     84          1           0        8.369614   -4.363612   -6.738197
     85          8           0        9.056901   -2.332883   -3.696047
     86          6           0        6.628233   -3.460566   -7.656261
     87          1           0        5.926815   -4.251553   -7.357387
     88          1           0        6.072377   -2.517057   -7.588471
     89          6           0        7.077479   -3.689346   -9.105263
     90          1           0        7.635855   -4.634714   -9.169476
     91          1           0        7.781019   -2.896453   -9.402507
     92          6           0        5.914296   -3.734793  -10.116220
     93          1           0        6.314815   -3.990788  -11.104688
     94          1           0        5.227877   -4.547370   -9.843442
     95          7           0        5.114563   -2.516684  -10.268058
     96          1           0        5.716012   -1.732588  -10.518580
     97          1           0        4.670714   -2.270342   -9.385374
     98          8           0        9.141515   -4.519634   -4.245478
     99          1           0        9.936810   -4.464891   -3.681306
    100          1           0       -7.888575    0.293120    2.279429
 ---------------------------------------------------------------------

 SCF Done:  E(RB3LYP) =  -2418.41231312     A.U. after    2 cycles

 Alpha  occ. eigenvalues --  -19.34243 -19.27128 -19.26883 -19.24390 -19.23776
 Alpha  occ. eigenvalues --  -19.22624 -19.22022 -19.21933 -19.21650 -19.20338
 Alpha  occ. eigenvalues --  -19.19940 -14.52648 -14.49464 -14.48408 -14.46593
 Alpha  occ. eigenvalues --  -14.45899 -14.44445 -14.43783 -14.42526 -14.35346
 Alpha  occ. eigenvalues --  -10.46688 -10.41104 -10.40979 -10.39975 -10.39573
 Alpha  occ. eigenvalues --  -10.39210 -10.37928 -10.37419 -10.37214 -10.36174
 Alpha  occ. eigenvalues --  -10.35093 -10.34784 -10.33765 -10.32709 -10.31808
 Alpha  occ. eigenvalues --  -10.31533 -10.31225 -10.31028 -10.30534 -10.30000
 Alpha  occ. eigenvalues --  -10.29032 -10.27971 -10.27117 -10.26955 -10.25379
 Alpha  occ. eigenvalues --  -10.24728 -10.23704 -10.22787  -1.24598  -1.18171
 Alpha  occ. eigenvalues --   -1.16601  -1.15623  -1.15360  -1.13838  -1.13157
 Alpha  occ. eigenvalues --   -1.12384  -1.11577  -1.09805  -1.09572  -1.09250
 Alpha  occ. eigenvalues --   -1.05952  -1.03164  -1.02357  -1.02158  -1.00815
 Alpha  occ. eigenvalues --   -1.00395  -1.00085  -0.93873  -0.92041  -0.90780
 Alpha  occ. eigenvalues --   -0.88123  -0.87376  -0.86911  -0.85491  -0.85169
 Alpha  occ. eigenvalues --   -0.82798  -0.82239  -0.81106  -0.79973  -0.79268
 Alpha  occ. eigenvalues --   -0.78006  -0.75690  -0.74786  -0.74641  -0.73319
 Alpha  occ. eigenvalues --   -0.71940  -0.71484  -0.70112  -0.69635  -0.69374
 Alpha  occ. eigenvalues --   -0.68918  -0.68483  -0.68309  -0.67629  -0.67142
 Alpha  occ. eigenvalues --   -0.66932  -0.65717  -0.64919  -0.64420  -0.64093
 Alpha  occ. eigenvalues --   -0.62930  -0.62525  -0.61382  -0.60771  -0.60485
 Alpha  occ. eigenvalues --   -0.59537  -0.58986  -0.58621  -0.58201  -0.58084
 Alpha  occ. eigenvalues --   -0.57545  -0.56969  -0.56614  -0.56515  -0.55961
 Alpha  occ. eigenvalues --   -0.55678  -0.55440  -0.54822  -0.54759  -0.54585
 Alpha  occ. eigenvalues --   -0.54524  -0.53986  -0.53726  -0.53668  -0.53441
 Alpha  occ. eigenvalues --   -0.53249  -0.52729  -0.52482  -0.52282  -0.52086
 Alpha  occ. eigenvalues --   -0.51770  -0.51330  -0.50969  -0.50953  -0.50399
 Alpha  occ. eigenvalues --   -0.49545  -0.49350  -0.49256  -0.48917  -0.48879
 Alpha  occ. eigenvalues --   -0.48733  -0.48224  -0.48092  -0.48001  -0.47637
 Alpha  occ. eigenvalues --   -0.47385  -0.47243  -0.47167  -0.47120  -0.46953
 Alpha  occ. eigenvalues --   -0.46724  -0.46363  -0.46116  -0.45890  -0.44973
 Alpha  occ. eigenvalues --   -0.44675  -0.44340  -0.44059  -0.43597  -0.43559
 Alpha  occ. eigenvalues --   -0.43303  -0.42643  -0.41694  -0.41068  -0.40711
 Alpha  occ. eigenvalues --   -0.40034  -0.39868  -0.39345  -0.39287  -0.38459
 Alpha  occ. eigenvalues --   -0.38081  -0.37783  -0.37398  -0.37004  -0.36725
 Alpha  occ. eigenvalues --   -0.35961  -0.35543  -0.35284  -0.34878  -0.34571
 Alpha  occ. eigenvalues --   -0.34087  -0.33769  -0.33196  -0.32858  -0.27319
 Alpha virt. eigenvalues --   -0.15486  -0.10981  -0.10398  -0.09934  -0.08505
 Alpha virt. eigenvalues --   -0.06931  -0.06534  -0.06390  -0.05193  -0.04955
 Alpha virt. eigenvalues --   -0.03304  -0.02308  -0.01020  -0.00885  -0.00720

 Mulliken charges:
               1
     1  N   -0.709596
     2  H    0.324146
     3  H    0.329739
     4  C   -0.075787
     5  H    0.133534
     6  C    0.630910
     7  C   -0.374529
     8  H    0.190830
     9  H    0.214471
    10  O   -0.501359
    11  C    0.557287
    12  N   -0.811862
    13  H    0.343961
    14  H    0.503534
    15  O   -0.418529
    16  N   -0.653456
    17  H    0.354210
    18  C   -0.023977
    19  H    0.210255
    20  C    0.664641
    21  C   -0.130578
    22  H    0.160886
    23  O   -0.592598
    24  C   -0.277443
    25  H    0.137627
    26  H    0.133755
    27  C   -0.460174
    28  H    0.151343
    29  H    0.184847
    30  H    0.171785
    31  C   -0.469000
    32  H    0.168886
    33  H    0.184111
    34  H    0.160296
    35  N   -0.601305
    36  H    0.419781
    37  C   -0.067059
    38  H    0.196727
    39  C    0.581358
    40  C   -0.438820
    41  H    0.190634
    42  H    0.180961
    43  H    0.186881
    44  O   -0.503468
    45  N   -0.589809
    46  H    0.347226
    47  C   -0.072966
    48  H    0.187085
    49  C    0.599176
    50  C    0.125469
    51  H    0.161344
    52  O   -0.528786
    53  C   -0.490801
    54  H    0.187793
    55  H    0.179444
    56  H    0.163507
    57  O   -0.647897
    58  H    0.423856
    59  N   -0.603386
    60  H    0.360158
    61  C   -0.104383
    62  H    0.198816
    63  C    0.627552
    64  C   -0.023423
    65  H    0.165774
    66  H    0.141751
    67  O   -0.541433
    68  O   -0.594855
    69  H    0.399729
    70  N   -0.621236
    71  H    0.366428
    72  C   -0.196424
    73  H    0.199437
    74  H    0.196113
    75  C    0.602979
    76  O   -0.525276
    77  N   -0.605685
    78  H    0.353745
    79  C   -0.051269
    80  H    0.202681
    81  C    0.584213
    82  C   -0.263959
    83  H    0.145362
    84  H    0.168208
    85  O   -0.467128
    86  C   -0.256175
    87  H    0.150175
    88  H    0.126780
    89  C   -0.264628
    90  H    0.134318
    91  H    0.126118
    92  C   -0.145991
    93  H    0.149850
    94  H    0.144267
    95  N   -0.703986
    96  H    0.292333
    97  H    0.294507
    98  O   -0.555832
    99  H    0.425113
   100  H    0.366165
 Sum of Mulliken charges =   1.00000

 Dipole moment (field-independent basis, Debye):
    X=             -7.1819    Y=             -0.8597    Z=              6.7562  Tot=              9.8978
 Quadrupole moment (field-independent basis, Debye-Ang):
   XX=           -121.6214   YY=           -271.4013   ZZ=           -218.2212
   XY=            -16.2970   XZ=           -110.0850   YZ=             -9.0344

 Normal termination of Gaussian 16 at Fri May 27 02:50:11 2022.
