 Gaussian 16, Revision C.01,
 Gaussian 16:  ES64L-G16RevC.01  3-Jul-2019

 -------------------------------------------------------------------
 # B3LYP/6-31G* guess=read geom=check nosymm integral(ultrafinegrid)
 -------------------------------------------------------------------

 ------------------------------------------------------
 Candidate Structure: Conf:669 Charge calc in gas phase
 ------------------------------------------------------
 Structure from the checkpoint file:  "conf-669.chk"
 Charge =  1 Multiplicity = 1

                          Input orientation:
 ---------------------------------------------------------------------
 Center     Atomic      Atomic             Coordinates (Angstroms)
 Number     Number       Type             X           Y           Z
 ---------------------------------------------------------------------
      1          7           0       -1.616197   -2.924985    3.417716
      2          1           0       -2.603753   -2.950054    3.688022
      3          1           0       -1.092506   -2.729379    4.270822
      4          6           0       -1.448312   -1.822099    2.452594
      5          1           0       -0.386916   -1.567928    2.379441
      6          6           0       -2.304227   -0.592446    2.815597
      7          6           0       -1.972834   -2.266850    1.061070
      8          1           0       -3.023045   -2.575792    1.183646
      9          1           0       -1.979242   -1.429306    0.358306
     10          8           0       -3.466466   -0.768484    3.166121
     11          6           0       -1.247811   -3.407515    0.406803
     12          7           0       -0.667182   -4.426610    1.364058
     13          1           0        0.409674   -4.401137    1.238822
     14          1           0       -0.988037   -5.364817    1.106556
     15          8           0       -1.092348   -3.597863   -0.764806
     16          7           0       -1.704014    0.614171    2.644474
     17          1           0       -0.758526    0.579461    2.266832
     18          6           0       -2.491842    1.804965    2.298758
     19          1           0       -3.538495    1.494606    2.394821
     20          6           0       -2.232714    1.999884    0.772864
     21          6           0       -2.250371    3.031289    3.223300
     22          1           0       -1.322414    3.526408    2.896072
     23          8           0       -2.177479    0.999298    0.040469
     24          6           0       -2.010238    2.635864    4.700699
     25          1           0       -1.722625    3.551537    5.233648
     26          1           0       -1.140240    1.971045    4.746119
     27          6           0       -3.414200    4.037301    3.110003
     28          1           0       -4.352286    3.587160    3.450373
     29          1           0       -3.219646    4.914535    3.735659
     30          1           0       -3.590537    4.392955    2.089303
     31          6           0       -3.189028    1.978221    5.431093
     32          1           0       -2.887429    1.701659    6.447341
     33          1           0       -4.043038    2.657038    5.525375
     34          1           0       -3.534339    1.069236    4.927707
     35          7           0       -2.022181    3.240747    0.284643
     36          1           0       -1.964312    4.023089    0.922045
     37          6           0       -1.607684    3.490228   -1.110833
     38          1           0       -2.162819    2.783519   -1.733056
     39          6           0       -0.088400    3.190926   -1.174141
     40          6           0       -1.916692    4.927731   -1.508898
     41          1           0       -1.663582    5.085905   -2.561099
     42          1           0       -2.980363    5.144618   -1.373022
     43          1           0       -1.317502    5.628250   -0.919569
     44          8           0        0.753248    4.042937   -0.924936
     45          7           0        0.207839    1.879209   -1.413245
     46          1           0       -0.534551    1.235354   -1.665057
     47          6           0        1.520823    1.295556   -1.201834
     48          1           0        2.279427    2.045041   -1.446523
     49          6           0        1.623619    0.071942   -2.118177
     50          6           0        1.716661    0.845134    0.285682
     51          1           0        2.567301    0.156470    0.326982
     52          8           0        0.627135   -0.611836   -2.373416
     53          6           0        1.983289    2.009901    1.238660
     54          1           0        2.888497    2.555212    0.951475
     55          1           0        2.123686    1.618836    2.252363
     56          1           0        1.158689    2.726916    1.249168
     57          8           0        0.578861    0.079163    0.719531
     58          1           0       -0.213288    0.410596    0.251595
     59          7           0        2.858427   -0.227082   -2.585020
     60          1           0        3.649868    0.325924   -2.279957
     61          6           0        3.122062   -1.345139   -3.493335
     62          1           0        2.270499   -1.423717   -4.176631
     63          6           0        3.246861   -2.673046   -2.718144
     64          6           0        4.400324   -1.068885   -4.305725
     65          1           0        5.236213   -0.879673   -3.612616
     66          1           0        4.244546   -0.166647   -4.904792
     67          8           0        4.317175   -3.295037   -2.652525
     68          8           0        4.681295   -2.120166   -5.194862
     69          1           0        4.973970   -2.865805   -4.642642
     70          7           0        2.114210   -3.108597   -2.122316
     71          1           0        1.283368   -2.518565   -2.172515
     72          6           0        2.074034   -4.368296   -1.390382
     73          1           0        1.034753   -4.685618   -1.317238
     74          1           0        2.640743   -5.118834   -1.950716
     75          6           0        2.664921   -4.231071    0.021235
     76          8           0        1.966004   -4.217848    1.057679
     77          7           0        3.998182   -4.114793    0.063307
     78          1           0        4.466572   -3.982846   -0.836447
     79          6           0        4.726685   -3.792212    1.283163
     80          1           0        4.290349   -4.361602    2.107799
     81          6           0        4.555221   -2.301324    1.589390
     82          6           0        6.213820   -4.178824    1.102588
     83          1           0        6.222162   -5.209211    0.725666
     84          1           0        6.647422   -3.551492    0.311419
     85          8           0        4.331022   -1.445875    0.759414
     86          6           0        7.072151   -4.096888    2.371216
     87          1           0        7.102974   -3.063824    2.737068
     88          1           0        6.601407   -4.691328    3.167482
     89          6           0        8.502441   -4.601857    2.137800
     90          1           0        8.972952   -4.014663    1.334675
     91          1           0        8.467915   -5.641181    1.780007
     92          6           0        9.394390   -4.541841    3.394899
     93          1           0        8.940782   -5.148149    4.190317
     94          1           0       10.356906   -5.013231    3.163257
     95          7           0        9.675948   -3.220028    3.954270
     96          1           0        8.819593   -2.757081    4.251057
     97          1           0       10.110095   -2.620573    3.254139
     98          8           0        4.710538   -2.040346    2.901539
     99          1           0        4.649630   -1.071850    3.011871
    100          1           0       -0.963627   -4.164338    2.358029
 ---------------------------------------------------------------------

 SCF Done:  E(RB3LYP) =  -2418.43757146     A.U. after    1 cycles

 Alpha  occ. eigenvalues --  -19.30492 -19.30290 -19.25434 -19.25179 -19.24723
 Alpha  occ. eigenvalues --  -19.23290 -19.23130 -19.22742 -19.22568 -19.21756
 Alpha  occ. eigenvalues --  -19.20812 -14.54264 -14.47767 -14.47473 -14.47274
 Alpha  occ. eigenvalues --  -14.47044 -14.46658 -14.46154 -14.45514 -14.37100
 Alpha  occ. eigenvalues --  -10.46424 -10.42613 -10.41412 -10.40097 -10.39980
 Alpha  occ. eigenvalues --  -10.39811 -10.39405 -10.38087 -10.35709 -10.34325
 Alpha  occ. eigenvalues --  -10.34217 -10.34114 -10.33854 -10.33445 -10.33349
 Alpha  occ. eigenvalues --  -10.33239 -10.33149 -10.32199 -10.29046 -10.28856
 Alpha  occ. eigenvalues --  -10.26796 -10.26770 -10.26680 -10.26670 -10.26446
 Alpha  occ. eigenvalues --  -10.26292 -10.25105 -10.24310  -1.21968  -1.21206
 Alpha  occ. eigenvalues --   -1.16329  -1.15373  -1.14991  -1.14549  -1.14096
 Alpha  occ. eigenvalues --   -1.12731  -1.12192  -1.12001  -1.09597  -1.08757
 Alpha  occ. eigenvalues --   -1.04415  -1.03890  -1.03288  -1.02912  -1.02834
 Alpha  occ. eigenvalues --   -1.02648  -1.01807  -0.93903  -0.90984  -0.90262
 Alpha  occ. eigenvalues --   -0.89932  -0.88645  -0.86725  -0.85773  -0.84552
 Alpha  occ. eigenvalues --   -0.82669  -0.82419  -0.80694  -0.80286  -0.77667
 Alpha  occ. eigenvalues --   -0.77460  -0.74764  -0.74385  -0.73128  -0.72568
 Alpha  occ. eigenvalues --   -0.72232  -0.71164  -0.70691  -0.70385  -0.69700
 Alpha  occ. eigenvalues --   -0.69359  -0.69285  -0.68645  -0.68480  -0.67645
 Alpha  occ. eigenvalues --   -0.67177  -0.65466  -0.65152  -0.65074  -0.64849
 Alpha  occ. eigenvalues --   -0.63886  -0.63179  -0.61991  -0.61779  -0.61030
 Alpha  occ. eigenvalues --   -0.60634  -0.60045  -0.59875  -0.59369  -0.58993
 Alpha  occ. eigenvalues --   -0.58423  -0.58377  -0.57944  -0.57688  -0.57292
 Alpha  occ. eigenvalues --   -0.57121  -0.56880  -0.56812  -0.56254  -0.55378
 Alpha  occ. eigenvalues --   -0.54298  -0.54115  -0.53953  -0.53785  -0.53486
 Alpha  occ. eigenvalues --   -0.53157  -0.52987  -0.52582  -0.52130  -0.51961
 Alpha  occ. eigenvalues --   -0.51605  -0.51341  -0.51020  -0.50922  -0.50299
 Alpha  occ. eigenvalues --   -0.50047  -0.49811  -0.49747  -0.49698  -0.49340
 Alpha  occ. eigenvalues --   -0.49179  -0.49139  -0.48865  -0.48515  -0.47892
 Alpha  occ. eigenvalues --   -0.47617  -0.47541  -0.47241  -0.47173  -0.47148
 Alpha  occ. eigenvalues --   -0.46750  -0.46379  -0.46042  -0.45844  -0.45556
 Alpha  occ. eigenvalues --   -0.45117  -0.45039  -0.43505  -0.43161  -0.42683
 Alpha  occ. eigenvalues --   -0.42405  -0.42389  -0.41745  -0.41372  -0.41118
 Alpha  occ. eigenvalues --   -0.40725  -0.40701  -0.40520  -0.40185  -0.39792
 Alpha  occ. eigenvalues --   -0.39329  -0.38838  -0.38590  -0.37878  -0.37458
 Alpha  occ. eigenvalues --   -0.36970  -0.36657  -0.36253  -0.36099  -0.35944
 Alpha  occ. eigenvalues --   -0.35587  -0.34566  -0.34284  -0.33525  -0.29017
 Alpha virt. eigenvalues --   -0.16970  -0.11116  -0.10513  -0.09959  -0.09544
 Alpha virt. eigenvalues --   -0.08515  -0.08206  -0.06889  -0.05976  -0.03387
 Alpha virt. eigenvalues --   -0.02684  -0.02206  -0.02034  -0.01042   0.00404

 Mulliken charges:
               1
     1  N   -0.769365
     2  H    0.354189
     3  H    0.347488
     4  C   -0.110733
     5  H    0.194057
     6  C    0.622064
     7  C   -0.384020
     8  H    0.225987
     9  H    0.256854
    10  O   -0.517244
    11  C    0.557121
    12  N   -0.847305
    13  H    0.455811
    14  H    0.398656
    15  O   -0.371320
    16  N   -0.604379
    17  H    0.355277
    18  C   -0.050165
    19  H    0.215705
    20  C    0.597828
    21  C   -0.125060
    22  H    0.126059
    23  O   -0.552931
    24  C   -0.247562
    25  H    0.147785
    26  H    0.133994
    27  C   -0.475942
    28  H    0.174288
    29  H    0.171707
    30  H    0.142869
    31  C   -0.477456
    32  H    0.153789
    33  H    0.156223
    34  H    0.174642
    35  N   -0.595510
    36  H    0.359239
    37  C   -0.051251
    38  H    0.184463
    39  C    0.622203
    40  C   -0.474100
    41  H    0.183250
    42  H    0.169567
    43  H    0.183189
    44  O   -0.511476
    45  N   -0.629222
    46  H    0.369824
    47  C   -0.090800
    48  H    0.189816
    49  C    0.646524
    50  C    0.116902
    51  H    0.181836
    52  O   -0.549745
    53  C   -0.455931
    54  H    0.165652
    55  H    0.144819
    56  H    0.163593
    57  O   -0.687827
    58  H    0.437478
    59  N   -0.607491
    60  H    0.350882
    61  C   -0.084009
    62  H    0.210164
    63  C    0.648534
    64  C   -0.042788
    65  H    0.135555
    66  H    0.170096
    67  O   -0.566030
    68  O   -0.612206
    69  H    0.418406
    70  N   -0.600911
    71  H    0.394090
    72  C   -0.248584
    73  H    0.186790
    74  H    0.210141
    75  C    0.634115
    76  O   -0.588338
    77  N   -0.583924
    78  H    0.396247
    79  C   -0.038276
    80  H    0.196238
    81  C    0.597739
    82  C   -0.299163
    83  H    0.170623
    84  H    0.161578
    85  O   -0.470018
    86  C   -0.262579
    87  H    0.135278
    88  H    0.143109
    89  C   -0.265085
    90  H    0.131229
    91  H    0.136511
    92  C   -0.146801
    93  H    0.145310
    94  H    0.156436
    95  N   -0.701159
    96  H    0.294502
    97  H    0.296066
    98  O   -0.549371
    99  H    0.418762
   100  H    0.426930
 Sum of Mulliken charges =   1.00000

 Dipole moment (field-independent basis, Debye):
    X=              2.8277    Y=             -7.8692    Z=              6.6607  Tot=             10.6904
 Quadrupole moment (field-independent basis, Debye-Ang):
   XX=           -245.6111   YY=           -199.9124   ZZ=           -271.5474
   XY=            -20.7447   XZ=             -7.8427   YZ=            -12.4325

 Normal termination of Gaussian 16 at Fri May 27 02:50:03 2022.
