 Gaussian 16, Revision C.01,
 Gaussian 16:  ES64L-G16RevC.01  3-Jul-2019

 -------------------------------------------------------------------
 # B3LYP/6-31G* guess=read geom=check nosymm integral(ultrafinegrid)
 -------------------------------------------------------------------

 ------------------------------------------------------
 Candidate Structure: Conf:234 Charge calc in gas phase
 ------------------------------------------------------
 Structure from the checkpoint file:  "conf-234.chk"
 Charge =  1 Multiplicity = 1

                          Input orientation:
 ---------------------------------------------------------------------
 Center     Atomic      Atomic             Coordinates (Angstroms)
 Number     Number       Type             X           Y           Z
 ---------------------------------------------------------------------
      1          7           0       -2.384044    7.640717   -1.901703
      2          1           0       -2.896460    8.518002   -1.941560
      3          1           0       -2.021511    7.426340   -2.828167
      4          6           0       -3.184062    6.556616   -1.378669
      5          1           0       -3.530566    6.840418   -0.378771
      6          6           0       -2.295641    5.305127   -1.302083
      7          6           0       -4.453252    6.206560   -2.245949
      8          1           0       -5.123676    7.069134   -2.257792
      9          1           0       -4.107386    5.995750   -3.262755
     10          8           0       -2.076218    4.631945   -2.316897
     11          6           0       -5.245715    5.043415   -1.722024
     12          7           0       -4.639501    3.668068   -2.025526
     13          1           0       -3.960577    3.700917   -2.797093
     14          1           0       -5.398749    3.003776   -2.207520
     15          8           0       -6.248706    5.050263   -1.075609
     16          7           0       -1.845748    4.963206   -0.081133
     17          1           0       -2.033828    5.576252    0.700760
     18          6           0       -1.046487    3.768212    0.164524
     19          1           0       -0.176840    3.800498   -0.499608
     20          6           0       -1.862782    2.507097   -0.192136
     21          6           0       -0.565521    3.786462    1.651104
     22          1           0       -0.199324    4.813412    1.802971
     23          8           0       -3.113681    2.498591   -0.251444
     24          6           0        0.629213    2.853855    1.944225
     25          1           0        0.332403    1.803310    1.835716
     26          1           0        0.863922    2.979800    3.008410
     27          6           0       -1.717254    3.528807    2.637772
     28          1           0       -2.067878    2.492376    2.579308
     29          1           0       -1.378233    3.706030    3.662979
     30          1           0       -2.584662    4.175236    2.460492
     31          6           0        1.899025    3.127819    1.129106
     32          1           0        2.719933    2.498977    1.486460
     33          1           0        1.779580    2.910281    0.060520
     34          1           0        2.214483    4.174070    1.220101
     35          7           0       -1.144959    1.402059   -0.384850
     36          1           0       -0.133116    1.389228   -0.255057
     37          6           0       -1.701575    0.068693   -0.592156
     38          1           0       -2.578119   -0.045620    0.054579
     39          6           0       -0.586611   -0.905025   -0.147767
     40          6           0       -2.108997   -0.163783   -2.057125
     41          1           0       -2.540312   -1.160508   -2.191744
     42          1           0       -2.860383    0.574087   -2.351538
     43          1           0       -1.243689   -0.068851   -2.720221
     44          8           0        0.552044   -0.482196    0.079005
     45          7           0       -0.941780   -2.195623   -0.042766
     46          1           0       -1.866533   -2.529143   -0.300408
     47          6           0       -0.000491   -3.267667    0.283602
     48          1           0        0.713551   -2.884169    1.017900
     49          6           0        0.731473   -3.708417   -1.004135
     50          6           0       -0.818650   -4.451524    0.855910
     51          1           0       -0.144792   -5.317784    0.914845
     52          8           0        0.261448   -4.591338   -1.732251
     53          6           0       -1.398547   -4.169600    2.234998
     54          1           0       -0.601490   -4.003344    2.967543
     55          1           0       -1.996964   -5.025662    2.558677
     56          1           0       -2.047522   -3.287447    2.220480
     57          8           0       -1.897165   -4.724258   -0.034793
     58          1           0       -1.458422   -4.996345   -0.868666
     59          7           0        1.878114   -3.055382   -1.271778
     60          1           0        2.218527   -2.316283   -0.661798
     61          6           0        2.698591   -3.331787   -2.436105
     62          1           0        2.734286   -4.413006   -2.604554
     63          6           0        4.094324   -2.776230   -2.152313
     64          6           0        2.111180   -2.668254   -3.721095
     65          1           0        1.980770   -1.593915   -3.526828
     66          1           0        1.127861   -3.114710   -3.893442
     67          8           0        4.298465   -1.964217   -1.254787
     68          8           0        2.904552   -2.904932   -4.864578
     69          1           0        3.582180   -2.196414   -4.910173
     70          7           0        5.064391   -3.229882   -3.002405
     71          1           0        4.714159   -3.693554   -3.835506
     72          6           0        6.281556   -2.465936   -3.150637
     73          1           0        6.614666   -2.150515   -2.158334
     74          1           0        7.061380   -3.100942   -3.585017
     75          6           0        6.070394   -1.225597   -4.042951
     76          8           0        5.016765   -1.020178   -4.654781
     77          7           0        7.125592   -0.390124   -4.115640
     78          1           0        7.985708   -0.582885   -3.613369
     79          6           0        7.131503    0.810078   -4.944234
     80          1           0        6.628543    0.585466   -5.890145
     81          6           0        8.595902    1.130882   -5.213353
     82          6           0        6.390171    1.982039   -4.246612
     83          1           0        5.436401    1.565827   -3.904138
     84          1           0        6.954875    2.268596   -3.349376
     85          8           0        9.513983    0.727364   -4.530411
     86          6           0        6.118334    3.207319   -5.128285
     87          1           0        7.061846    3.647867   -5.471239
     88          1           0        5.582752    2.887564   -6.033595
     89          6           0        5.289420    4.269837   -4.394441
     90          1           0        5.827589    4.589644   -3.488763
     91          1           0        4.337624    3.842556   -4.053151
     92          6           0        4.988079    5.497717   -5.256527
     93          1           0        5.938765    5.917122   -5.634234
     94          1           0        4.413894    5.186782   -6.138884
     95          7           0        4.167843    6.462472   -4.510759
     96          1           0        3.936065    7.248888   -5.116408
     97          1           0        4.723911    6.857468   -3.752031
     98          8           0        8.761391    1.931112   -6.281402
     99          1           0        9.719579    2.106553   -6.358589
    100          1           0       -4.058781    3.282958   -1.186647
 ---------------------------------------------------------------------

 SCF Done:  E(RB3LYP) =  -2418.42962860     A.U. after    2 cycles

 Alpha  occ. eigenvalues --  -19.31385 -19.27428 -19.25114 -19.24751 -19.21966
 Alpha  occ. eigenvalues --  -19.21806 -19.20550 -19.19935 -19.19607 -19.19268
 Alpha  occ. eigenvalues --  -19.18923 -14.56654 -14.49301 -14.47951 -14.45710
 Alpha  occ. eigenvalues --  -14.44332 -14.43683 -14.43230 -14.42678 -14.36785
 Alpha  occ. eigenvalues --  -10.47313 -10.41741 -10.41695 -10.39783 -10.38966
 Alpha  occ. eigenvalues --  -10.36866 -10.36759 -10.36281 -10.35639 -10.35340
 Alpha  occ. eigenvalues --  -10.34503 -10.34273 -10.31247 -10.31171 -10.31108
 Alpha  occ. eigenvalues --  -10.30825 -10.30263 -10.29677 -10.29550 -10.28855
 Alpha  occ. eigenvalues --  -10.27700 -10.27660 -10.26194 -10.26175 -10.25663
 Alpha  occ. eigenvalues --  -10.24393 -10.24282 -10.23828  -1.22944  -1.18417
 Alpha  occ. eigenvalues --   -1.17162  -1.15879  -1.13793  -1.11784  -1.11267
 Alpha  occ. eigenvalues --   -1.10445  -1.10303  -1.09429  -1.08115  -1.07137
 Alpha  occ. eigenvalues --   -1.05536  -1.04453  -1.02020  -1.01877  -1.00284
 Alpha  occ. eigenvalues --   -0.99606  -0.99259  -0.93394  -0.92238  -0.91007
 Alpha  occ. eigenvalues --   -0.88625  -0.87115  -0.85301  -0.84327  -0.83384
 Alpha  occ. eigenvalues --   -0.82220  -0.81819  -0.79251  -0.79190  -0.77928
 Alpha  occ. eigenvalues --   -0.76360  -0.75413  -0.74099  -0.72813  -0.71924
 Alpha  occ. eigenvalues --   -0.71747  -0.71344  -0.70891  -0.70102  -0.69026
 Alpha  occ. eigenvalues --   -0.68167  -0.67994  -0.67442  -0.66810  -0.65884
 Alpha  occ. eigenvalues --   -0.65646  -0.65210  -0.64552  -0.64356  -0.64130
 Alpha  occ. eigenvalues --   -0.63155  -0.62126  -0.61219  -0.60355  -0.59784
 Alpha  occ. eigenvalues --   -0.59008  -0.58889  -0.58185  -0.58074  -0.57770
 Alpha  occ. eigenvalues --   -0.57336  -0.57276  -0.56829  -0.56245  -0.55597
 Alpha  occ. eigenvalues --   -0.55482  -0.54967  -0.54767  -0.54578  -0.54208
 Alpha  occ. eigenvalues --   -0.54039  -0.53699  -0.53222  -0.53036  -0.52735
 Alpha  occ. eigenvalues --   -0.52352  -0.52025  -0.51770  -0.51560  -0.51181
 Alpha  occ. eigenvalues --   -0.50960  -0.50727  -0.50433  -0.50221  -0.50009
 Alpha  occ. eigenvalues --   -0.49816  -0.49418  -0.49318  -0.49247  -0.48926
 Alpha  occ. eigenvalues --   -0.48659  -0.48140  -0.47866  -0.47676  -0.47110
 Alpha  occ. eigenvalues --   -0.46690  -0.46409  -0.45873  -0.45549  -0.45455
 Alpha  occ. eigenvalues --   -0.45274  -0.44991  -0.44480  -0.43810  -0.43613
 Alpha  occ. eigenvalues --   -0.43471  -0.43329  -0.43209  -0.42778  -0.42535
 Alpha  occ. eigenvalues --   -0.42388  -0.41239  -0.40551  -0.40137  -0.39799
 Alpha  occ. eigenvalues --   -0.39410  -0.39245  -0.38857  -0.38826  -0.38410
 Alpha  occ. eigenvalues --   -0.38378  -0.38142  -0.36633  -0.36081  -0.35972
 Alpha  occ. eigenvalues --   -0.35741  -0.35213  -0.34279  -0.34043  -0.33223
 Alpha  occ. eigenvalues --   -0.33056  -0.32129  -0.31777  -0.30941  -0.29083
 Alpha virt. eigenvalues --   -0.17933  -0.11705  -0.10836  -0.07883  -0.06884
 Alpha virt. eigenvalues --   -0.06877  -0.05499  -0.05020  -0.04665  -0.04472
 Alpha virt. eigenvalues --   -0.02781  -0.02085  -0.01584  -0.00875  -0.00079

 Mulliken charges:
               1
     1  N   -0.698145
     2  H    0.332435
     3  H    0.333818
     4  C   -0.063985
     5  H    0.171993
     6  C    0.625790
     7  C   -0.370098
     8  H    0.214278
     9  H    0.195557
    10  O   -0.560525
    11  C    0.530309
    12  N   -0.828023
    13  H    0.418089
    14  H    0.409389
    15  O   -0.343111
    16  N   -0.603933
    17  H    0.355274
    18  C   -0.035404
    19  H    0.200198
    20  C    0.666140
    21  C   -0.127002
    22  H    0.152308
    23  O   -0.619072
    24  C   -0.282411
    25  H    0.156915
    26  H    0.162212
    27  C   -0.464145
    28  H    0.166900
    29  H    0.176668
    30  H    0.141880
    31  C   -0.462677
    32  H    0.179967
    33  H    0.146086
    34  H    0.156287
    35  N   -0.593805
    36  H    0.389210
    37  C   -0.055730
    38  H    0.191126
    39  C    0.632847
    40  C   -0.441494
    41  H    0.175200
    42  H    0.146461
    43  H    0.181785
    44  O   -0.543885
    45  N   -0.603594
    46  H    0.354799
    47  C   -0.080225
    48  H    0.179407
    49  C    0.641785
    50  C    0.110627
    51  H    0.152480
    52  O   -0.551069
    53  C   -0.450078
    54  H    0.152316
    55  H    0.179873
    56  H    0.142874
    57  O   -0.651526
    58  H    0.425681
    59  N   -0.617079
    60  H    0.371702
    61  C   -0.064997
    62  H    0.193263
    63  C    0.592395
    64  C   -0.040162
    65  H    0.132908
    66  H    0.173367
    67  O   -0.528153
    68  O   -0.650004
    69  H    0.439605
    70  N   -0.573993
    71  H    0.348656
    72  C   -0.258537
    73  H    0.212862
    74  H    0.193967
    75  C    0.635361
    76  O   -0.548868
    77  N   -0.610236
    78  H    0.359080
    79  C   -0.026490
    80  H    0.196374
    81  C    0.582194
    82  C   -0.270291
    83  H    0.174132
    84  H    0.147206
    85  O   -0.463955
    86  C   -0.269489
    87  H    0.150632
    88  H    0.142429
    89  C   -0.248595
    90  H    0.126295
    91  H    0.142618
    92  C   -0.136874
    93  H    0.119042
    94  H    0.141007
    95  N   -0.722414
    96  H    0.298005
    97  H    0.292686
    98  O   -0.554630
    99  H    0.424237
   100  H    0.475716
 Sum of Mulliken charges =   1.00000

 Dipole moment (field-independent basis, Debye):
    X=             -4.4200    Y=             19.2740    Z=             -8.1138  Tot=             21.3743
 Quadrupole moment (field-independent basis, Debye-Ang):
   XX=           -161.5029   YY=           -162.7995   ZZ=           -236.9465
   XY=            -47.3674   XZ=            -15.8311   YZ=            -46.9891

 Normal termination of Gaussian 16 at Fri May 27 02:50:07 2022.
