 Gaussian 16, Revision C.01,
 Gaussian 16:  ES64L-G16RevC.01  3-Jul-2019

 -------------------------------------------------------------------
 # B3LYP/6-31G* guess=read geom=check nosymm integral(ultrafinegrid)
 -------------------------------------------------------------------

 ------------------------------------------------------
 Candidate Structure: Conf:684 Charge calc in gas phase
 ------------------------------------------------------
 Structure from the checkpoint file:  "conf-684.chk"
 Charge =  1 Multiplicity = 1

                          Input orientation:
 ---------------------------------------------------------------------
 Center     Atomic      Atomic             Coordinates (Angstroms)
 Number     Number       Type             X           Y           Z
 ---------------------------------------------------------------------
      1          7           0       -9.453313    3.262752    3.411791
      2          1           0       -9.484326    2.834559    4.341153
      3          1           0      -10.430508    3.333763    3.011144
      4          6           0       -8.633552    2.454439    2.441082
      5          1           0       -8.723768    1.400306    2.714139
      6          6           0       -7.187011    2.991858    2.607839
      7          6           0       -9.144651    2.694707    1.004664
      8          1           0       -8.927749    3.732492    0.717068
      9          1           0       -8.575777    2.051893    0.326601
     10          8           0       -7.056399    4.124619    3.084437
     11          6           0      -10.654714    2.481064    0.860723
     12          7           0      -11.086211    1.932056   -0.284668
     13          1           0      -12.084407    1.840620   -0.433183
     14          1           0      -10.464058    1.651101   -1.029039
     15          8           0      -11.431022    2.835401    1.760416
     16          7           0       -6.214915    2.190830    2.182408
     17          1           0       -6.392808    1.281280    1.749940
     18          6           0       -4.794698    2.549853    2.128205
     19          1           0       -4.719545    3.584986    1.782084
     20          6           0       -4.217004    1.587136    1.064810
     21          6           0       -4.126986    2.434214    3.535469
     22          1           0       -4.790974    3.009806    4.194836
     23          8           0       -4.866519    0.592150    0.719759
     24          6           0       -2.734029    3.094885    3.623474
     25          1           0       -2.005869    2.535445    3.022610
     26          1           0       -2.400704    2.978831    4.662379
     27          6           0       -4.083035    0.982569    4.033873
     28          1           0       -3.397916    0.370902    3.435729
     29          1           0       -3.732301    0.951338    5.070473
     30          1           0       -5.068904    0.505761    4.002471
     31          6           0       -2.683380    4.584468    3.259265
     32          1           0       -1.696259    4.997993    3.487518
     33          1           0       -2.863518    4.770966    2.192954
     34          1           0       -3.427000    5.159090    3.824131
     35          7           0       -3.010012    1.899725    0.570571
     36          1           0       -2.476550    2.695769    0.911103
     37          6           0       -2.260555    1.033652   -0.332344
     38          1           0       -2.431837   -0.006163   -0.031639
     39          6           0       -0.777159    1.398590   -0.124951
     40          6           0       -2.694982    1.210564   -1.797761
     41          1           0       -2.133869    0.538090   -2.454113
     42          1           0       -3.758637    0.975673   -1.891076
     43          1           0       -2.525630    2.240322   -2.128523
     44          8           0       -0.480207    2.449514    0.465731
     45          7           0        0.109401    0.537882   -0.638531
     46          1           0       -0.189068   -0.354635   -1.029282
     47          6           0        1.567024    0.696040   -0.654957
     48          1           0        1.823360    1.683247   -1.056161
     49          6           0        2.050177   -0.404348   -1.616426
     50          6           0        2.184079    0.620960    0.790956
     51          1           0        1.579206   -0.125669    1.333942
     52          8           0        1.376074   -1.421648   -1.795011
     53          6           0        3.647610    0.197736    0.850626
     54          1           0        3.799357   -0.827574    0.502077
     55          1           0        3.976406    0.253170    1.891770
     56          1           0        4.293717    0.865668    0.272492
     57          8           0        2.106642    1.890699    1.407698
     58          1           0        1.211305    2.251848    1.255440
     59          7           0        3.217224   -0.161213   -2.251880
     60          1           0        3.817002    0.605389   -1.952191
     61          6           0        3.943323   -1.197746   -2.966077
     62          1           0        3.867002   -2.146793   -2.418162
     63          6           0        5.421138   -0.750846   -2.980224
     64          6           0        3.357510   -1.448355   -4.365345
     65          1           0        3.544271   -0.580760   -5.014658
     66          1           0        2.276189   -1.590934   -4.260604
     67          8           0        5.777073    0.250547   -2.346152
     68          8           0        3.982528   -2.630063   -4.869313
     69          1           0        3.664953   -2.792245   -5.770116
     70          7           0        6.268014   -1.518431   -3.688368
     71          1           0        5.871322   -2.288901   -4.218037
     72          6           0        7.692013   -1.210160   -3.797546
     73          1           0        8.081011   -1.673455   -4.704433
     74          1           0        7.806520   -0.123211   -3.871169
     75          6           0        8.545116   -1.737120   -2.626454
     76          8           0        9.488629   -2.494850   -2.819598
     77          7           0        8.172880   -1.284600   -1.399702
     78          1           0        7.410310   -0.618021   -1.309742
     79          6           0        8.870061   -1.701373   -0.193863
     80          1           0        9.270699   -2.704025   -0.367923
     81          6           0        7.848195   -1.757011    0.931808
     82          6           0       10.049933   -0.747802    0.137877
     83          1           0       10.632280   -0.671739   -0.787825
     84          1           0        9.644632    0.252136    0.343221
     85          8           0        6.822449   -1.109948    0.969824
     86          6           0       10.969770   -1.198117    1.279723
     87          1           0       10.409098   -1.253227    2.221029
     88          1           0       11.324948   -2.218400    1.076479
     89          6           0       12.170600   -0.259944    1.457648
     90          1           0       11.829120    0.762036    1.666648
     91          1           0       12.737168   -0.210396    0.515321
     92          6           0       13.110448   -0.693791    2.584907
     93          1           0       12.552209   -0.718429    3.530096
     94          1           0       13.448423   -1.730015    2.394727
     95          7           0       14.203440    0.272528    2.742282
     96          1           0       14.805117    0.241639    1.919473
     97          1           0       14.793069    0.001567    3.527753
     98          8           0        8.218925   -2.600039    1.918811
     99          1           0        7.534181   -2.533639    2.611928
    100          1           0       -8.947063    4.169176    3.498626
 ---------------------------------------------------------------------

 SCF Done:  E(RB3LYP) =  -2418.44852113     A.U. after    1 cycles

 Alpha  occ. eigenvalues --  -19.27346 -19.25996 -19.24783 -19.22972 -19.22109
 Alpha  occ. eigenvalues --  -19.21302 -19.19482 -19.19106 -19.18928 -19.17963
 Alpha  occ. eigenvalues --  -19.15288 -14.58010 -14.50680 -14.49088 -14.45653
 Alpha  occ. eigenvalues --  -14.44586 -14.43027 -14.42646 -14.39495 -14.33586
 Alpha  occ. eigenvalues --  -10.44945 -10.43180 -10.41274 -10.39138 -10.38108
 Alpha  occ. eigenvalues --  -10.36991 -10.36455 -10.36434 -10.35798 -10.34146
 Alpha  occ. eigenvalues --  -10.32803 -10.32766 -10.30907 -10.30617 -10.30583
 Alpha  occ. eigenvalues --  -10.29832 -10.29028 -10.28064 -10.27896 -10.26864
 Alpha  occ. eigenvalues --  -10.26566 -10.26223 -10.25336 -10.23229 -10.22730
 Alpha  occ. eigenvalues --  -10.22065 -10.21562 -10.20779  -1.19265  -1.18148
 Alpha  occ. eigenvalues --   -1.15675  -1.14136  -1.12908  -1.12580  -1.11550
 Alpha  occ. eigenvalues --   -1.10629  -1.09799  -1.07241  -1.06539  -1.06090
 Alpha  occ. eigenvalues --   -1.05690  -1.05628  -1.02255  -1.00960  -0.99759
 Alpha  occ. eigenvalues --   -0.98794  -0.96242  -0.94457  -0.90674  -0.90292
 Alpha  occ. eigenvalues --   -0.86941  -0.85137  -0.84609  -0.83819  -0.82073
 Alpha  occ. eigenvalues --   -0.81644  -0.79983  -0.79649  -0.77695  -0.77044
 Alpha  occ. eigenvalues --   -0.75315  -0.74597  -0.73416  -0.72956  -0.72537
 Alpha  occ. eigenvalues --   -0.72021  -0.71317  -0.70541  -0.68800  -0.68498
 Alpha  occ. eigenvalues --   -0.67584  -0.67261  -0.66575  -0.65981  -0.65751
 Alpha  occ. eigenvalues --   -0.64598  -0.64358  -0.63784  -0.63657  -0.63261
 Alpha  occ. eigenvalues --   -0.61976  -0.61780  -0.61163  -0.60250  -0.58967
 Alpha  occ. eigenvalues --   -0.58868  -0.58443  -0.58150  -0.57433  -0.57108
 Alpha  occ. eigenvalues --   -0.56915  -0.56663  -0.55831  -0.55057  -0.55002
 Alpha  occ. eigenvalues --   -0.54273  -0.53856  -0.53787  -0.53578  -0.53342
 Alpha  occ. eigenvalues --   -0.52876  -0.52244  -0.52056  -0.51644  -0.51504
 Alpha  occ. eigenvalues --   -0.51449  -0.51343  -0.50994  -0.50872  -0.50444
 Alpha  occ. eigenvalues --   -0.50239  -0.49710  -0.49523  -0.48986  -0.48826
 Alpha  occ. eigenvalues --   -0.48304  -0.48147  -0.47767  -0.47051  -0.46908
 Alpha  occ. eigenvalues --   -0.46425  -0.46227  -0.45879  -0.45508  -0.45398
 Alpha  occ. eigenvalues --   -0.45019  -0.44870  -0.44491  -0.44347  -0.43807
 Alpha  occ. eigenvalues --   -0.43640  -0.43500  -0.42819  -0.42694  -0.42519
 Alpha  occ. eigenvalues --   -0.42101  -0.41883  -0.41729  -0.41523  -0.41245
 Alpha  occ. eigenvalues --   -0.41183  -0.40822  -0.40048  -0.39820  -0.39235
 Alpha  occ. eigenvalues --   -0.38442  -0.38131  -0.37653  -0.36520  -0.36312
 Alpha  occ. eigenvalues --   -0.36234  -0.35607  -0.35574  -0.35416  -0.35154
 Alpha  occ. eigenvalues --   -0.33874  -0.33749  -0.33283  -0.33015  -0.32740
 Alpha  occ. eigenvalues --   -0.32618  -0.30844  -0.29136  -0.28358  -0.25808
 Alpha virt. eigenvalues --   -0.13029  -0.11873  -0.09359  -0.07926  -0.06962
 Alpha virt. eigenvalues --   -0.05418  -0.05325  -0.04651  -0.04505  -0.04098
 Alpha virt. eigenvalues --   -0.02301  -0.01525  -0.01322  -0.00661  -0.00367

 Mulliken charges:
               1
     1  N   -0.755207
     2  H    0.409473
     3  H    0.444259
     4  C   -0.121954
     5  H    0.215925
     6  C    0.649830
     7  C   -0.400302
     8  H    0.229419
     9  H    0.204526
    10  O   -0.532522
    11  C    0.646472
    12  N   -0.725627
    13  H    0.383389
    14  H    0.371549
    15  O   -0.533586
    16  N   -0.613264
    17  H    0.367197
    18  C   -0.070790
    19  H    0.190742
    20  C    0.629917
    21  C   -0.079433
    22  H    0.154175
    23  O   -0.558198
    24  C   -0.281316
    25  H    0.153433
    26  H    0.158729
    27  C   -0.461600
    28  H    0.163851
    29  H    0.167571
    30  H    0.135836
    31  C   -0.462583
    32  H    0.176026
    33  H    0.139320
    34  H    0.158097
    35  N   -0.623142
    36  H    0.380204
    37  C   -0.049620
    38  H    0.189081
    39  C    0.635559
    40  C   -0.446049
    41  H    0.167260
    42  H    0.178101
    43  H    0.167481
    44  O   -0.566297
    45  N   -0.627938
    46  H    0.364912
    47  C   -0.073481
    48  H    0.183377
    49  C    0.603233
    50  C    0.165714
    51  H    0.118235
    52  O   -0.544259
    53  C   -0.463512
    54  H    0.152559
    55  H    0.177095
    56  H    0.167755
    57  O   -0.651960
    58  H    0.424843
    59  N   -0.624206
    60  H    0.374788
    61  C   -0.050659
    62  H    0.204726
    63  C    0.605144
    64  C   -0.041234
    65  H    0.143915
    66  H    0.172739
    67  O   -0.554572
    68  O   -0.629077
    69  H    0.415372
    70  N   -0.591335
    71  H    0.375851
    72  C   -0.241394
    73  H    0.187254
    74  H    0.196806
    75  C    0.598887
    76  O   -0.510476
    77  N   -0.619161
    78  H    0.378074
    79  C   -0.032311
    80  H    0.195602
    81  C    0.579226
    82  C   -0.267487
    83  H    0.169094
    84  H    0.145216
    85  O   -0.471424
    86  C   -0.266241
    87  H    0.140872
    88  H    0.141221
    89  C   -0.249866
    90  H    0.148517
    91  H    0.128392
    92  C   -0.134333
    93  H    0.136564
    94  H    0.113710
    95  N   -0.716277
    96  H    0.293127
    97  H    0.297391
    98  O   -0.555598
    99  H    0.412929
   100  H    0.417728
 Sum of Mulliken charges =   1.00000

 Dipole moment (field-independent basis, Debye):
    X=            -33.4246    Y=              7.2208    Z=              3.0649  Tot=             34.3328
 Quadrupole moment (field-independent basis, Debye-Ang):
   XX=             74.8380   YY=           -270.9263   ZZ=           -206.4939
   XY=            -99.0450   XZ=            -59.6883   YZ=             15.0588

 Normal termination of Gaussian 16 at Fri May 27 02:49:45 2022.
