 Gaussian 16, Revision C.01,
 Gaussian 16:  ES64L-G16RevC.01  3-Jul-2019

 -------------------------------------------------------------------
 # B3LYP/6-31G* guess=read geom=check nosymm integral(ultrafinegrid)
 -------------------------------------------------------------------

 ------------------------------------------------------
 Candidate Structure: Conf:304 Charge calc in gas phase
 ------------------------------------------------------
 Structure from the checkpoint file:  "conf-304.chk"
 Charge =  1 Multiplicity = 1

                          Input orientation:
 ---------------------------------------------------------------------
 Center     Atomic      Atomic             Coordinates (Angstroms)
 Number     Number       Type             X           Y           Z
 ---------------------------------------------------------------------
      1          7           0       -6.165841   -0.053770    4.480694
      2          1           0       -6.379829   -0.367477    5.424521
      3          1           0       -6.900044   -0.398921    3.864953
      4          6           0       -4.852040   -0.500760    4.046630
      5          1           0       -4.144363   -0.114772    4.794800
      6          6           0       -4.474569    0.173304    2.713361
      7          6           0       -4.635707   -2.029086    3.904270
      8          1           0       -4.706699   -2.494150    4.898405
      9          1           0       -5.409549   -2.479340    3.277201
     10          8           0       -4.142518   -0.510884    1.742238
     11          6           0       -3.315780   -2.452897    3.292099
     12          7           0       -2.105705   -1.592801    3.675793
     13          1           0       -1.183701   -2.087419    3.479486
     14          1           0       -2.109572   -1.334109    4.667347
     15          8           0       -3.098858   -3.408052    2.613704
     16          7           0       -4.398051    1.520741    2.730595
     17          1           0       -4.718635    1.997616    3.563695
     18          6           0       -3.574140    2.252231    1.768422
     19          1           0       -4.129928    2.388351    0.832585
     20          6           0       -2.320169    1.392526    1.485041
     21          6           0       -3.181881    3.639906    2.348716
     22          1           0       -2.655637    3.434582    3.291797
     23          8           0       -1.737460    0.796460    2.406300
     24          6           0       -4.416926    4.513449    2.683166
     25          1           0       -4.037142    5.438925    3.133615
     26          1           0       -5.017526    4.039171    3.472192
     27          6           0       -2.198343    4.377718    1.424010
     28          1           0       -2.611619    4.527577    0.419370
     29          1           0       -1.978069    5.367775    1.835611
     30          1           0       -1.249046    3.843051    1.324209
     31          6           0       -5.335990    4.864200    1.506605
     32          1           0       -6.144749    5.519954    1.844425
     33          1           0       -4.800218    5.392210    0.710894
     34          1           0       -5.804757    3.975210    1.068446
     35          7           0       -1.896220    1.355509    0.213646
     36          1           0       -2.441881    1.849088   -0.481293
     37          6           0       -0.883197    0.429942   -0.301584
     38          1           0       -1.353890   -0.558960   -0.391121
     39          6           0        0.340675    0.339412    0.636773
     40          6           0       -0.419357    0.905485   -1.682042
     41          1           0        0.277363    0.181392   -2.113951
     42          1           0       -1.267300    1.002360   -2.369856
     43          1           0        0.090792    1.868454   -1.592074
     44          8           0        0.999981    1.319118    0.945559
     45          7           0        0.648898   -0.941195    0.995772
     46          1           0        0.049779   -1.703482    0.708005
     47          6           0        1.833859   -1.317666    1.754778
     48          1           0        2.552625   -0.497603    1.675567
     49          6           0        2.355708   -2.624927    1.144795
     50          6           0        1.518168   -1.585207    3.254436
     51          1           0        2.414375   -2.038458    3.702648
     52          8           0        1.625774   -3.632374    1.194486
     53          6           0        1.158380   -0.328652    4.032341
     54          1           0        2.020787    0.343348    4.077253
     55          1           0        0.888980   -0.596775    5.060306
     56          1           0        0.336896    0.219885    3.563945
     57          8           0        0.440328   -2.538320    3.364399
     58          1           0        0.649167   -3.255761    2.717395
     59          7           0        3.577577   -2.615772    0.601149
     60          1           0        4.169909   -1.787671    0.617350
     61          6           0        4.234392   -3.795275    0.059555
     62          1           0        4.026777   -4.656507    0.702960
     63          6           0        5.732698   -3.478326    0.028395
     64          6           0        3.720764   -4.134230   -1.374854
     65          1           0        3.856142   -3.251677   -2.014621
     66          1           0        2.650713   -4.347009   -1.295162
     67          8           0        6.142549   -2.327653    0.164438
     68          8           0        4.359154   -5.275028   -1.904658
     69          1           0        5.149910   -4.972528   -2.402203
     70          7           0        6.533292   -4.559368   -0.188619
     71          1           0        6.040250   -5.389983   -0.504608
     72          6           0        7.869551   -4.368068   -0.707462
     73          1           0        8.281361   -3.458495   -0.262590
     74          1           0        8.505836   -5.209803   -0.412059
     75          6           0        7.860230   -4.235701   -2.245096
     76          8           0        6.821051   -4.322526   -2.904806
     77          7           0        9.071196   -4.011563   -2.797940
     78          1           0        9.905000   -4.093589   -2.225213
     79          6           0        9.311366   -4.018165   -4.236488
     80          1           0        8.463041   -4.514994   -4.716374
     81          6           0       10.577801   -4.833866   -4.470838
     82          6           0        9.477598   -2.600742   -4.836904
     83          1           0       10.334882   -2.115117   -4.349498
     84          1           0        9.741793   -2.720463   -5.894696
     85          8           0       11.374514   -5.122118   -3.602530
     86          6           0        8.228696   -1.721511   -4.708923
     87          1           0        7.371092   -2.209920   -5.183785
     88          1           0        7.967833   -1.600430   -3.649375
     89          6           0        8.435806   -0.337209   -5.337309
     90          1           0        8.747908   -0.451685   -6.386983
     91          1           0        9.260829    0.184198   -4.832003
     92          6           0        7.192158    0.557254   -5.285756
     93          1           0        6.863066    0.659081   -4.243105
     94          1           0        7.472144    1.569830   -5.627544
     95          7           0        6.082848   -0.037231   -6.043613
     96          1           0        6.313500   -0.034887   -7.037254
     97          1           0        5.251832    0.544665   -5.950686
     98          8           0       10.732184   -5.162498   -5.765518
     99          1           0       11.579468   -5.642522   -5.840086
    100          1           0       -2.069122   -0.692813    3.121045
 ---------------------------------------------------------------------

 SCF Done:  E(RB3LYP) =  -2418.43411092     A.U. after    1 cycles

 Alpha  occ. eigenvalues --  -19.28696 -19.26603 -19.25457 -19.23911 -19.23736
 Alpha  occ. eigenvalues --  -19.21663 -19.21090 -19.20516 -19.20248 -19.19970
 Alpha  occ. eigenvalues --  -19.19966 -14.53935 -14.47987 -14.47473 -14.45831
 Alpha  occ. eigenvalues --  -14.45594 -14.44318 -14.43509 -14.43473 -14.35917
 Alpha  occ. eigenvalues --  -10.45324 -10.40819 -10.40417 -10.39018 -10.38625
 Alpha  occ. eigenvalues --  -10.38285 -10.36851 -10.36684 -10.35893 -10.34593
 Alpha  occ. eigenvalues --  -10.34157 -10.34130 -10.33062 -10.32943 -10.31036
 Alpha  occ. eigenvalues --  -10.30587 -10.30516 -10.30366 -10.29902 -10.28122
 Alpha  occ. eigenvalues --  -10.27754 -10.26642 -10.26572 -10.25931 -10.25400
 Alpha  occ. eigenvalues --  -10.24869 -10.22963 -10.22762  -1.20400  -1.17624
 Alpha  occ. eigenvalues --   -1.16533  -1.14747  -1.14115  -1.12441  -1.12193
 Alpha  occ. eigenvalues --   -1.11592  -1.11110  -1.08706  -1.07867  -1.07827
 Alpha  occ. eigenvalues --   -1.04274  -1.04144  -1.02028  -1.01684  -1.01416
 Alpha  occ. eigenvalues --   -1.00160  -1.00118  -0.92575  -0.91313  -0.89706
 Alpha  occ. eigenvalues --   -0.88773  -0.86803  -0.86392  -0.84522  -0.83633
 Alpha  occ. eigenvalues --   -0.81972  -0.80927  -0.80620  -0.78737  -0.77925
 Alpha  occ. eigenvalues --   -0.75146  -0.74753  -0.73785  -0.72615  -0.72414
 Alpha  occ. eigenvalues --   -0.71180  -0.69829  -0.69344  -0.69313  -0.68368
 Alpha  occ. eigenvalues --   -0.67943  -0.67718  -0.67187  -0.66930  -0.66536
 Alpha  occ. eigenvalues --   -0.65500  -0.65363  -0.64403  -0.64084  -0.62703
 Alpha  occ. eigenvalues --   -0.62362  -0.62011  -0.61622  -0.60473  -0.60186
 Alpha  occ. eigenvalues --   -0.59355  -0.59240  -0.58934  -0.57992  -0.57139
 Alpha  occ. eigenvalues --   -0.56898  -0.56701  -0.56358  -0.56226  -0.55714
 Alpha  occ. eigenvalues --   -0.55290  -0.54964  -0.54570  -0.54253  -0.54001
 Alpha  occ. eigenvalues --   -0.53822  -0.53410  -0.53151  -0.52959  -0.52516
 Alpha  occ. eigenvalues --   -0.52376  -0.51782  -0.51532  -0.51260  -0.50913
 Alpha  occ. eigenvalues --   -0.50835  -0.50418  -0.50163  -0.49956  -0.49718
 Alpha  occ. eigenvalues --   -0.49429  -0.49210  -0.48988  -0.48791  -0.48402
 Alpha  occ. eigenvalues --   -0.47943  -0.47917  -0.47777  -0.47368  -0.47096
 Alpha  occ. eigenvalues --   -0.47071  -0.47019  -0.46483  -0.46398  -0.46105
 Alpha  occ. eigenvalues --   -0.46029  -0.45853  -0.45481  -0.45396  -0.44112
 Alpha  occ. eigenvalues --   -0.43885  -0.43557  -0.42346  -0.41969  -0.41835
 Alpha  occ. eigenvalues --   -0.41769  -0.41534  -0.41119  -0.39469  -0.39271
 Alpha  occ. eigenvalues --   -0.38652  -0.38507  -0.38238  -0.38128  -0.38091
 Alpha  occ. eigenvalues --   -0.37636  -0.37475  -0.37143  -0.36873  -0.36502
 Alpha  occ. eigenvalues --   -0.35703  -0.35179  -0.34366  -0.34264  -0.34056
 Alpha  occ. eigenvalues --   -0.33812  -0.33202  -0.33012  -0.32012  -0.28045
 Alpha virt. eigenvalues --   -0.14624  -0.11500  -0.09673  -0.08281  -0.06672
 Alpha virt. eigenvalues --   -0.06275  -0.05959  -0.05655  -0.05175  -0.03177
 Alpha virt. eigenvalues --   -0.02618  -0.01330  -0.01003  -0.00160   0.00557

 Mulliken charges:
               1
     1  N   -0.715602
     2  H    0.328780
     3  H    0.329389
     4  C   -0.087646
     5  H    0.153609
     6  C    0.624265
     7  C   -0.369313
     8  H    0.194569
     9  H    0.221224
    10  O   -0.528963
    11  C    0.583869
    12  N   -0.890712
    13  H    0.450071
    14  H    0.384621
    15  O   -0.358427
    16  N   -0.608765
    17  H    0.359377
    18  C   -0.003371
    19  H    0.166200
    20  C    0.674185
    21  C   -0.116294
    22  H    0.151215
    23  O   -0.601791
    24  C   -0.274105
    25  H    0.163557
    26  H    0.133223
    27  C   -0.483639
    28  H    0.147253
    29  H    0.172698
    30  H    0.186583
    31  C   -0.459725
    32  H    0.171029
    33  H    0.161392
    34  H    0.150107
    35  N   -0.585421
    36  H    0.349033
    37  C   -0.031874
    38  H    0.167331
    39  C    0.654032
    40  C   -0.486573
    41  H    0.181358
    42  H    0.163644
    43  H    0.198706
    44  O   -0.519212
    45  N   -0.614467
    46  H    0.341655
    47  C   -0.082869
    48  H    0.191081
    49  C    0.634432
    50  C    0.152698
    51  H    0.156200
    52  O   -0.569627
    53  C   -0.502934
    54  H    0.180259
    55  H    0.150621
    56  H    0.192522
    57  O   -0.687778
    58  H    0.441781
    59  N   -0.614216
    60  H    0.367588
    61  C   -0.070682
    62  H    0.193982
    63  C    0.595027
    64  C   -0.038434
    65  H    0.148977
    66  H    0.172775
    67  O   -0.528695
    68  O   -0.647586
    69  H    0.444812
    70  N   -0.574483
    71  H    0.350287
    72  C   -0.261957
    73  H    0.220024
    74  H    0.193930
    75  C    0.626449
    76  O   -0.539622
    77  N   -0.589159
    78  H    0.353788
    79  C   -0.052720
    80  H    0.204596
    81  C    0.585521
    82  C   -0.266941
    83  H    0.142374
    84  H    0.164594
    85  O   -0.466833
    86  C   -0.251195
    87  H    0.173808
    88  H    0.138116
    89  C   -0.260503
    90  H    0.129536
    91  H    0.133843
    92  C   -0.138892
    93  H    0.137382
    94  H    0.120321
    95  N   -0.713603
    96  H    0.295476
    97  H    0.296049
    98  O   -0.556455
    99  H    0.424531
   100  H    0.474733
 Sum of Mulliken charges =   1.00000

 Dipole moment (field-independent basis, Debye):
    X=             -2.7111    Y=             -1.0679    Z=              7.9236  Tot=              8.4424
 Quadrupole moment (field-independent basis, Debye-Ang):
   XX=           -112.7845   YY=           -254.2831   ZZ=           -183.3317
   XY=            -51.2769   XZ=            -97.9886   YZ=             -5.6451

 Normal termination of Gaussian 16 at Fri May 27 02:49:49 2022.
