 Gaussian 16, Revision C.01,
 Gaussian 16:  ES64L-G16RevC.01  3-Jul-2019

 -------------------------------------------------------------------
 # B3LYP/6-31G* guess=read geom=check nosymm integral(ultrafinegrid)
 -------------------------------------------------------------------

 ------------------------------------------------------
 Candidate Structure: Conf:448 Charge calc in gas phase
 ------------------------------------------------------
 Structure from the checkpoint file:  "conf-448.chk"
 Charge =  1 Multiplicity = 1

                          Input orientation:
 ---------------------------------------------------------------------
 Center     Atomic      Atomic             Coordinates (Angstroms)
 Number     Number       Type             X           Y           Z
 ---------------------------------------------------------------------
      1          7           0       -7.500540    4.276433    3.368830
      2          1           0       -8.423420    4.521124    3.718250
      3          1           0       -7.281968    4.864845    2.567877
      4          6           0       -7.383863    2.872684    3.047421
      5          1           0       -7.621353    2.295742    3.947923
      6          6           0       -5.935749    2.607273    2.606538
      7          6           0       -8.347282    2.384909    1.898066
      8          1           0       -9.381587    2.504507    2.229135
      9          1           0       -8.165376    3.019257    1.025018
     10          8           0       -5.567111    2.902704    1.462857
     11          6           0       -8.168094    0.939668    1.531821
     12          7           0       -6.961086    0.653979    0.628213
     13          1           0       -6.615804    1.499790    0.157132
     14          1           0       -7.214018   -0.081097   -0.040175
     15          8           0       -8.806233   -0.006750    1.878866
     16          7           0       -5.145405    1.983832    3.499135
     17          1           0       -5.511805    1.789356    4.421179
     18          6           0       -3.772002    1.575619    3.217470
     19          1           0       -3.168721    2.469079    3.012642
     20          6           0       -3.747720    0.686855    1.958408
     21          6           0       -3.203381    0.854181    4.481347
     22          1           0       -3.959980    0.110478    4.775922
     23          8           0       -4.683103   -0.095416    1.669085
     24          6           0       -3.030411    1.876463    5.631827
     25          1           0       -3.900074    2.545564    5.678850
     26          1           0       -2.174271    2.522822    5.394075
     27          6           0       -1.894111    0.100311    4.204989
     28          1           0       -1.112317    0.764640    3.817516
     29          1           0       -1.517749   -0.340598    5.131386
     30          1           0       -2.029864   -0.718244    3.492446
     31          6           0       -2.834569    1.241866    7.013842
     32          1           0       -2.765345    2.018929    7.781663
     33          1           0       -3.675840    0.589011    7.276604
     34          1           0       -1.918574    0.646018    7.071197
     35          7           0       -2.634410    0.761909    1.233790
     36          1           0       -1.842456    1.332536    1.533312
     37          6           0       -2.294040   -0.117627    0.120467
     38          1           0       -2.647061   -1.128104    0.354094
     39          6           0       -0.749210   -0.099357    0.057211
     40          6           0       -2.923062    0.354245   -1.201219
     41          1           0       -2.661525   -0.319365   -2.023154
     42          1           0       -4.012522    0.366394   -1.106652
     43          1           0       -2.580507    1.361954   -1.454875
     44          8           0       -0.113636    0.728470    0.719319
     45          7           0       -0.176962   -1.008658   -0.747109
     46          1           0       -0.717318   -1.643974   -1.327072
     47          6           0        1.271087   -1.116134   -0.931042
     48          1           0        1.758603   -0.869191    0.015809
     49          6           0        1.744185   -0.125129   -2.013725
     50          6           0        1.597126   -2.564284   -1.359318
     51          1           0        2.653073   -2.578194   -1.653124
     52          8           0        1.955911   -0.494757   -3.180224
     53          6           0        1.361520   -3.583226   -0.253399
     54          1           0        2.014441   -3.383722    0.602763
     55          1           0        1.578849   -4.586058   -0.631535
     56          1           0        0.321461   -3.570055    0.090642
     57          8           0        0.759393   -2.904937   -2.465400
     58          1           0        1.065344   -2.321206   -3.187885
     59          7           0        1.893211    1.151220   -1.613027
     60          1           0        1.753753    1.401871   -0.637270
     61          6           0        2.489845    2.183668   -2.462799
     62          1           0        2.142760    2.025912   -3.489062
     63          6           0        4.024426    2.018112   -2.389760
     64          6           0        2.066545    3.563106   -1.944881
     65          1           0        0.983138    3.676077   -2.052218
     66          1           0        2.554705    4.338141   -2.552263
     67          8           0        4.722823    2.748516   -1.686022
     68          8           0        2.363320    3.700914   -0.567593
     69          1           0        3.338729    3.649906   -0.523179
     70          7           0        4.518611    0.985035   -3.125950
     71          1           0        3.825526    0.335113   -3.491754
     72          6           0        5.822628    0.444686   -2.813928
     73          1           0        6.230717   -0.058788   -3.697411
     74          1           0        6.487249    1.274636   -2.559248
     75          6           0        5.753658   -0.555148   -1.639159
     76          8           0        4.685471   -0.925593   -1.156016
     77          7           0        6.960566   -0.999351   -1.206790
     78          1           0        7.808149   -0.591988   -1.578447
     79          6           0        7.084266   -1.908361   -0.071402
     80          1           0        6.229927   -1.717038    0.585175
     81          6           0        8.335206   -1.628417    0.751564
     82          6           0        7.039433   -3.402529   -0.475497
     83          1           0        7.048201   -3.991718    0.448913
     84          1           0        6.069987   -3.572123   -0.959005
     85          8           0        8.549623   -2.124176    1.831479
     86          6           0        8.176899   -3.855208   -1.398324
     87          1           0        8.193185   -3.224521   -2.298409
     88          1           0        9.143398   -3.705460   -0.895628
     89          6           0        8.047652   -5.327680   -1.807591
     90          1           0        7.086361   -5.478219   -2.322597
     91          1           0        8.024834   -5.969321   -0.917970
     92          6           0        9.183912   -5.804450   -2.715950
     93          1           0        9.240056   -5.145036   -3.603336
     94          1           0       10.138435   -5.691820   -2.185736
     95          7           0        9.020858   -7.226040   -3.035096
     96          1           0        9.826302   -7.558477   -3.562490
     97          1           0        8.214500   -7.350733   -3.646376
     98          8           0        9.210023   -0.796495    0.130925
     99          1           0        9.978771   -0.704929    0.725940
    100          1           0       -6.097250    0.299857    1.192542
 ---------------------------------------------------------------------

 SCF Done:  E(RB3LYP) =  -2418.42413810     A.U. after    1 cycles

 Alpha  occ. eigenvalues --  -19.31611 -19.26546 -19.25162 -19.24997 -19.22205
 Alpha  occ. eigenvalues --  -19.20722 -19.20214 -19.20158 -19.19839 -19.19071
 Alpha  occ. eigenvalues --  -19.18653 -14.56933 -14.49551 -14.48081 -14.45967
 Alpha  occ. eigenvalues --  -14.44500 -14.43886 -14.42873 -14.42359 -14.34959
 Alpha  occ. eigenvalues --  -10.47534 -10.41929 -10.41868 -10.39207 -10.38535
 Alpha  occ. eigenvalues --  -10.37070 -10.36968 -10.35754 -10.35726 -10.35649
 Alpha  occ. eigenvalues --  -10.34789 -10.34493 -10.31120 -10.30944 -10.30674
 Alpha  occ. eigenvalues --  -10.30335 -10.30184 -10.29860 -10.29686 -10.29260
 Alpha  occ. eigenvalues --  -10.28238 -10.27346 -10.26118 -10.24762 -10.24528
 Alpha  occ. eigenvalues --  -10.24194 -10.23588 -10.22456  -1.23171  -1.17355
 Alpha  occ. eigenvalues --   -1.17122  -1.15988  -1.14060  -1.12045  -1.10900
 Alpha  occ. eigenvalues --   -1.10549  -1.10101  -1.08250  -1.08050  -1.07363
 Alpha  occ. eigenvalues --   -1.05789  -1.04651  -1.02203  -1.02130  -1.00155
 Alpha  occ. eigenvalues --   -0.99396  -0.98775  -0.92381  -0.91731  -0.91208
 Alpha  occ. eigenvalues --   -0.88989  -0.86090  -0.85511  -0.84492  -0.83161
 Alpha  occ. eigenvalues --   -0.81626  -0.81512  -0.79161  -0.78752  -0.78127
 Alpha  occ. eigenvalues --   -0.76868  -0.74360  -0.74280  -0.73838  -0.71890
 Alpha  occ. eigenvalues --   -0.71375  -0.70942  -0.70798  -0.69449  -0.69249
 Alpha  occ. eigenvalues --   -0.68308  -0.67687  -0.67271  -0.66508  -0.65952
 Alpha  occ. eigenvalues --   -0.65763  -0.64530  -0.64437  -0.64188  -0.63808
 Alpha  occ. eigenvalues --   -0.62682  -0.61979  -0.61459  -0.60569  -0.60265
 Alpha  occ. eigenvalues --   -0.59282  -0.59009  -0.58546  -0.57783  -0.57746
 Alpha  occ. eigenvalues --   -0.57466  -0.57258  -0.56768  -0.55634  -0.55548
 Alpha  occ. eigenvalues --   -0.55303  -0.54835  -0.54689  -0.54289  -0.54238
 Alpha  occ. eigenvalues --   -0.54049  -0.53619  -0.53248  -0.52970  -0.52435
 Alpha  occ. eigenvalues --   -0.52184  -0.51683  -0.51353  -0.51087  -0.50812
 Alpha  occ. eigenvalues --   -0.50495  -0.50445  -0.50191  -0.49939  -0.49833
 Alpha  occ. eigenvalues --   -0.49663  -0.49045  -0.48955  -0.48673  -0.48215
 Alpha  occ. eigenvalues --   -0.47907  -0.47698  -0.47322  -0.47266  -0.47085
 Alpha  occ. eigenvalues --   -0.46743  -0.46401  -0.46301  -0.45773  -0.45751
 Alpha  occ. eigenvalues --   -0.45019  -0.44436  -0.44413  -0.44010  -0.43830
 Alpha  occ. eigenvalues --   -0.43419  -0.43252  -0.42864  -0.42773  -0.42540
 Alpha  occ. eigenvalues --   -0.42234  -0.40116  -0.40087  -0.39848  -0.39669
 Alpha  occ. eigenvalues --   -0.39163  -0.38989  -0.38484  -0.38312  -0.38306
 Alpha  occ. eigenvalues --   -0.37848  -0.37373  -0.37133  -0.36334  -0.36159
 Alpha  occ. eigenvalues --   -0.35292  -0.34587  -0.34208  -0.33725  -0.33192
 Alpha  occ. eigenvalues --   -0.32478  -0.31953  -0.31575  -0.30989  -0.27172
 Alpha virt. eigenvalues --   -0.18180  -0.11988  -0.11080  -0.08242  -0.07308
 Alpha virt. eigenvalues --   -0.06696  -0.05518  -0.04550  -0.04302  -0.04195
 Alpha virt. eigenvalues --   -0.03116  -0.02258  -0.01343  -0.01155  -0.00388

 Mulliken charges:
               1
     1  N   -0.697447
     2  H    0.333494
     3  H    0.333415
     4  C   -0.064770
     5  H    0.172881
     6  C    0.626426
     7  C   -0.369984
     8  H    0.215716
     9  H    0.194336
    10  O   -0.560217
    11  C    0.529947
    12  N   -0.828606
    13  H    0.417098
    14  H    0.409946
    15  O   -0.341936
    16  N   -0.604537
    17  H    0.355598
    18  C   -0.019285
    19  H    0.187723
    20  C    0.651596
    21  C   -0.116346
    22  H    0.145427
    23  O   -0.619979
    24  C   -0.272129
    25  H    0.137114
    26  H    0.158742
    27  C   -0.480578
    28  H    0.168138
    29  H    0.179927
    30  H    0.160619
    31  C   -0.453936
    32  H    0.170262
    33  H    0.149020
    34  H    0.165734
    35  N   -0.579249
    36  H    0.381319
    37  C   -0.055662
    38  H    0.191128
    39  C    0.634855
    40  C   -0.438660
    41  H    0.173512
    42  H    0.141488
    43  H    0.182601
    44  O   -0.544879
    45  N   -0.606999
    46  H    0.354056
    47  C   -0.074460
    48  H    0.195208
    49  C    0.667961
    50  C    0.099233
    51  H    0.174966
    52  O   -0.575481
    53  C   -0.451836
    54  H    0.156870
    55  H    0.176053
    56  H    0.137635
    57  O   -0.654758
    58  H    0.420904
    59  N   -0.597325
    60  H    0.374772
    61  C   -0.096756
    62  H    0.181320
    63  C    0.629344
    64  C   -0.045249
    65  H    0.146984
    66  H    0.153656
    67  O   -0.535584
    68  O   -0.636046
    69  H    0.423647
    70  N   -0.579330
    71  H    0.373290
    72  C   -0.261361
    73  H    0.187191
    74  H    0.209456
    75  C    0.621665
    76  O   -0.536014
    77  N   -0.606086
    78  H    0.355492
    79  C   -0.049840
    80  H    0.201864
    81  C    0.593643
    82  C   -0.264497
    83  H    0.168608
    84  H    0.155649
    85  O   -0.450282
    86  C   -0.273528
    87  H    0.128579
    88  H    0.142576
    89  C   -0.247200
    90  H    0.124421
    91  H    0.156226
    92  C   -0.135007
    93  H    0.109141
    94  H    0.142180
    95  N   -0.714324
    96  H    0.300909
    97  H    0.292643
    98  O   -0.583880
    99  H    0.424082
   100  H    0.475756
 Sum of Mulliken charges =   1.00000

 Dipole moment (field-independent basis, Debye):
    X=            -18.3215    Y=              5.1360    Z=              3.2720  Tot=             19.3070
 Quadrupole moment (field-independent basis, Debye-Ang):
   XX=            -34.1190   YY=           -279.1501   ZZ=           -229.0422
   XY=            -59.9586   XZ=            -75.1824   YZ=             25.8614

 Normal termination of Gaussian 16 at Fri May 27 02:49:55 2022.
