 Gaussian 16, Revision C.01,
 Gaussian 16:  ES64L-G16RevC.01  3-Jul-2019

 -------------------------------------------------------------------
 # B3LYP/6-31G* guess=read geom=check nosymm integral(ultrafinegrid)
 -------------------------------------------------------------------

 ------------------------------------------------------
 Candidate Structure: Conf:126 Charge calc in gas phase
 ------------------------------------------------------
 Structure from the checkpoint file:  "conf-126.chk"
 Charge =  1 Multiplicity = 1

                          Input orientation:
 ---------------------------------------------------------------------
 Center     Atomic      Atomic             Coordinates (Angstroms)
 Number     Number       Type             X           Y           Z
 ---------------------------------------------------------------------
      1          7           0       -6.617654   -0.366022    4.285623
      2          1           0       -6.885391    0.569151    4.585941
      3          1           0       -6.869923   -1.004296    5.038262
      4          6           0       -5.185225   -0.438259    4.016829
      5          1           0       -4.547609   -0.366477    4.915649
      6          6           0       -4.799289    0.684892    3.031767
      7          6           0       -4.910157   -1.815929    3.345718
      8          1           0       -5.194836   -2.606266    4.046485
      9          1           0       -5.545601   -1.872110    2.459073
     10          8           0       -5.045192    0.602330    1.829971
     11          6           0       -3.454154   -2.032227    3.012863
     12          7           0       -3.033945   -1.587223    1.629857
     13          1           0       -3.804536   -1.626211    0.957297
     14          1           0       -2.173468   -2.097824    1.276024
     15          8           0       -2.603065   -2.457333    3.736255
     16          7           0       -4.137093    1.739206    3.578175
     17          1           0       -3.834038    1.661031    4.539858
     18          6           0       -3.457525    2.739514    2.756870
     19          1           0       -4.207890    3.373339    2.270324
     20          6           0       -2.654935    2.002033    1.669240
     21          6           0       -2.533733    3.610807    3.659001
     22          1           0       -1.860298    2.905868    4.168720
     23          8           0       -2.136799    0.897756    1.910329
     24          6           0       -3.333194    4.364844    4.751528
     25          1           0       -2.598345    4.872396    5.388620
     26          1           0       -3.842105    3.647732    5.409834
     27          6           0       -1.649323    4.566552    2.840336
     28          1           0       -2.242322    5.234522    2.203525
     29          1           0       -1.071314    5.200259    3.520410
     30          1           0       -0.938088    4.028239    2.207270
     31          6           0       -4.359258    5.388612    4.250876
     32          1           0       -4.836029    5.887946    5.100371
     33          1           0       -3.896038    6.166697    3.635372
     34          1           0       -5.158403    4.921699    3.662985
     35          7           0       -2.510720    2.611723    0.485775
     36          1           0       -2.943408    3.516393    0.349232
     37          6           0       -1.812875    2.024061   -0.661743
     38          1           0       -2.483632    1.285836   -1.122903
     39          6           0       -0.500715    1.332235   -0.215893
     40          6           0       -1.488435    3.124542   -1.676259
     41          1           0       -1.036485    2.688240   -2.571523
     42          1           0       -2.396382    3.654647   -1.985606
     43          1           0       -0.779326    3.835164   -1.242353
     44          8           0        0.364937    1.929841    0.403905
     45          7           0       -0.395861    0.042776   -0.645181
     46          1           0       -1.154880   -0.377212   -1.164218
     47          6           0        0.762301   -0.816819   -0.434719
     48          1           0        1.618787   -0.176260   -0.208764
     49          6           0        0.945073   -1.625246   -1.725061
     50          6           0        0.546833   -1.831065    0.730170
     51          1           0        1.362295   -2.567094    0.676092
     52          8           0        0.014699   -2.369106   -2.089815
     53          6           0        0.548107   -1.193123    2.110037
     54          1           0        1.548310   -0.814121    2.342296
     55          1           0        0.282401   -1.943805    2.861247
     56          1           0       -0.151133   -0.356444    2.173989
     57          8           0       -0.696769   -2.535990    0.530481
     58          1           0       -0.698596   -2.810627   -0.416795
     59          7           0        2.103762   -1.503183   -2.380993
     60          1           0        2.861120   -0.917595   -2.033643
     61          6           0        2.454798   -2.272429   -3.564716
     62          1           0        2.112306   -3.305441   -3.444803
     63          6           0        3.980609   -2.206636   -3.683828
     64          6           0        1.786239   -1.690821   -4.849593
     65          1           0        2.060114   -0.630512   -4.937591
     66          1           0        0.703208   -1.760847   -4.713071
     67          8           0        4.633716   -1.387902   -3.040902
     68          8           0        2.133481   -2.425213   -6.002319
     69          1           0        2.941377   -2.018761   -6.385696
     70          7           0        4.517146   -3.093872   -4.567807
     71          1           0        3.840215   -3.541111   -5.179513
     72          6           0        5.825975   -2.841973   -5.128979
     73          1           0        6.453681   -2.405091   -4.347795
     74          1           0        6.282005   -3.787202   -5.442866
     75          6           0        5.744615   -1.876476   -6.330346
     76          8           0        4.669668   -1.429086   -6.745393
     77          7           0        6.928475   -1.568555   -6.891386
     78          1           0        7.795106   -1.966825   -6.544271
     79          6           0        7.058485   -0.712697   -8.067001
     80          1           0        6.238059   -0.936986   -8.755964
     81          6           0        8.383317   -1.094433   -8.715748
     82          6           0        6.998557    0.790717   -7.685068
     83          1           0        6.116147    0.898722   -7.044355
     84          1           0        7.873964    1.029899   -7.066772
     85          8           0        9.281869   -1.663535   -8.131119
     86          6           0        6.888324    1.764106   -8.865452
     87          1           0        7.770583    1.682036   -9.510993
     88          1           0        6.027462    1.480512   -9.487755
     89          6           0        6.726557    3.220294   -8.406659
     90          1           0        7.588373    3.509572   -7.786365
     91          1           0        5.839248    3.308138   -7.761417
     92          6           0        6.595969    4.210759   -9.577245
     93          1           0        7.477709    4.126683  -10.226153
     94          1           0        5.733910    3.929855  -10.196866
     95          7           0        6.443608    5.621429   -9.217279
     96          1           0        7.243884    5.926967   -8.664637
     97          1           0        5.626623    5.740624   -8.619286
     98          8           0        8.456568   -0.714263  -10.002067
     99          1           0        9.344003   -0.965806  -10.324732
    100          1           0       -2.734586   -0.566213    1.689669
 ---------------------------------------------------------------------

 SCF Done:  E(RB3LYP) =  -2418.43325721     A.U. after    1 cycles

 Alpha  occ. eigenvalues --  -19.29586 -19.27357 -19.25604 -19.24460 -19.23464
 Alpha  occ. eigenvalues --  -19.22079 -19.21780 -19.21074 -19.20739 -19.20444
 Alpha  occ. eigenvalues --  -19.20406 -14.53802 -14.48757 -14.48103 -14.46328
 Alpha  occ. eigenvalues --  -14.46025 -14.44053 -14.43940 -14.42962 -14.35310
 Alpha  occ. eigenvalues --  -10.45516 -10.41424 -10.40460 -10.39766 -10.39029
 Alpha  occ. eigenvalues --  -10.38841 -10.37312 -10.37129 -10.35494 -10.34986
 Alpha  occ. eigenvalues --  -10.34898 -10.34163 -10.33371 -10.32633 -10.31507
 Alpha  occ. eigenvalues --  -10.31303 -10.31041 -10.30891 -10.30432 -10.28768
 Alpha  occ. eigenvalues --  -10.28042 -10.26942 -10.26250 -10.25961 -10.25529
 Alpha  occ. eigenvalues --  -10.24940 -10.23959 -10.23135  -1.21052  -1.18383
 Alpha  occ. eigenvalues --   -1.16850  -1.14992  -1.14440  -1.12939  -1.12613
 Alpha  occ. eigenvalues --   -1.11872  -1.11532  -1.09419  -1.08331  -1.08059
 Alpha  occ. eigenvalues --   -1.04826  -1.04384  -1.02477  -1.02156  -1.00656
 Alpha  occ. eigenvalues --   -1.00600  -1.00581  -0.92089  -0.91741  -0.89460
 Alpha  occ. eigenvalues --   -0.89166  -0.87216  -0.86926  -0.84827  -0.83986
 Alpha  occ. eigenvalues --   -0.82469  -0.81132  -0.80765  -0.79047  -0.77734
 Alpha  occ. eigenvalues --   -0.75625  -0.74893  -0.74262  -0.72931  -0.72853
 Alpha  occ. eigenvalues --   -0.71577  -0.70370  -0.69811  -0.69570  -0.68687
 Alpha  occ. eigenvalues --   -0.68206  -0.68183  -0.67608  -0.67346  -0.65980
 Alpha  occ. eigenvalues --   -0.65888  -0.65271  -0.64730  -0.63748  -0.63487
 Alpha  occ. eigenvalues --   -0.62977  -0.62756  -0.62240  -0.61163  -0.60579
 Alpha  occ. eigenvalues --   -0.59973  -0.59460  -0.58747  -0.57971  -0.57716
 Alpha  occ. eigenvalues --   -0.57474  -0.57156  -0.56507  -0.55925  -0.55762
 Alpha  occ. eigenvalues --   -0.55477  -0.55265  -0.55120  -0.54476  -0.54262
 Alpha  occ. eigenvalues --   -0.54076  -0.53977  -0.53451  -0.53299  -0.52827
 Alpha  occ. eigenvalues --   -0.52636  -0.52464  -0.52016  -0.51759  -0.51482
 Alpha  occ. eigenvalues --   -0.51083  -0.50495  -0.50422  -0.50166  -0.49907
 Alpha  occ. eigenvalues --   -0.49530  -0.49471  -0.49304  -0.48760  -0.48453
 Alpha  occ. eigenvalues --   -0.48149  -0.48099  -0.47850  -0.47678  -0.47372
 Alpha  occ. eigenvalues --   -0.47251  -0.47118  -0.46958  -0.46829  -0.46710
 Alpha  occ. eigenvalues --   -0.46395  -0.45790  -0.45558  -0.45131  -0.44505
 Alpha  occ. eigenvalues --   -0.44032  -0.43800  -0.42636  -0.42587  -0.42406
 Alpha  occ. eigenvalues --   -0.42217  -0.41552  -0.41481  -0.40208  -0.39912
 Alpha  occ. eigenvalues --   -0.39451  -0.39015  -0.38737  -0.38522  -0.38409
 Alpha  occ. eigenvalues --   -0.37774  -0.37755  -0.37328  -0.36944  -0.36887
 Alpha  occ. eigenvalues --   -0.35848  -0.34983  -0.34943  -0.34811  -0.34511
 Alpha  occ. eigenvalues --   -0.34212  -0.33686  -0.33557  -0.32490  -0.27295
 Alpha virt. eigenvalues --   -0.16168  -0.11496  -0.09734  -0.08664  -0.06945
 Alpha virt. eigenvalues --   -0.06890  -0.06136  -0.05471  -0.05350  -0.04046
 Alpha virt. eigenvalues --   -0.03227  -0.01749  -0.01053  -0.00218   0.00589

 Mulliken charges:
               1
     1  N   -0.705963
     2  H    0.324530
     3  H    0.324687
     4  C   -0.061429
     5  H    0.146438
     6  C    0.610686
     7  C   -0.343827
     8  H    0.208238
     9  H    0.205855
    10  O   -0.536574
    11  C    0.527701
    12  N   -0.864728
    13  H    0.394813
    14  H    0.454346
    15  O   -0.349636
    16  N   -0.609188
    17  H    0.348395
    18  C   -0.017626
    19  H    0.175366
    20  C    0.675975
    21  C   -0.121994
    22  H    0.153601
    23  O   -0.601043
    24  C   -0.264042
    25  H    0.164203
    26  H    0.127954
    27  C   -0.490106
    28  H    0.143823
    29  H    0.175074
    30  H    0.191087
    31  C   -0.461316
    32  H    0.171539
    33  H    0.162393
    34  H    0.149120
    35  N   -0.586090
    36  H    0.352764
    37  C   -0.025446
    38  H    0.155676
    39  C    0.656942
    40  C   -0.490343
    41  H    0.182943
    42  H    0.167540
    43  H    0.199344
    44  O   -0.518983
    45  N   -0.610608
    46  H    0.333011
    47  C   -0.083924
    48  H    0.191931
    49  C    0.634799
    50  C    0.150662
    51  H    0.156109
    52  O   -0.574401
    53  C   -0.505043
    54  H    0.171106
    55  H    0.176362
    56  H    0.192665
    57  O   -0.685596
    58  H    0.433629
    59  N   -0.614559
    60  H    0.368345
    61  C   -0.069927
    62  H    0.193934
    63  C    0.594610
    64  C   -0.037201
    65  H    0.145111
    66  H    0.172265
    67  O   -0.527897
    68  O   -0.647409
    69  H    0.443762
    70  N   -0.574055
    71  H    0.350430
    72  C   -0.261094
    73  H    0.219939
    74  H    0.194980
    75  C    0.631970
    76  O   -0.548813
    77  N   -0.608847
    78  H    0.360132
    79  C   -0.028763
    80  H    0.197429
    81  C    0.583546
    82  C   -0.270026
    83  H    0.171503
    84  H    0.148922
    85  O   -0.465212
    86  C   -0.268238
    87  H    0.152437
    88  H    0.142896
    89  C   -0.265158
    90  H    0.127469
    91  H    0.123917
    92  C   -0.141900
    93  H    0.144888
    94  H    0.143785
    95  N   -0.700723
    96  H    0.294050
    97  H    0.291046
    98  O   -0.551970
    99  H    0.425669
   100  H    0.475359
 Sum of Mulliken charges =   1.00000

 Dipole moment (field-independent basis, Debye):
    X=             -5.3269    Y=              1.4740    Z=              2.1336  Tot=              5.9246
 Quadrupole moment (field-independent basis, Debye-Ang):
   XX=           -161.7945   YY=           -247.6220   ZZ=           -185.2541
   XY=            -26.5728   XZ=           -117.6342   YZ=             28.5346

 Normal termination of Gaussian 16 at Fri May 27 02:48:58 2022.
