 Gaussian 16, Revision C.01,
 Gaussian 16:  ES64L-G16RevC.01  3-Jul-2019

 -------------------------------------------------------------------
 # B3LYP/6-31G* guess=read geom=check nosymm integral(ultrafinegrid)
 -------------------------------------------------------------------

 ------------------------------------------------------
 Candidate Structure: Conf:883 Charge calc in gas phase
 ------------------------------------------------------
 Structure from the checkpoint file:  "conf-883.chk"
 Charge =  1 Multiplicity = 1

                          Input orientation:
 ---------------------------------------------------------------------
 Center     Atomic      Atomic             Coordinates (Angstroms)
 Number     Number       Type             X           Y           Z
 ---------------------------------------------------------------------
      1          7           0       -6.906401    1.490762    5.759938
      2          1           0       -6.411808    1.416266    6.653257
      3          1           0       -7.919107    1.204229    5.878906
      4          6           0       -6.314321    0.592697    4.706050
      5          1           0       -5.917120   -0.296664    5.201247
      6          6           0       -5.205450    1.448927    4.038747
      7          6           0       -7.402884    0.209856    3.680835
      8          1           0       -7.693336    1.106303    3.116233
      9          1           0       -6.966491   -0.490204    2.962397
     10          8           0       -5.301339    2.676582    4.138790
     11          6           0       -8.668514   -0.357182    4.332144
     12          7           0       -9.303618   -1.339993    3.676600
     13          1           0       -6.764609    2.457739    5.400662
     14          1           0      -10.178919   -1.686626    4.051608
     15          8           0       -9.089526    0.106602    5.402394
     16          7           0       -4.264005    0.777120    3.381246
     17          1           0       -4.270959   -0.240537    3.292193
     18          6           0       -3.201185    1.396115    2.583136
     19          1           0       -3.637774    2.238815    2.038481
     20          6           0       -2.793332    0.282597    1.593397
     21          6           0       -2.046479    1.923304    3.494060
     22          1           0       -2.565996    2.523383    4.253595
     23          8           0       -3.142347   -0.882942    1.794656
     24          6           0       -1.064163    2.876707    2.779285
     25          1           0       -0.438989    2.326075    2.065520
     26          1           0       -0.365688    3.230255    3.548107
     27          6           0       -1.296818    0.780123    4.193777
     28          1           0       -0.726764    0.179521    3.477168
     29          1           0       -0.591384    1.188954    4.924854
     30          1           0       -1.978769    0.112467    4.732583
     31          6           0       -1.695395    4.100304    2.101575
     32          1           0       -0.916173    4.785404    1.753834
     33          1           0       -2.302683    3.841839    1.223869
     34          1           0       -2.342744    4.651155    2.794060
     35          7           0       -2.090176    0.664620    0.504785
     36          1           0       -1.726214    1.608290    0.463977
     37          6           0       -1.522905   -0.306805   -0.418998
     38          1           0       -2.276615   -1.083985   -0.578106
     39          6           0       -0.260349   -0.956544    0.192714
     40          6           0       -1.176136    0.390355   -1.746229
     41          1           0       -0.833113   -0.333075   -2.490953
     42          1           0       -2.061601    0.892658   -2.146997
     43          1           0       -0.378232    1.127047   -1.597907
     44          8           0        0.303702   -0.469896    1.185061
     45          7           0        0.212620   -2.032705   -0.462555
     46          1           0       -0.215002   -2.350346   -1.328977
     47          6           0        1.539060   -2.618038   -0.230483
     48          1           0        1.698289   -2.711986    0.848109
     49          6           0        2.578037   -1.654049   -0.847918
     50          6           0        1.583513   -3.998151   -0.924682
     51          1           0        2.630195   -4.332753   -0.919222
     52          8           0        3.016018   -1.816511   -1.995528
     53          6           0        0.714300   -5.041562   -0.236330
     54          1           0        1.064450   -5.228890    0.784346
     55          1           0        0.759439   -5.978330   -0.798292
     56          1           0       -0.331491   -4.720128   -0.191419
     57          8           0        1.119849   -3.847332   -2.264092
     58          1           0        1.787803   -3.282228   -2.701039
     59          7           0        2.894318   -0.591942   -0.078110
     60          1           0        2.434170   -0.541462    0.824402
     61          6           0        3.457639    0.652240   -0.623798
     62          1           0        3.140096    0.708250   -1.671445
     63          6           0        5.001101    0.636797   -0.571014
     64          6           0        2.884186    1.853556    0.142878
     65          1           0        3.271939    2.770195   -0.305221
     66          1           0        3.234830    1.829531    1.183127
     67          8           0        5.628636    1.368941    0.182299
     68          8           0        1.462634    1.916687    0.067231
     69          1           0        1.095908    1.196526    0.612327
     70          7           0        5.568060   -0.248321   -1.443425
     71          1           0        4.941872   -0.875026   -1.943483
     72          6           0        6.999417   -0.501161   -1.472354
     73          1           0        7.450612    0.093442   -0.672829
     74          1           0        7.215257   -1.554713   -1.267199
     75          6           0        7.712918   -0.146134   -2.785019
     76          8           0        8.848586   -0.554401   -2.998876
     77          7           0        7.018385    0.643107   -3.641953
     78          1           0        6.099763    0.987252   -3.392947
     79          6           0        7.596136    1.137183   -4.881443
     80          1           0        8.639851    1.415997   -4.699760
     81          6           0        6.803363    2.378831   -5.260441
     82          6           0        7.563366    0.053705   -5.994709
     83          1           0        7.978364   -0.843499   -5.525749
     84          1           0        6.515104   -0.164550   -6.240663
     85          8           0        5.681183    2.623351   -4.864489
     86          6           0        8.353410    0.391867   -7.266628
     87          1           0        7.955432    1.306269   -7.719956
     88          1           0        9.394974    0.615947   -6.994827
     89          6           0        8.326947   -0.731340   -8.316898
     90          1           0        8.779516   -0.348974   -9.243406
     91          1           0        7.291127   -0.993811   -8.569194
     92          6           0        9.067747   -2.008662   -7.908868
     93          1           0       10.101398   -1.744935   -7.615304
     94          1           0        8.597281   -2.449242   -7.021501
     95          7           0        8.985161   -3.004668   -8.983568
     96          1           0        9.445829   -3.865386   -8.691972
     97          1           0        9.505406   -2.672112   -9.795289
     98          8           0        7.472615    3.183528   -6.107641
     99          1           0        6.875605    3.927490   -6.317555
    100          1           0       -8.977118   -1.716673    2.798153
 ---------------------------------------------------------------------

 SCF Done:  E(RB3LYP) =  -2418.44937836     A.U. after    1 cycles

 Alpha  occ. eigenvalues --  -19.27651 -19.26421 -19.25273 -19.23128 -19.22624
 Alpha  occ. eigenvalues --  -19.21668 -19.21524 -19.21501 -19.19645 -19.17643
 Alpha  occ. eigenvalues --  -19.14919 -14.58356 -14.50965 -14.49611 -14.47022
 Alpha  occ. eigenvalues --  -14.46446 -14.44900 -14.41796 -14.39976 -14.33782
 Alpha  occ. eigenvalues --  -10.45253 -10.43621 -10.41652 -10.40069 -10.39368
 Alpha  occ. eigenvalues --  -10.38008 -10.37546 -10.36801 -10.34892 -10.34756
 Alpha  occ. eigenvalues --  -10.33921 -10.32675 -10.32457 -10.32064 -10.30472
 Alpha  occ. eigenvalues --  -10.30252 -10.29383 -10.28397 -10.27952 -10.27379
 Alpha  occ. eigenvalues --  -10.27053 -10.26021 -10.26015 -10.24931 -10.23310
 Alpha  occ. eigenvalues --  -10.22852 -10.21699 -10.21008  -1.19594  -1.18562
 Alpha  occ. eigenvalues --   -1.16238  -1.15270  -1.14191  -1.12974  -1.12883
 Alpha  occ. eigenvalues --   -1.09654  -1.09245  -1.08591  -1.07396  -1.06839
 Alpha  occ. eigenvalues --   -1.06206  -1.05936  -1.03494  -1.02614  -1.00974
 Alpha  occ. eigenvalues --   -0.98195  -0.96331  -0.94826  -0.91149  -0.90472
 Alpha  occ. eigenvalues --   -0.88221  -0.85808  -0.85058  -0.84179  -0.83459
 Alpha  occ. eigenvalues --   -0.82245  -0.80357  -0.79818  -0.79061  -0.77053
 Alpha  occ. eigenvalues --   -0.75616  -0.74976  -0.73770  -0.73462  -0.72512
 Alpha  occ. eigenvalues --   -0.72049  -0.71593  -0.71185  -0.70233  -0.69065
 Alpha  occ. eigenvalues --   -0.68787  -0.68178  -0.67591  -0.67050  -0.66173
 Alpha  occ. eigenvalues --   -0.66065  -0.65369  -0.64272  -0.64086  -0.63322
 Alpha  occ. eigenvalues --   -0.62231  -0.62082  -0.60889  -0.60384  -0.59820
 Alpha  occ. eigenvalues --   -0.59707  -0.59341  -0.59105  -0.58292  -0.57616
 Alpha  occ. eigenvalues --   -0.57499  -0.57115  -0.56904  -0.56493  -0.56047
 Alpha  occ. eigenvalues --   -0.55364  -0.54829  -0.54304  -0.54248  -0.53678
 Alpha  occ. eigenvalues --   -0.52771  -0.52704  -0.52387  -0.52200  -0.51967
 Alpha  occ. eigenvalues --   -0.51860  -0.51792  -0.51488  -0.50786  -0.50701
 Alpha  occ. eigenvalues --   -0.50285  -0.50226  -0.49867  -0.49132  -0.48894
 Alpha  occ. eigenvalues --   -0.48540  -0.48433  -0.48318  -0.48130  -0.47901
 Alpha  occ. eigenvalues --   -0.47354  -0.47135  -0.46833  -0.46495  -0.46024
 Alpha  occ. eigenvalues --   -0.45843  -0.45640  -0.45566  -0.45020  -0.44603
 Alpha  occ. eigenvalues --   -0.44541  -0.44101  -0.43802  -0.43098  -0.43052
 Alpha  occ. eigenvalues --   -0.42837  -0.42478  -0.42180  -0.41838  -0.41564
 Alpha  occ. eigenvalues --   -0.41025  -0.40803  -0.40441  -0.40322  -0.39979
 Alpha  occ. eigenvalues --   -0.39272  -0.38741  -0.37911  -0.37814  -0.37442
 Alpha  occ. eigenvalues --   -0.37018  -0.36790  -0.36153  -0.36078  -0.35329
 Alpha  occ. eigenvalues --   -0.35179  -0.35162  -0.34670  -0.33584  -0.33381
 Alpha  occ. eigenvalues --   -0.32417  -0.30603  -0.29348  -0.28283  -0.26019
 Alpha virt. eigenvalues --   -0.13361  -0.12288  -0.09692  -0.09276  -0.08698
 Alpha virt. eigenvalues --   -0.06999  -0.05621  -0.04929  -0.04627  -0.04157
 Alpha virt. eigenvalues --   -0.02800  -0.02694  -0.01549  -0.00991  -0.00672

 Mulliken charges:
               1
     1  N   -0.754989
     2  H    0.410068
     3  H    0.444996
     4  C   -0.122134
     5  H    0.216327
     6  C    0.650944
     7  C   -0.400285
     8  H    0.229706
     9  H    0.204202
    10  O   -0.531510
    11  C    0.646971
    12  N   -0.725432
    13  H    0.417872
    14  H    0.384116
    15  O   -0.533364
    16  N   -0.613170
    17  H    0.367605
    18  C   -0.079155
    19  H    0.192018
    20  C    0.641963
    21  C   -0.076025
    22  H    0.153910
    23  O   -0.548350
    24  C   -0.289932
    25  H    0.153183
    26  H    0.161282
    27  C   -0.480527
    28  H    0.193109
    29  H    0.163352
    30  H    0.130627
    31  C   -0.465211
    32  H    0.178142
    33  H    0.131063
    34  H    0.161912
    35  N   -0.602289
    36  H    0.362162
    37  C   -0.068477
    38  H    0.193763
    39  C    0.657669
    40  C   -0.496300
    41  H    0.175072
    42  H    0.178393
    43  H    0.199920
    44  O   -0.566621
    45  N   -0.588636
    46  H    0.360464
    47  C   -0.077468
    48  H    0.182333
    49  C    0.629940
    50  C    0.108017
    51  H    0.154220
    52  O   -0.555174
    53  C   -0.451857
    54  H    0.152889
    55  H    0.181594
    56  H    0.152375
    57  O   -0.645644
    58  H    0.424819
    59  N   -0.598672
    60  H    0.358702
    61  C   -0.089114
    62  H    0.187886
    63  C    0.623342
    64  C   -0.074159
    65  H    0.184612
    66  H    0.159378
    67  O   -0.506252
    68  O   -0.666460
    69  H    0.432061
    70  N   -0.635856
    71  H    0.366578
    72  C   -0.228660
    73  H    0.222344
    74  H    0.184510
    75  C    0.603033
    76  O   -0.522973
    77  N   -0.617610
    78  H    0.348822
    79  C   -0.013580
    80  H    0.194046
    81  C    0.576597
    82  C   -0.274368
    83  H    0.183024
    84  H    0.138523
    85  O   -0.477144
    86  C   -0.271469
    87  H    0.145492
    88  H    0.141254
    89  C   -0.251779
    90  H    0.128437
    91  H    0.144163
    92  C   -0.135190
    93  H    0.117232
    94  H    0.141761
    95  N   -0.718541
    96  H    0.297352
    97  H    0.292842
    98  O   -0.553452
    99  H    0.417038
   100  H    0.371800
 Sum of Mulliken charges =   1.00000

 Dipole moment (field-independent basis, Debye):
    X=            -27.7817    Y=              0.2228    Z=             14.7972  Tot=             31.4774
 Quadrupole moment (field-independent basis, Debye-Ang):
   XX=            -85.9692   YY=           -263.2087   ZZ=           -175.5891
   XY=              1.3642   XZ=           -137.3819   YZ=             -5.0336

 Normal termination of Gaussian 16 at Fri May 27 02:49:51 2022.
