 Gaussian 16, Revision C.01,
 Gaussian 16:  ES64L-G16RevC.01  3-Jul-2019

 -------------------------------------------------------------------
 # B3LYP/6-31G* guess=read geom=check nosymm integral(ultrafinegrid)
 -------------------------------------------------------------------

 ------------------------------------------------------
 Candidate Structure: Conf:370 Charge calc in gas phase
 ------------------------------------------------------
 Structure from the checkpoint file:  "conf-370.chk"
 Charge =  1 Multiplicity = 1

                          Input orientation:
 ---------------------------------------------------------------------
 Center     Atomic      Atomic             Coordinates (Angstroms)
 Number     Number       Type             X           Y           Z
 ---------------------------------------------------------------------
      1          7           0       -6.364183    0.073707   -4.296882
      2          1           0       -6.707863   -0.007364   -5.257711
      3          1           0       -7.081613    0.528832   -3.726143
      4          1           0       -6.138335   -0.897942   -3.927990
      5          6           0       -5.010471    0.759490   -4.201388
      6          1           0       -4.844756    1.297915   -5.136531
      7          6           0       -4.050563   -0.452581   -4.062765
      8          6           0       -5.009550    1.743710   -2.999422
      9          1           0       -5.861882    2.417665   -3.187948
     10          8           0       -4.548093   -1.535092   -3.719322
     11          6           0       -3.743632    2.628117   -2.955290
     12          1           0       -2.875588    2.004548   -2.713103
     13          1           0       -3.872375    3.295962   -2.095265
     14          6           0       -5.219062    1.025985   -1.654591
     15          1           0       -4.360632    0.391973   -1.414687
     16          1           0       -5.325774    1.771314   -0.860790
     17          1           0       -6.123566    0.403751   -1.626871
     18          6           0       -3.485426    3.482828   -4.202508
     19          1           0       -2.653114    4.169258   -4.021834
     20          1           0       -3.207511    2.893136   -5.085586
     21          1           0       -4.362189    4.087793   -4.464773
     22          7           0       -2.767931   -0.250284   -4.361843
     23          1           0       -2.449283    0.687567   -4.587471
     24          6           0       -1.714510   -1.204415   -4.033120
     25          1           0       -2.152874   -2.204160   -4.116505
     26          6           0       -1.340236   -1.016309   -2.531780
     27          6           0       -0.563413   -1.074499   -5.068603
     28          1           0       -0.945161   -1.471756   -6.015799
     29          1           0        0.258079   -1.736236   -4.774859
     30          8           0       -2.020533   -0.304740   -1.796463
     31          6           0       -0.052853    0.338941   -5.276801
     32          6           0       -0.629291    1.153936   -6.265636
     33          1           0       -1.404553    0.746488   -6.913320
     34          6           0        0.995595    0.858569   -4.502663
     35          1           0        1.480857    0.227998   -3.760774
     36          6           0       -0.179344    2.462343   -6.463381
     37          1           0       -0.622186    3.073380   -7.245802
     38          6           0        1.453014    2.163661   -4.701083
     39          1           0        2.282557    2.554747   -4.113387
     40          6           0        0.857608    2.967137   -5.677993
     41          1           0        1.221985    3.978096   -5.836625
     42          7           0       -0.299553   -1.770024   -2.100741
     43          1           0        0.375473   -2.114097   -2.775775
     44          6           0        0.259279   -1.654995   -0.754726
     45          1           0       -0.359058   -0.933166   -0.212839
     46          6           0        1.692944   -1.113687   -0.946798
     47          6           0        0.233310   -3.024929   -0.017014
     48          1           0        0.886140   -3.704764   -0.583071
     49          8           0        2.316933   -1.385750   -1.976316
     50          6           0        0.783047   -2.915933    1.415265
     51          1           0        0.159247   -2.242247    2.019519
     52          1           0        0.763660   -3.900667    1.895541
     53          1           0        1.812101   -2.543547    1.440745
     54          6           0       -1.184853   -3.612511    0.003006
     55          1           0       -1.875811   -2.954321    0.544554
     56          1           0       -1.577147   -3.753738   -1.007618
     57          1           0       -1.186554   -4.586897    0.503851
     58          7           0        2.188427   -0.338693    0.038965
     59          1           0        1.689739   -0.212774    0.910880
     60          6           0        3.513308    0.262337   -0.028452
     61          1           0        4.162550   -0.444438   -0.557940
     62          6           0        4.028059    0.436146    1.421641
     63          6           0        3.501110    1.614456   -0.808226
     64          1           0        2.574440    1.668614   -1.385897
     65          1           0        3.475323    2.445868   -0.093995
     66          8           0        3.299624    0.047401    2.378131
     67          6           0        4.688474    1.800909   -1.775114
     68          1           0        4.561597    1.132611   -2.633307
     69          1           0        5.643401    1.564141   -1.299712
     70          6           0        4.710890    3.242376   -2.285665
     71          7           0        5.643011    4.032861   -1.712550
     72          1           0        6.214882    3.717680   -0.919292
     73          1           0        5.643354    5.011946   -1.965587
     74          8           0        3.900155    3.635284   -3.129916
     75          7           0        5.220368    1.019568    1.503892
     76          1           0        5.667947    1.377705    0.637333
     77          6           0        5.880730    1.803312    2.571062
     78          1           0        5.108794    2.356767    3.120639
     79          6           0        6.795556    2.856485    1.822173
     80          6           0        6.677418    0.957944    3.585359
     81          1           0        7.024108    1.634238    4.371978
     82          1           0        7.561936    0.513590    3.114255
     83          8           0        7.401168    3.636649    2.555129
     84          6           0        5.703136   -0.105914    4.073119
     85          1           0        4.774698    0.441957    4.262950
     86          1           0        5.507104   -0.740716    3.200433
     87          6           0        5.904020   -1.045177    5.261050
     88          1           0        5.844522   -0.514305    6.219063
     89          1           0        6.868920   -1.564675    5.241054
     90          6           0        4.806144   -2.118697    5.161207
     91          1           0        5.043489   -2.845546    4.380470
     92          1           0        4.620592   -2.651872    6.096785
     93          7           0        3.465171   -1.510993    4.732286
     94          1           0        2.753141   -2.240218    4.630992
     95          1           0        3.513818   -0.970727    3.815409
     96          1           0        3.123740   -0.847168    5.435236
     97          8           0        6.778293    2.737319    0.551813
 ---------------------------------------------------------------------

 SCF Done:  E(RB3LYP) =  -2122.30020498     A.U. after    3 cycles

 Alpha  occ. eigenvalues --  -19.26176 -19.21367 -19.21048 -19.19809 -19.13744
 Alpha  occ. eigenvalues --  -19.11604 -19.09868 -14.59414 -14.57494 -14.48978
 Alpha  occ. eigenvalues --  -14.45012 -14.44115 -14.41698 -14.36835 -10.42937
 Alpha  occ. eigenvalues --  -10.39743 -10.38556 -10.37174 -10.37174 -10.36924
 Alpha  occ. eigenvalues --  -10.34280 -10.33234 -10.31807 -10.31413 -10.30750
 Alpha  occ. eigenvalues --  -10.29918 -10.29112 -10.29088 -10.29062 -10.28770
 Alpha  occ. eigenvalues --  -10.28530 -10.27691 -10.27230 -10.26985 -10.26840
 Alpha  occ. eigenvalues --  -10.26777 -10.26323 -10.25847 -10.25523 -10.25236
 Alpha  occ. eigenvalues --  -10.25179 -10.25031 -10.24466 -10.24236 -10.23217
 Alpha  occ. eigenvalues --   -1.18669  -1.13513  -1.12966  -1.12062  -1.11682
 Alpha  occ. eigenvalues --   -1.10764  -1.05721  -1.05167  -1.04312  -1.01627
 Alpha  occ. eigenvalues --   -1.00417  -0.98763  -0.95588  -0.94387  -0.92563
 Alpha  occ. eigenvalues --   -0.91958  -0.90821  -0.89730  -0.88161  -0.85972
 Alpha  occ. eigenvalues --   -0.85646  -0.84144  -0.83451  -0.81928  -0.80846
 Alpha  occ. eigenvalues --   -0.79952  -0.78832  -0.77376  -0.76624  -0.75589
 Alpha  occ. eigenvalues --   -0.74401  -0.73455  -0.73110  -0.72715  -0.71848
 Alpha  occ. eigenvalues --   -0.70738  -0.70232  -0.69236  -0.67907  -0.67418
 Alpha  occ. eigenvalues --   -0.67104  -0.66762  -0.66474  -0.65806  -0.65465
 Alpha  occ. eigenvalues --   -0.64742  -0.63184  -0.62548  -0.61587  -0.61029
 Alpha  occ. eigenvalues --   -0.60594  -0.59506  -0.59301  -0.58603  -0.58278
 Alpha  occ. eigenvalues --   -0.57172  -0.56444  -0.56170  -0.56067  -0.54950
 Alpha  occ. eigenvalues --   -0.54526  -0.54269  -0.54041  -0.53710  -0.53416
 Alpha  occ. eigenvalues --   -0.53213  -0.53052  -0.52263  -0.52127  -0.51907
 Alpha  occ. eigenvalues --   -0.51808  -0.51657  -0.51315  -0.50986  -0.50482
 Alpha  occ. eigenvalues --   -0.49756  -0.49515  -0.49275  -0.48942  -0.48401
 Alpha  occ. eigenvalues --   -0.48292  -0.48080  -0.47819  -0.47471  -0.47206
 Alpha  occ. eigenvalues --   -0.47050  -0.46728  -0.46571  -0.46493  -0.46099
 Alpha  occ. eigenvalues --   -0.45632  -0.45085  -0.44808  -0.44367  -0.44144
 Alpha  occ. eigenvalues --   -0.43882  -0.43306  -0.42818  -0.42570  -0.42466
 Alpha  occ. eigenvalues --   -0.42105  -0.41990  -0.41610  -0.41150  -0.40749
 Alpha  occ. eigenvalues --   -0.40688  -0.40329  -0.40049  -0.39906  -0.39525
 Alpha  occ. eigenvalues --   -0.39081  -0.38882  -0.38277  -0.35426  -0.35235
 Alpha  occ. eigenvalues --   -0.34660  -0.33631  -0.33279  -0.32787  -0.31603
 Alpha  occ. eigenvalues --   -0.31390  -0.28761  -0.27837  -0.26613  -0.26287
 Alpha  occ. eigenvalues --   -0.24045
 Alpha virt. eigenvalues --   -0.11789  -0.10603  -0.09340  -0.07943  -0.07458
 Alpha virt. eigenvalues --   -0.06901  -0.06531  -0.06177  -0.05739  -0.04548
 Alpha virt. eigenvalues --   -0.03607  -0.01239  -0.00751  -0.00323  -0.00081

 Mulliken charges:
               1
     1  N   -0.759885
     2  H    0.414002
     3  H    0.411148
     4  H    0.433661
     5  C   -0.123567
     6  H    0.208561
     7  C    0.672760
     8  C   -0.102864
     9  H    0.144972
    10  O   -0.545433
    11  C   -0.290666
    12  H    0.189962
    13  H    0.169879
    14  C   -0.493349
    15  H    0.227883
    16  H    0.181951
    17  H    0.124648
    18  C   -0.474699
    19  H    0.192408
    20  H    0.139412
    21  H    0.154390
    22  N   -0.589185
    23  H    0.372858
    24  C   -0.091048
    25  H    0.210693
    26  C    0.636208
    27  C   -0.386461
    28  H    0.173770
    29  H    0.178481
    30  O   -0.523855
    31  C    0.139526
    32  C   -0.219513
    33  H    0.118091
    34  C   -0.216843
    35  H    0.164946
    36  C   -0.125820
    37  H    0.137764
    38  C   -0.153619
    39  H    0.222027
    40  C   -0.144659
    41  H    0.155989
    42  N   -0.603012
    43  H    0.357422
    44  C   -0.070030
    45  H    0.176968
    46  C    0.628871
    47  C   -0.071557
    48  H    0.147409
    49  O   -0.542070
    50  C   -0.480296
    51  H    0.138270
    52  H    0.154095
    53  H    0.149917
    54  C   -0.444916
    55  H    0.149356
    56  H    0.158493
    57  H    0.154213
    58  N   -0.606458
    59  H    0.342749
    60  C   -0.041734
    61  H    0.200065
    62  C    0.602911
    63  C   -0.288274
    64  H    0.171205
    65  H    0.166702
    66  O   -0.628519
    67  C   -0.375751
    68  H    0.170693
    69  H    0.184996
    70  C    0.567239
    71  N   -0.760466
    72  H    0.408618
    73  H    0.331283
    74  O   -0.527622
    75  N   -0.613700
    76  H    0.400747
    77  C   -0.089068
    78  H    0.157502
    79  C    0.601208
    80  C   -0.258717
    81  H    0.180236
    82  H    0.158215
    83  O   -0.543374
    84  C   -0.291215
    85  H    0.130355
    86  H    0.146593
    87  C   -0.275535
    88  H    0.169552
    89  H    0.189815
    90  C   -0.194039
    91  H    0.212834
    92  H    0.202079
    93  N   -0.777777
    94  H    0.403060
    95  H    0.461248
    96  H    0.405344
    97  O   -0.630658
 Sum of Mulliken charges =   1.00000

 Dipole moment (field-independent basis, Debye):
    X=            -21.3781    Y=            -10.5562    Z=             -1.4854  Tot=             23.8885
 Quadrupole moment (field-independent basis, Debye-Ang):
   XX=           -188.5831   YY=           -268.2185   ZZ=           -118.3567
   XY=            -87.4586   XZ=            136.4207   YZ=            -46.8151

 Normal termination of Gaussian 16 at Sun Jun 19 17:48:47 2022.
