 Gaussian 16, Revision C.01,
 Gaussian 16:  ES64L-G16RevC.01  3-Jul-2019

 -------------------------------------------------------------------
 # B3LYP/6-31G* guess=read geom=check nosymm integral(ultrafinegrid)
 -------------------------------------------------------------------

 ------------------------------------------------------
 Candidate Structure: Conf:669 Charge calc in gas phase
 ------------------------------------------------------
 Structure from the checkpoint file:  "conf-669.chk"
 Charge =  1 Multiplicity = 1

                          Input orientation:
 ---------------------------------------------------------------------
 Center     Atomic      Atomic             Coordinates (Angstroms)
 Number     Number       Type             X           Y           Z
 ---------------------------------------------------------------------
      1          7           0       -1.740735    2.404680   -5.565318
      2          1           0       -0.961195    1.863882   -5.980280
      3          1           0       -1.709924    3.373891   -5.892672
      4          1           0       -2.618432    1.929271   -5.862084
      5          6           0       -1.748029    2.276995   -4.048418
      6          1           0       -0.711677    2.334323   -3.709189
      7          6           0       -2.316108    0.849028   -3.889007
      8          6           0       -2.608118    3.405256   -3.425253
      9          1           0       -2.153466    4.350049   -3.767693
     10          8           0       -3.219798    0.508620   -4.665939
     11          6           0       -2.506889    3.387144   -1.881381
     12          1           0       -2.715966    2.375388   -1.510128
     13          1           0       -3.315421    4.020792   -1.498612
     14          6           0       -4.076610    3.386731   -3.885073
     15          1           0       -4.599288    2.492640   -3.535230
     16          1           0       -4.589495    4.263951   -3.479556
     17          1           0       -4.191555    3.427817   -4.975388
     18          6           0       -1.172739    3.892478   -1.320631
     19          1           0       -1.200326    3.893432   -0.226127
     20          1           0       -0.329034    3.265093   -1.623570
     21          1           0       -0.974035    4.921303   -1.645881
     22          7           0       -1.737611    0.074696   -2.970691
     23          1           0       -0.917074    0.425030   -2.460901
     24          6           0       -1.987667   -1.358055   -2.932844
     25          1           0       -2.989729   -1.522121   -3.339001
     26          6           0       -1.933250   -1.800071   -1.454125
     27          6           0       -0.939113   -2.130139   -3.811963
     28          1           0       -1.326212   -3.138340   -4.000618
     29          1           0       -0.016700   -2.253961   -3.234288
     30          8           0       -1.820538   -0.971243   -0.556673
     31          6           0       -0.633623   -1.458192   -5.135713
     32          6           0       -1.387456   -1.739206   -6.283752
     33          1           0       -2.188188   -2.472671   -6.231694
     34          6           0        0.397017   -0.510515   -5.229452
     35          1           0        0.995110   -0.278637   -4.352031
     36          6           0       -1.131932   -1.088727   -7.491510
     37          1           0       -1.723918   -1.330039   -8.369697
     38          6           0        0.658747    0.146904   -6.438791
     39          1           0        1.491947    0.843759   -6.503459
     40          6           0       -0.108510   -0.140046   -7.575246
     41          1           0        0.110471    0.346299   -8.522323
     42          7           0       -1.984022   -3.142570   -1.218772
     43          1           0       -1.827224   -3.754390   -2.010740
     44          6           0       -1.446949   -3.667655    0.048890
     45          1           0       -1.883948   -3.072444    0.855249
     46          6           0        0.081307   -3.455781   -0.028947
     47          6           0       -1.816640   -5.154150    0.228577
     48          1           0       -1.379401   -5.695060   -0.623668
     49          8           0        0.715541   -3.891337   -0.991842
     50          6           0       -1.190468   -5.717663    1.513470
     51          1           0       -1.560956   -5.187163    2.399814
     52          1           0       -1.452165   -6.774452    1.628493
     53          1           0       -0.098000   -5.645762    1.505529
     54          6           0       -3.338483   -5.357630    0.225447
     55          1           0       -3.803102   -4.845614    1.077277
     56          1           0       -3.804501   -4.973994   -0.687538
     57          1           0       -3.579195   -6.423022    0.306374
     58          7           0        0.647263   -2.725264    0.959751
     59          1           0        0.092513   -2.312120    1.702572
     60          6           0        2.015801   -2.249388    0.876244
     61          1           0        2.678486   -3.098028    0.671205
     62          6           0        2.362492   -1.596106    2.221403
     63          6           0        2.204163   -1.203641   -0.259060
     64          1           0        3.262466   -0.923490   -0.310348
     65          1           0        1.952268   -1.696021   -1.202422
     66          8           0        1.486443   -1.252572    3.007946
     67          6           0        1.341716    0.061316   -0.060070
     68          1           0        1.576245    0.525222    0.902715
     69          1           0        0.281110   -0.197646   -0.061011
     70          6           0        1.578193    1.069882   -1.167416
     71          7           0        2.651975    1.866894   -1.003757
     72          1           0        3.251721    1.795257   -0.183304
     73          1           0        2.884136    2.530478   -1.730049
     74          8           0        0.843995    1.150726   -2.173010
     75          7           0        3.693010   -1.363929    2.422055
     76          1           0        4.310434   -1.546092    1.640301
     77          6           0        4.147188   -0.330493    3.341300
     78          1           0        3.467459   -0.319326    4.194914
     79          6           0        4.102521    1.051877    2.684182
     80          6           0        5.593225   -0.648628    3.821571
     81          1           0        6.174570   -1.003611    2.958695
     82          1           0        5.514711   -1.497882    4.507972
     83          8           0        4.015283    2.016983    3.578939
     84          6           0        6.353442    0.515460    4.495889
     85          1           0        5.654163    1.099386    5.101542
     86          1           0        7.079806    0.086815    5.195118
     87          6           0        7.114252    1.441025    3.503703
     88          1           0        6.713900    1.329062    2.487677
     89          1           0        8.154239    1.100845    3.440166
     90          6           0        7.118128    2.943715    3.854944
     91          1           0        7.003598    3.083079    4.934925
     92          1           0        8.079913    3.392660    3.574530
     93          7           0        5.999161    3.673157    3.192804
     94          1           0        5.929811    4.619998    3.565054
     95          1           0        4.617284    2.821355    3.315323
     96          1           0        6.200593    3.770599    2.197382
     97          8           0        4.231982    1.216466    1.473098
 ---------------------------------------------------------------------

 SCF Done:  E(RB3LYP) =  -2122.38137366     A.U. after    2 cycles

 Alpha  occ. eigenvalues --  -19.23945 -19.22917 -19.21660 -19.21165 -19.20501
 Alpha  occ. eigenvalues --  -19.19997 -19.18514 -14.57373 -14.46048 -14.44220
 Alpha  occ. eigenvalues --  -14.44092 -14.43982 -14.43488 -14.43216 -10.39995
 Alpha  occ. eigenvalues --  -10.39189 -10.38102 -10.37575 -10.36963 -10.36879
 Alpha  occ. eigenvalues --  -10.35689 -10.33097 -10.31411 -10.31409 -10.31001
 Alpha  occ. eigenvalues --  -10.30446 -10.30095 -10.29231 -10.28960 -10.28929
 Alpha  occ. eigenvalues --  -10.28800 -10.28392 -10.28345 -10.28261 -10.27690
 Alpha  occ. eigenvalues --  -10.27659 -10.27481 -10.27105 -10.26538 -10.26501
 Alpha  occ. eigenvalues --  -10.26443 -10.25877 -10.25760 -10.23838 -10.23754
 Alpha  occ. eigenvalues --   -1.16373  -1.15666  -1.12598  -1.11976  -1.11928
 Alpha  occ. eigenvalues --   -1.11031  -1.10292  -1.07911  -1.03082  -1.00705
 Alpha  occ. eigenvalues --   -1.00671  -0.99723  -0.99016  -0.98722  -0.95042
 Alpha  occ. eigenvalues --   -0.92406  -0.88923  -0.88270  -0.87298  -0.86698
 Alpha  occ. eigenvalues --   -0.84689  -0.83824  -0.83246  -0.82717  -0.81309
 Alpha  occ. eigenvalues --   -0.80554  -0.77615  -0.76683  -0.75327  -0.74725
 Alpha  occ. eigenvalues --   -0.73472  -0.72057  -0.71466  -0.70869  -0.70489
 Alpha  occ. eigenvalues --   -0.69778  -0.69186  -0.68619  -0.67808  -0.66956
 Alpha  occ. eigenvalues --   -0.66885  -0.66238  -0.65870  -0.65565  -0.65042
 Alpha  occ. eigenvalues --   -0.64338  -0.62704  -0.62312  -0.61584  -0.60472
 Alpha  occ. eigenvalues --   -0.59547  -0.59182  -0.58911  -0.58277  -0.57423
 Alpha  occ. eigenvalues --   -0.57115  -0.56823  -0.56461  -0.55939  -0.55502
 Alpha  occ. eigenvalues --   -0.55037  -0.54597  -0.54395  -0.54099  -0.53858
 Alpha  occ. eigenvalues --   -0.53372  -0.52695  -0.52652  -0.52244  -0.51927
 Alpha  occ. eigenvalues --   -0.51648  -0.51101  -0.50906  -0.50867  -0.50547
 Alpha  occ. eigenvalues --   -0.50326  -0.49901  -0.49761  -0.49446  -0.49187
 Alpha  occ. eigenvalues --   -0.49069  -0.48452  -0.48194  -0.48082  -0.47278
 Alpha  occ. eigenvalues --   -0.46968  -0.46772  -0.46690  -0.46181  -0.45869
 Alpha  occ. eigenvalues --   -0.45667  -0.45504  -0.45223  -0.45038  -0.44541
 Alpha  occ. eigenvalues --   -0.44229  -0.43972  -0.43607  -0.43504  -0.43254
 Alpha  occ. eigenvalues --   -0.43055  -0.42715  -0.42535  -0.42232  -0.42028
 Alpha  occ. eigenvalues --   -0.41260  -0.41118  -0.40903  -0.40435  -0.40401
 Alpha  occ. eigenvalues --   -0.39683  -0.37827  -0.37564  -0.36446  -0.35881
 Alpha  occ. eigenvalues --   -0.35769  -0.35442  -0.35236  -0.35008  -0.34537
 Alpha  occ. eigenvalues --   -0.34223  -0.34176  -0.33501  -0.32907  -0.32587
 Alpha  occ. eigenvalues --   -0.31459
 Alpha virt. eigenvalues --   -0.10623  -0.10069  -0.09714  -0.07451  -0.07417
 Alpha virt. eigenvalues --   -0.07225  -0.07058  -0.05704  -0.04742  -0.02013
 Alpha virt. eigenvalues --   -0.01390  -0.01131  -0.00559  -0.00188   0.00418

 Mulliken charges:
               1
     1  N   -0.761248
     2  H    0.411845
     3  H    0.399201
     4  H    0.423484
     5  C   -0.132673
     6  H    0.226421
     7  C    0.654946
     8  C   -0.095930
     9  H    0.135764
    10  O   -0.557302
    11  C   -0.273351
    12  H    0.172602
    13  H    0.162092
    14  C   -0.467169
    15  H    0.193071
    16  H    0.177181
    17  H    0.128085
    18  C   -0.479943
    19  H    0.170186
    20  H    0.166963
    21  H    0.145519
    22  N   -0.604821
    23  H    0.402529
    24  C   -0.077719
    25  H    0.210695
    26  C    0.626928
    27  C   -0.394666
    28  H    0.164308
    29  H    0.197102
    30  O   -0.515779
    31  C    0.168549
    32  C   -0.151936
    33  H    0.148813
    34  C   -0.195333
    35  H    0.167618
    36  C   -0.131862
    37  H    0.157776
    38  C   -0.205709
    39  H    0.149018
    40  C   -0.150975
    41  H    0.152690
    42  N   -0.598492
    43  H    0.343989
    44  C   -0.039599
    45  H    0.169886
    46  C    0.626430
    47  C   -0.103618
    48  H    0.145758
    49  O   -0.556599
    50  C   -0.462084
    51  H    0.149572
    52  H    0.163112
    53  H    0.162316
    54  C   -0.445674
    55  H    0.152024
    56  H    0.148995
    57  H    0.159325
    58  N   -0.609024
    59  H    0.363424
    60  C   -0.043888
    61  H    0.183727
    62  C    0.615320
    63  C   -0.293448
    64  H    0.150625
    65  H    0.186625
    66  O   -0.521168
    67  C   -0.397171
    68  H    0.178918
    69  H    0.217716
    70  C    0.598095
    71  N   -0.750300
    72  H    0.405123
    73  H    0.336779
    74  O   -0.569988
    75  N   -0.590113
    76  H    0.335043
    77  C   -0.048487
    78  H    0.209568
    79  C    0.602146
    80  C   -0.290351
    81  H    0.142175
    82  H    0.174538
    83  O   -0.584476
    84  C   -0.284243
    85  H    0.173090
    86  H    0.156514
    87  C   -0.292213
    88  H    0.152296
    89  H    0.159583
    90  C   -0.148127
    91  H    0.173131
    92  H    0.156326
    93  N   -0.778322
    94  H    0.339435
    95  H    0.458120
    96  H    0.334550
    97  O   -0.533862
 Sum of Mulliken charges =   1.00000

 Dipole moment (field-independent basis, Debye):
    X=              6.6869    Y=              9.1008    Z=            -12.1894  Tot=             16.6169
 Quadrupole moment (field-independent basis, Debye-Ang):
   XX=           -176.3034   YY=           -199.4209   ZZ=           -152.4461
   XY=             27.6610   XZ=             59.9035   YZ=            -28.9830

 Normal termination of Gaussian 16 at Sun Jun 19 17:48:27 2022.
