 Gaussian 16, Revision C.01,
 Gaussian 16:  ES64L-G16RevC.01  3-Jul-2019

 -------------------------------------------------------------------
 # B3LYP/6-31G* guess=read geom=check nosymm integral(ultrafinegrid)
 -------------------------------------------------------------------

 ------------------------------------------------------
 Candidate Structure: Conf:797 Charge calc in gas phase
 ------------------------------------------------------
 Structure from the checkpoint file:  "conf-797.chk"
 Charge =  1 Multiplicity = 1

                          Input orientation:
 ---------------------------------------------------------------------
 Center     Atomic      Atomic             Coordinates (Angstroms)
 Number     Number       Type             X           Y           Z
 ---------------------------------------------------------------------
      1          7           0       -3.697680   -0.395587   -5.654239
      2          1           0       -2.781254   -0.671816   -6.048720
      3          1           0       -4.134775    0.315849   -6.245813
      4          1           0       -4.272865   -1.261750   -5.609503
      5          6           0       -3.556927    0.029961   -4.198688
      6          1           0       -2.648322    0.630525   -4.117321
      7          6           0       -3.382974   -1.346632   -3.519554
      8          6           0       -4.806523    0.831842   -3.757343
      9          1           0       -4.858660    1.700139   -4.435576
     10          8           0       -4.081106   -2.281477   -3.941143
     11          6           0       -4.625536    1.386648   -2.323878
     12          1           0       -4.313639    0.576002   -1.652382
     13          1           0       -5.615184    1.704178   -1.974328
     14          6           0       -6.123459    0.045837   -3.885660
     15          1           0       -6.153081   -0.807995   -3.203838
     16          1           0       -6.960363    0.708015   -3.643915
     17          1           0       -6.304522   -0.337188   -4.898025
     18          6           0       -3.655558    2.568350   -2.213603
     19          1           0       -3.614534    2.929283   -1.180853
     20          1           0       -2.636394    2.297368   -2.503326
     21          1           0       -3.982318    3.406216   -2.842015
     22          7           0       -2.440344   -1.424655   -2.581097
     23          1           0       -1.828039   -0.606600   -2.431198
     24          6           0       -1.985842   -2.711577   -2.079325
     25          1           0       -2.814455   -3.415023   -2.204694
     26          6           0       -1.677827   -2.545699   -0.571674
     27          6           0       -0.751806   -3.220162   -2.903292
     28          1           0       -0.615279   -4.287978   -2.693968
     29          1           0        0.148955   -2.709670   -2.544842
     30          8           0       -2.059460   -1.555570    0.040463
     31          6           0       -0.891439   -3.025041   -4.400310
     32          6           0       -1.493851   -4.001548   -5.205378
     33          1           0       -1.843438   -4.926446   -4.753144
     34          6           0       -0.446024   -1.840555   -5.007034
     35          1           0        0.017616   -1.066856   -4.400881
     36          6           0       -1.659083   -3.804345   -6.576986
     37          1           0       -2.122336   -4.579161   -7.181270
     38          6           0       -0.608458   -1.636813   -6.383689
     39          1           0       -0.214873   -0.732241   -6.843019
     40          6           0       -1.218383   -2.619803   -7.173650
     41          1           0       -1.321406   -2.476059   -8.246159
     42          7           0       -0.965828   -3.557214    0.012634
     43          1           0       -0.462126   -4.175261   -0.612760
     44          6           0       -0.228160   -3.294490    1.261287
     45          1           0       -0.890382   -2.709164    1.904347
     46          6           0        1.004861   -2.468892    0.830553
     47          6           0        0.167185   -4.611164    1.957814
     48          1           0        0.804402   -5.164834    1.252958
     49          8           0        1.763332   -2.914224   -0.035036
     50          6           0        0.999608   -4.325982    3.217307
     51          1           0        0.424092   -3.740892    3.946371
     52          1           0        1.289091   -5.264656    3.701539
     53          1           0        1.916648   -3.774000    2.985984
     54          6           0       -1.064923   -5.462365    2.294038
     55          1           0       -1.712116   -4.946707    3.014818
     56          1           0       -1.664872   -5.680703    1.405393
     57          1           0       -0.760796   -6.414888    2.741822
     58          7           0        1.128607   -1.240554    1.375653
     59          1           0        0.497643   -0.909272    2.098376
     60          6           0        2.054380   -0.237811    0.872259
     61          1           0        3.067133   -0.659666    0.855892
     62          6           0        2.001774    0.955017    1.855464
     63          6           0        1.695245    0.199007   -0.572209
     64          1           0        2.494592    0.831873   -0.969955
     65          1           0        1.671024   -0.703586   -1.189875
     66          8           0        1.280614    0.917918    2.856064
     67          6           0        0.356164    0.960152   -0.660250
     68          1           0        0.397983    1.839678   -0.011948
     69          1           0       -0.470455    0.324296   -0.333930
     70          6           0        0.067488    1.426752   -2.077033
     71          7           0        0.682103    2.550189   -2.455327
     72          1           0        1.320213    3.071199   -1.817074
     73          1           0        0.538267    2.878497   -3.401207
     74          8           0       -0.694572    0.781588   -2.841406
     75          7           0        2.758585    2.022602    1.499798
     76          1           0        3.069606    2.043323    0.525158
     77          6           0        2.354191    3.391730    1.840928
     78          1           0        1.355535    3.347314    2.291920
     79          6           0        2.225005    4.215666    0.497890
     80          6           0        3.299514    4.083680    2.823362
     81          1           0        2.991546    5.134476    2.863646
     82          1           0        4.323234    4.058860    2.423616
     83          8           0        2.413959    3.521793   -0.559467
     84          6           0        3.272439    3.451457    4.218852
     85          1           0        2.244189    3.457584    4.603943
     86          1           0        3.571960    2.397856    4.154518
     87          6           0        4.193090    4.195067    5.202413
     88          1           0        3.890945    5.250892    5.255918
     89          1           0        5.227246    4.169757    4.829803
     90          6           0        4.128667    3.571200    6.586395
     91          1           0        3.126288    3.612544    7.019316
     92          1           0        4.480483    2.536837    6.600050
     93          7           0        5.036220    4.334184    7.565345
     94          1           0        5.015262    3.939851    8.513495
     95          1           0        4.751715    5.319378    7.626550
     96          1           0        6.010238    4.322025    7.239415
     97          8           0        1.949605    5.411227    0.623243
 ---------------------------------------------------------------------

 SCF Done:  E(RB3LYP) =  -2122.31893652     A.U. after    1 cycles

 Alpha  occ. eigenvalues --  -19.20852 -19.18493 -19.17773 -19.16836 -19.16424
 Alpha  occ. eigenvalues --  -19.11161 -19.09735 -14.63543 -14.55484 -14.43757
 Alpha  occ. eigenvalues --  -14.42313 -14.40967 -14.39397 -14.38760 -10.40085
 Alpha  occ. eigenvalues --  -10.37851 -10.35639 -10.34727 -10.34403 -10.33623
 Alpha  occ. eigenvalues --  -10.33412 -10.31930 -10.31145 -10.29437 -10.28687
 Alpha  occ. eigenvalues --  -10.28640 -10.28565 -10.27485 -10.27226 -10.27161
 Alpha  occ. eigenvalues --  -10.27155 -10.27094 -10.26687 -10.26594 -10.26516
 Alpha  occ. eigenvalues --  -10.25944 -10.25659 -10.25079 -10.25029 -10.24202
 Alpha  occ. eigenvalues --  -10.23760 -10.23517 -10.23470 -10.22905 -10.22577
 Alpha  occ. eigenvalues --   -1.17364  -1.13555  -1.10528  -1.09076  -1.08674
 Alpha  occ. eigenvalues --   -1.08203  -1.07865  -1.03705  -1.00964  -0.98759
 Alpha  occ. eigenvalues --   -0.97364  -0.96511  -0.95087  -0.94330  -0.93297
 Alpha  occ. eigenvalues --   -0.93172  -0.90406  -0.87092  -0.85689  -0.85202
 Alpha  occ. eigenvalues --   -0.83966  -0.82735  -0.82090  -0.80733  -0.79497
 Alpha  occ. eigenvalues --   -0.79320  -0.77929  -0.75998  -0.75986  -0.74936
 Alpha  occ. eigenvalues --   -0.73694  -0.73367  -0.71523  -0.70995  -0.69439
 Alpha  occ. eigenvalues --   -0.69002  -0.68588  -0.67982  -0.66952  -0.66624
 Alpha  occ. eigenvalues --   -0.66011  -0.64871  -0.64411  -0.63856  -0.63550
 Alpha  occ. eigenvalues --   -0.63279  -0.62243  -0.61019  -0.60795  -0.60527
 Alpha  occ. eigenvalues --   -0.59274  -0.58659  -0.58019  -0.57374  -0.56466
 Alpha  occ. eigenvalues --   -0.55550  -0.55201  -0.54521  -0.54336  -0.53781
 Alpha  occ. eigenvalues --   -0.53616  -0.53287  -0.53158  -0.52396  -0.52047
 Alpha  occ. eigenvalues --   -0.51182  -0.51044  -0.50758  -0.50497  -0.50047
 Alpha  occ. eigenvalues --   -0.49613  -0.49594  -0.49225  -0.48933  -0.48758
 Alpha  occ. eigenvalues --   -0.48393  -0.47918  -0.47666  -0.47215  -0.47085
 Alpha  occ. eigenvalues --   -0.46675  -0.46507  -0.46149  -0.45483  -0.45251
 Alpha  occ. eigenvalues --   -0.45064  -0.44811  -0.44622  -0.44175  -0.43976
 Alpha  occ. eigenvalues --   -0.43943  -0.43674  -0.43436  -0.43048  -0.42667
 Alpha  occ. eigenvalues --   -0.42093  -0.41718  -0.41398  -0.41192  -0.41140
 Alpha  occ. eigenvalues --   -0.40755  -0.40473  -0.40223  -0.40139  -0.39798
 Alpha  occ. eigenvalues --   -0.39706  -0.39283  -0.39166  -0.38759  -0.38263
 Alpha  occ. eigenvalues --   -0.37219  -0.35474  -0.34412  -0.33341  -0.32781
 Alpha  occ. eigenvalues --   -0.32511  -0.31873  -0.31842  -0.31496  -0.31326
 Alpha  occ. eigenvalues --   -0.30449  -0.30158  -0.29388  -0.26382  -0.25902
 Alpha  occ. eigenvalues --   -0.23665
 Alpha virt. eigenvalues --   -0.14096  -0.08824  -0.08245  -0.07781  -0.07418
 Alpha virt. eigenvalues --   -0.07285  -0.05621  -0.05220  -0.04621  -0.04053
 Alpha virt. eigenvalues --   -0.02625  -0.02243  -0.01132  -0.00089   0.00393

 Mulliken charges:
               1
     1  N   -0.761760
     2  H    0.412156
     3  H    0.397289
     4  H    0.420485
     5  C   -0.136627
     6  H    0.235405
     7  C    0.648167
     8  C   -0.094015
     9  H    0.134275
    10  O   -0.562815
    11  C   -0.273836
    12  H    0.173667
    13  H    0.155576
    14  C   -0.466404
    15  H    0.192161
    16  H    0.172804
    17  H    0.123726
    18  C   -0.478371
    19  H    0.168790
    20  H    0.174713
    21  H    0.144344
    22  N   -0.601075
    23  H    0.406579
    24  C   -0.074229
    25  H    0.208900
    26  C    0.622308
    27  C   -0.399925
    28  H    0.161306
    29  H    0.196669
    30  O   -0.511515
    31  C    0.166952
    32  C   -0.152346
    33  H    0.144583
    34  C   -0.195160
    35  H    0.176739
    36  C   -0.132161
    37  H    0.152502
    38  C   -0.208665
    39  H    0.149814
    40  C   -0.147815
    41  H    0.148520
    42  N   -0.602599
    43  H    0.344650
    44  C   -0.044474
    45  H    0.167250
    46  C    0.623112
    47  C   -0.094092
    48  H    0.144570
    49  O   -0.560586
    50  C   -0.461304
    51  H    0.142967
    52  H    0.155780
    53  H    0.161006
    54  C   -0.444905
    55  H    0.146731
    56  H    0.152209
    57  H    0.152289
    58  N   -0.608316
    59  H    0.357481
    60  C   -0.036018
    61  H    0.180651
    62  C    0.572398
    63  C   -0.308701
    64  H    0.173038
    65  H    0.176177
    66  O   -0.550729
    67  C   -0.377382
    68  H    0.179917
    69  H    0.190472
    70  C    0.588476
    71  N   -0.741857
    72  H    0.428434
    73  H    0.325242
    74  O   -0.593505
    75  N   -0.596411
    76  H    0.355784
    77  C   -0.086302
    78  H    0.160495
    79  C    0.588858
    80  C   -0.257417
    81  H    0.171157
    82  H    0.133908
    83  O   -0.640409
    84  C   -0.267670
    85  H    0.159515
    86  H    0.165125
    87  C   -0.291359
    88  H    0.166216
    89  H    0.163141
    90  C   -0.206140
    91  H    0.228238
    92  H    0.227317
    93  N   -0.731668
    94  H    0.426695
    95  H    0.425908
    96  H    0.425157
    97  O   -0.550234
 Sum of Mulliken charges =   1.00000

 Dipole moment (field-independent basis, Debye):
    X=              7.4120    Y=              6.9737    Z=             13.8222  Tot=             17.1646
 Quadrupole moment (field-independent basis, Debye-Ang):
   XX=           -138.5528   YY=           -221.4593   ZZ=             67.7619
   XY=             68.7539   XZ=            210.5464   YZ=            128.6565

 Normal termination of Gaussian 16 at Sun Jun 19 17:47:59 2022.
