 Gaussian 16, Revision C.01,
 Gaussian 16:  ES64L-G16RevC.01  3-Jul-2019

 -------------------------------------------------------------------
 # B3LYP/6-31G* guess=read geom=check nosymm integral(ultrafinegrid)
 -------------------------------------------------------------------

 ------------------------------------------------------
 Candidate Structure: Conf:474 Charge calc in gas phase
 ------------------------------------------------------
 Structure from the checkpoint file:  "conf-474.chk"
 Charge =  1 Multiplicity = 1

                          Input orientation:
 ---------------------------------------------------------------------
 Center     Atomic      Atomic             Coordinates (Angstroms)
 Number     Number       Type             X           Y           Z
 ---------------------------------------------------------------------
      1          7           0       -2.990946   -3.186660   -5.658907
      2          1           0       -3.043102   -2.348499   -6.271462
      3          1           0       -3.423418   -3.985693   -6.130237
      4          1           0       -1.979316   -3.357806   -5.469278
      5          6           0       -3.582825   -2.901089   -4.292102
      6          1           0       -4.430806   -2.235100   -4.458293
      7          6           0       -2.404910   -2.159505   -3.607562
      8          6           0       -4.039202   -4.207721   -3.600655
      9          1           0       -4.789877   -4.655469   -4.272559
     10          8           0       -1.266248   -2.516992   -3.908647
     11          6           0       -4.752825   -3.905078   -2.263384
     12          1           0       -4.048905   -3.414702   -1.578195
     13          1           0       -4.989193   -4.872056   -1.804782
     14          6           0       -2.897834   -5.219180   -3.399946
     15          1           0       -2.126485   -4.833393   -2.727239
     16          1           0       -3.300401   -6.138509   -2.964484
     17          1           0       -2.404838   -5.502263   -4.338041
     18          6           0       -6.045099   -3.086042   -2.373368
     19          1           0       -6.530519   -3.010613   -1.395690
     20          1           0       -5.878104   -2.058625   -2.722065
     21          1           0       -6.759071   -3.555270   -3.060654
     22          7           0       -2.710881   -1.144574   -2.775286
     23          1           0       -3.693073   -0.913700   -2.674914
     24          6           0       -1.767273   -0.031102   -2.554651
     25          1           0       -0.759570   -0.414458   -2.757639
     26          6           0       -1.782693    0.458135   -1.094511
     27          6           0       -2.043375    1.124325   -3.550102
     28          1           0       -1.203232    1.816183   -3.456185
     29          1           0       -2.943933    1.667672   -3.241131
     30          8           0       -1.644875    1.645238   -0.832687
     31          6           0       -2.184209    0.631108   -4.976539
     32          6           0       -1.056272    0.236046   -5.718774
     33          1           0       -0.069432    0.321366   -5.268398
     34          6           0       -3.451758    0.499662   -5.563365
     35          1           0       -4.331650    0.837039   -5.018197
     36          6           0       -1.203688   -0.285851   -7.004689
     37          1           0       -0.320848   -0.574764   -7.568872
     38          6           0       -3.604528   -0.026987   -6.853065
     39          1           0       -4.593463   -0.084892   -7.302042
     40          6           0       -2.475086   -0.428051   -7.578529
     41          1           0       -2.580786   -0.802103   -8.594222
     42          7           0       -1.924913   -0.525052   -0.150796
     43          1           0       -1.767095   -1.475686   -0.471563
     44          6           0       -1.457422   -0.312579    1.232397
     45          1           0       -1.516025    0.763052    1.417753
     46          6           0        0.003964   -0.807876    1.197697
     47          6           0       -2.314224   -1.083674    2.253297
     48          1           0       -2.227979   -2.149376    1.998642
     49          8           0        0.232730   -1.985994    0.910757
     50          6           0       -1.754814   -0.890796    3.671145
     51          1           0       -1.781949    0.166164    3.966096
     52          1           0       -2.351554   -1.452228    4.398079
     53          1           0       -0.719861   -1.239704    3.750515
     54          6           0       -3.789263   -0.668519    2.180350
     55          1           0       -3.914955    0.387855    2.449704
     56          1           0       -4.197730   -0.806193    1.173921
     57          1           0       -4.390818   -1.262709    2.877445
     58          7           0        0.959226    0.131179    1.355936
     59          1           0        0.737281    1.078683    1.645164
     60          6           0        2.346018   -0.072362    0.960891
     61          1           0        2.736428   -0.967604    1.460217
     62          6           0        3.130996    1.173621    1.431781
     63          6           0        2.462054   -0.270780   -0.572224
     64          1           0        3.481852   -0.577591   -0.827234
     65          1           0        1.808004   -1.102650   -0.850293
     66          8           0        2.572383    2.069402    2.069963
     67          6           0        2.100947    0.996978   -1.370012
     68          1           0        2.773440    1.809945   -1.084633
     69          1           0        1.073129    1.306103   -1.161688
     70          6           0        2.220105    0.760291   -2.868585
     71          7           0        3.449145    0.961852   -3.377332
     72          1           0        4.248086    1.227786   -2.780700
     73          1           0        3.596023    0.772543   -4.359340
     74          8           0        1.246456    0.388155   -3.545723
     75          7           0        4.430966    1.208900    1.046644
     76          1           0        4.686671    0.584672    0.277556
     77          6           0        5.118845    2.479780    0.811398
     78          1           0        4.370046    3.281471    0.839164
     79          6           0        5.722948    2.455985   -0.652980
     80          6           0        6.209488    2.802686    1.832254
     81          1           0        6.770904    3.624421    1.371371
     82          1           0        6.896911    1.948252    1.914587
     83          8           0        6.461076    3.407595   -0.939886
     84          6           0        5.677703    3.171620    3.221566
     85          1           0        4.907404    3.950032    3.139636
     86          1           0        5.178169    2.308981    3.674538
     87          6           0        6.786671    3.645519    4.185051
     88          1           0        7.571873    2.876784    4.237683
     89          1           0        6.382703    3.777636    5.198678
     90          6           0        7.391319    4.957357    3.703557
     91          1           0        7.791894    4.886841    2.691437
     92          1           0        6.681956    5.787289    3.749512
     93          7           0        8.575177    5.367518    4.589585
     94          1           0        8.997882    6.253637    4.288138
     95          1           0        9.306489    4.646680    4.566125
     96          1           0        8.282980    5.471948    5.568513
     97          8           0        5.359567    1.457433   -1.352833
 ---------------------------------------------------------------------

 SCF Done:  E(RB3LYP) =  -2122.29644185     A.U. after    1 cycles

 Alpha  occ. eigenvalues --  -19.23804 -19.18053 -19.15773 -19.15749 -19.14267
 Alpha  occ. eigenvalues --  -19.09971 -19.08824 -14.62407 -14.57275 -14.47367
 Alpha  occ. eigenvalues --  -14.42010 -14.40176 -14.37755 -14.36866 -10.40916
 Alpha  occ. eigenvalues --  -10.38516 -10.37853 -10.35303 -10.33004 -10.32323
 Alpha  occ. eigenvalues --  -10.32187 -10.31442 -10.30987 -10.30858 -10.28976
 Alpha  occ. eigenvalues --  -10.28147 -10.28087 -10.28071 -10.27799 -10.27741
 Alpha  occ. eigenvalues --  -10.27702 -10.27607 -10.27547 -10.27440 -10.27127
 Alpha  occ. eigenvalues --  -10.26110 -10.25995 -10.25897 -10.24523 -10.24126
 Alpha  occ. eigenvalues --  -10.23104 -10.22761 -10.22574 -10.22348 -10.21647
 Alpha  occ. eigenvalues --   -1.16466  -1.16242  -1.11272  -1.09997  -1.07888
 Alpha  occ. eigenvalues --   -1.06990  -1.05231  -1.03740  -1.02645  -0.98223
 Alpha  occ. eigenvalues --   -0.96574  -0.95424  -0.93831  -0.93749  -0.93161
 Alpha  occ. eigenvalues --   -0.92019  -0.91972  -0.87189  -0.85611  -0.84899
 Alpha  occ. eigenvalues --   -0.83929  -0.82986  -0.82600  -0.82466  -0.80869
 Alpha  occ. eigenvalues --   -0.78542  -0.77192  -0.75363  -0.74895  -0.74549
 Alpha  occ. eigenvalues --   -0.74228  -0.73385  -0.72727  -0.71937  -0.70511
 Alpha  occ. eigenvalues --   -0.70004  -0.69454  -0.68342  -0.67545  -0.66905
 Alpha  occ. eigenvalues --   -0.66107  -0.65314  -0.64563  -0.63953  -0.63482
 Alpha  occ. eigenvalues --   -0.62361  -0.61876  -0.60749  -0.60021  -0.59449
 Alpha  occ. eigenvalues --   -0.59204  -0.58969  -0.58518  -0.57988  -0.56979
 Alpha  occ. eigenvalues --   -0.55600  -0.55387  -0.54423  -0.53922  -0.53746
 Alpha  occ. eigenvalues --   -0.53401  -0.53273  -0.52952  -0.52649  -0.52001
 Alpha  occ. eigenvalues --   -0.51846  -0.51339  -0.50977  -0.50899  -0.50222
 Alpha  occ. eigenvalues --   -0.50146  -0.49985  -0.49765  -0.49176  -0.48671
 Alpha  occ. eigenvalues --   -0.48090  -0.47927  -0.47762  -0.47408  -0.47105
 Alpha  occ. eigenvalues --   -0.46621  -0.46362  -0.46029  -0.45344  -0.45015
 Alpha  occ. eigenvalues --   -0.44903  -0.44469  -0.44353  -0.44230  -0.44073
 Alpha  occ. eigenvalues --   -0.43917  -0.43847  -0.43408  -0.43313  -0.43214
 Alpha  occ. eigenvalues --   -0.43014  -0.42392  -0.41887  -0.41430  -0.41039
 Alpha  occ. eigenvalues --   -0.40797  -0.40350  -0.39556  -0.39108  -0.38937
 Alpha  occ. eigenvalues --   -0.38819  -0.38530  -0.38339  -0.38127  -0.37955
 Alpha  occ. eigenvalues --   -0.37319  -0.36843  -0.36268  -0.33471  -0.33149
 Alpha  occ. eigenvalues --   -0.32820  -0.31258  -0.30474  -0.29682  -0.29163
 Alpha  occ. eigenvalues --   -0.28862  -0.28790  -0.28033  -0.25253  -0.24633
 Alpha  occ. eigenvalues --   -0.22865
 Alpha virt. eigenvalues --   -0.13007  -0.11208  -0.08862  -0.08701  -0.07533
 Alpha virt. eigenvalues --   -0.06308  -0.06233  -0.05515  -0.04197  -0.03271
 Alpha virt. eigenvalues --   -0.02448  -0.02138  -0.01299  -0.00229   0.00239

 Mulliken charges:
               1
     1  N   -0.765231
     2  H    0.417439
     3  H    0.400634
     4  H    0.428087
     5  C   -0.112713
     6  H    0.193825
     7  C    0.658234
     8  C   -0.103012
     9  H    0.144613
    10  O   -0.513520
    11  C   -0.274755
    12  H    0.162205
    13  H    0.172907
    14  C   -0.470665
    15  H    0.197564
    16  H    0.182741
    17  H    0.136082
    18  C   -0.466066
    19  H    0.184803
    20  H    0.131770
    21  H    0.162887
    22  N   -0.606782
    23  H    0.344945
    24  C   -0.122609
    25  H    0.267712
    26  C    0.626694
    27  C   -0.351132
    28  H    0.216986
    29  H    0.154445
    30  O   -0.513243
    31  C    0.127945
    32  C   -0.165107
    33  H    0.220731
    34  C   -0.204124
    35  H    0.134824
    36  C   -0.143476
    37  H    0.157448
    38  C   -0.175007
    39  H    0.148133
    40  C   -0.189042
    41  H    0.150544
    42  N   -0.601959
    43  H    0.339208
    44  C   -0.046324
    45  H    0.170960
    46  C    0.620898
    47  C   -0.079764
    48  H    0.139002
    49  O   -0.557986
    50  C   -0.461997
    51  H    0.145128
    52  H    0.152779
    53  H    0.165023
    54  C   -0.444318
    55  H    0.149804
    56  H    0.134380
    57  H    0.148296
    58  N   -0.609115
    59  H    0.357891
    60  C   -0.037354
    61  H    0.180849
    62  C    0.575660
    63  C   -0.306567
    64  H    0.169162
    65  H    0.176909
    66  O   -0.549283
    67  C   -0.367550
    68  H    0.174723
    69  H    0.165614
    70  C    0.567208
    71  N   -0.753602
    72  H    0.415727
    73  H    0.323194
    74  O   -0.548712
    75  N   -0.597295
    76  H    0.355542
    77  C   -0.076295
    78  H    0.157877
    79  C    0.587367
    80  C   -0.278963
    81  H    0.157889
    82  H    0.133685
    83  O   -0.567523
    84  C   -0.265464
    85  H    0.159515
    86  H    0.180913
    87  C   -0.292842
    88  H    0.157471
    89  H    0.156981
    90  C   -0.207069
    91  H    0.243500
    92  H    0.224184
    93  N   -0.731641
    94  H    0.427515
    95  H    0.424652
    96  H    0.421117
    97  O   -0.626713
 Sum of Mulliken charges =   1.00000

 Dipole moment (field-independent basis, Debye):
    X=              7.2090    Y=              3.7517    Z=              3.0077  Tot=              8.6655
 Quadrupole moment (field-independent basis, Debye-Ang):
   XX=             10.5003   YY=           -137.1170   ZZ=            -76.4194
   XY=            191.5917   XZ=            235.5805   YZ=            162.7626

 Normal termination of Gaussian 16 at Sun Jun 19 17:47:57 2022.
