 Gaussian 16, Revision C.01,
 Gaussian 16:  ES64L-G16RevC.01  3-Jul-2019

 -------------------------------------------------------------------
 # B3LYP/6-31G* guess=read geom=check nosymm integral(ultrafinegrid)
 -------------------------------------------------------------------

 ------------------------------------------------------
 Candidate Structure: Conf:727 Charge calc in gas phase
 ------------------------------------------------------
 Structure from the checkpoint file:  "conf-727.chk"
 Charge =  1 Multiplicity = 1

                          Input orientation:
 ---------------------------------------------------------------------
 Center     Atomic      Atomic             Coordinates (Angstroms)
 Number     Number       Type             X           Y           Z
 ---------------------------------------------------------------------
      1          7           0       -6.823977   -2.913723   -2.835911
      2          1           0       -7.223116   -3.539356   -3.540260
      3          1           0       -7.585773   -2.429346   -2.352841
      4          1           0       -6.250717   -3.480291   -2.144547
      5          6           0       -5.786544   -1.954059   -3.393405
      6          1           0       -5.826070   -2.020714   -4.484117
      7          6           0       -4.457859   -2.541508   -2.854223
      8          6           0       -6.056101   -0.498170   -2.931629
      9          1           0       -5.150892    0.055933   -3.209990
     10          8           0       -4.521405   -3.411429   -1.975833
     11          6           0       -6.203157   -0.381343   -1.395727
     12          1           0       -5.451614   -1.008176   -0.905134
     13          1           0       -7.194936   -0.751326   -1.084962
     14          6           0       -7.246935    0.097316   -3.700174
     15          1           0       -8.189469   -0.419898   -3.471465
     16          1           0       -7.391102    1.146262   -3.430343
     17          1           0       -7.093796    0.053576   -4.784353
     18          6           0       -6.030596    1.053250   -0.882482
     19          1           0       -6.166747    1.082725    0.202789
     20          1           0       -5.020037    1.411414   -1.101675
     21          1           0       -6.755055    1.745867   -1.323228
     22          7           0       -3.328824   -2.071333   -3.394088
     23          1           0       -3.386385   -1.263597   -4.008155
     24          6           0       -2.042131   -2.228674   -2.722581
     25          1           0       -1.949806   -3.275230   -2.417391
     26          6           0       -2.039519   -1.326464   -1.458052
     27          6           0       -0.893252   -1.878764   -3.708489
     28          1           0       -0.862771   -2.660011   -4.475555
     29          1           0        0.051625   -1.940702   -3.157985
     30          8           0       -2.896734   -0.461853   -1.295771
     31          6           0       -1.035583   -0.518607   -4.365988
     32          6           0       -1.555027   -0.415868   -5.665940
     33          1           0       -1.807598   -1.321251   -6.214992
     34          6           0       -0.674519    0.659715   -3.693934
     35          1           0       -0.258663    0.608501   -2.691193
     36          6           0       -1.712638    0.829989   -6.279317
     37          1           0       -2.100119    0.888013   -7.292657
     38          6           0       -0.831703    1.903404   -4.304331
     39          1           0       -0.541844    2.804165   -3.770221
     40          6           0       -1.352447    1.992380   -5.597881
     41          1           0       -1.465560    2.961473   -6.075241
     42          7           0       -1.024223   -1.567223   -0.598965
     43          1           0       -0.331925   -2.279465   -0.804801
     44          6           0       -0.672107   -0.682473    0.516399
     45          1           0       -1.193693    0.264706    0.351114
     46          6           0        0.851412   -0.504954    0.419472
     47          6           0       -1.076642   -1.260904    1.897708
     48          1           0       -0.529775   -2.209563    2.008853
     49          8           0        1.569465   -1.525935    0.329650
     50          6           0       -0.652777   -0.310195    3.029974
     51          1           0       -1.175048    0.651131    2.945093
     52          1           0       -0.918381   -0.738908    4.002600
     53          1           0        0.422826   -0.103109    3.028398
     54          6           0       -2.579953   -1.560740    1.961620
     55          1           0       -3.167076   -0.643887    1.833904
     56          1           0       -2.887838   -2.270431    1.187215
     57          1           0       -2.836792   -1.992093    2.935432
     58          7           0        1.297904    0.748977    0.402082
     59          1           0        0.629263    1.529350    0.390882
     60          6           0        2.702738    1.128090    0.317023
     61          1           0        3.115488    0.749029   -0.627233
     62          6           0        3.548412    0.528524    1.460596
     63          6           0        2.862618    2.665790    0.356047
     64          1           0        2.431049    3.042180    1.291137
     65          1           0        3.939264    2.868335    0.398982
     66          8           0        3.020093    0.158085    2.537198
     67          6           0        2.285471    3.438393   -0.846750
     68          1           0        2.413084    2.854918   -1.769954
     69          1           0        2.873964    4.351165   -0.992755
     70          6           0        0.808698    3.806120   -0.737890
     71          7           0        0.439563    4.943040   -1.383409
     72          1           0        1.120826    5.603728   -1.728164
     73          1           0       -0.513742    5.262658   -1.271334
     74          8           0       -0.029316    3.113900   -0.149536
     75          7           0        4.847200    0.499610    1.179505
     76          1           0        5.184613    1.090884    0.375963
     77          6           0        5.933756    0.664938    2.160186
     78          1           0        5.498316    0.972315    3.117574
     79          6           0        6.795672    1.873745    1.573178
     80          6           0        6.805269   -0.573863    2.381865
     81          1           0        7.608026   -0.247453    3.049409
     82          1           0        7.288856   -0.864425    1.438915
     83          8           0        7.764633    2.211169    2.255459
     84          6           0        6.057016   -1.776838    2.983281
     85          1           0        6.749366   -2.412387    3.550451
     86          1           0        5.330057   -1.399189    3.717591
     87          6           0        5.346987   -2.657040    1.929627
     88          1           0        6.048722   -3.400881    1.534717
     89          1           0        5.030980   -2.052273    1.071537
     90          6           0        4.134009   -3.403133    2.483016
     91          1           0        3.823492   -4.234418    1.844152
     92          1           0        4.329987   -3.793765    3.485683
     93          7           0        2.949089   -2.472605    2.589795
     94          1           0        2.248551   -2.811719    3.252921
     95          1           0        2.470749   -2.322350    1.675182
     96          1           0        3.200447   -1.474418    2.851969
     97          8           0        6.360300    2.316971    0.459885
 ---------------------------------------------------------------------

 SCF Done:  E(RB3LYP) =  -2122.32385257     A.U. after    2 cycles

 Alpha  occ. eigenvalues --  -19.27868 -19.22358 -19.21509 -19.21082 -19.18757
 Alpha  occ. eigenvalues --  -19.08958 -19.07483 -14.60533 -14.51429 -14.50333
 Alpha  occ. eigenvalues --  -14.46537 -14.44813 -14.44405 -14.39305 -10.44361
 Alpha  occ. eigenvalues --  -10.41044 -10.39553 -10.38344 -10.38165 -10.35762
 Alpha  occ. eigenvalues --  -10.34854 -10.34220 -10.33118 -10.32369 -10.30972
 Alpha  occ. eigenvalues --  -10.30966 -10.30879 -10.30748 -10.29859 -10.28840
 Alpha  occ. eigenvalues --  -10.28497 -10.28478 -10.28304 -10.28297 -10.28217
 Alpha  occ. eigenvalues --  -10.27945 -10.27608 -10.26453 -10.26406 -10.26311
 Alpha  occ. eigenvalues --  -10.25550 -10.25081 -10.24110 -10.23841 -10.21556
 Alpha  occ. eigenvalues --   -1.20177  -1.14692  -1.14101  -1.12767  -1.12437
 Alpha  occ. eigenvalues --   -1.09448  -1.07150  -1.06500  -1.02812  -1.01807
 Alpha  occ. eigenvalues --   -1.01190  -0.99413  -0.96677  -0.95861  -0.95177
 Alpha  occ. eigenvalues --   -0.92890  -0.90949  -0.89068  -0.87457  -0.87366
 Alpha  occ. eigenvalues --   -0.86829  -0.84555  -0.83914  -0.83521  -0.82196
 Alpha  occ. eigenvalues --   -0.80973  -0.79006  -0.77092  -0.76436  -0.76026
 Alpha  occ. eigenvalues --   -0.74928  -0.74596  -0.73477  -0.72887  -0.71738
 Alpha  occ. eigenvalues --   -0.70448  -0.70094  -0.69967  -0.69279  -0.68122
 Alpha  occ. eigenvalues --   -0.67866  -0.66932  -0.66201  -0.65713  -0.65187
 Alpha  occ. eigenvalues --   -0.64736  -0.63309  -0.62963  -0.62483  -0.62114
 Alpha  occ. eigenvalues --   -0.61107  -0.60783  -0.59604  -0.58881  -0.58715
 Alpha  occ. eigenvalues --   -0.58353  -0.57959  -0.57803  -0.57390  -0.56930
 Alpha  occ. eigenvalues --   -0.56347  -0.55791  -0.55246  -0.54680  -0.54466
 Alpha  occ. eigenvalues --   -0.53724  -0.53399  -0.53208  -0.53045  -0.52707
 Alpha  occ. eigenvalues --   -0.52062  -0.51423  -0.51184  -0.50979  -0.50435
 Alpha  occ. eigenvalues --   -0.50296  -0.50211  -0.50108  -0.49762  -0.49569
 Alpha  occ. eigenvalues --   -0.49308  -0.48944  -0.48677  -0.48293  -0.47931
 Alpha  occ. eigenvalues --   -0.47862  -0.47608  -0.46932  -0.46418  -0.46172
 Alpha  occ. eigenvalues --   -0.46090  -0.45805  -0.45331  -0.45040  -0.44709
 Alpha  occ. eigenvalues --   -0.44006  -0.43868  -0.43605  -0.43399  -0.43140
 Alpha  occ. eigenvalues --   -0.42959  -0.42900  -0.42134  -0.41941  -0.41762
 Alpha  occ. eigenvalues --   -0.41574  -0.40973  -0.40536  -0.39317  -0.38513
 Alpha  occ. eigenvalues --   -0.37968  -0.37215  -0.36919  -0.36327  -0.36107
 Alpha  occ. eigenvalues --   -0.35782  -0.35428  -0.34831  -0.34587  -0.34293
 Alpha  occ. eigenvalues --   -0.34077  -0.32728  -0.30984  -0.23915  -0.23775
 Alpha  occ. eigenvalues --   -0.21441
 Alpha virt. eigenvalues --   -0.13346  -0.11838  -0.10378  -0.09930  -0.08800
 Alpha virt. eigenvalues --   -0.07442  -0.06940  -0.06833  -0.05077  -0.04938
 Alpha virt. eigenvalues --   -0.04367  -0.03022  -0.01991  -0.01592  -0.01398

 Mulliken charges:
               1
     1  N   -0.758649
     2  H    0.416205
     3  H    0.413145
     4  H    0.433796
     5  C   -0.122297
     6  H    0.206606
     7  C    0.670810
     8  C   -0.114126
     9  H    0.190245
    10  O   -0.540420
    11  C   -0.292279
    12  H    0.189291
    13  H    0.119164
    14  C   -0.465438
    15  H    0.136219
    16  H    0.199630
    17  H    0.166844
    18  C   -0.459282
    19  H    0.170935
    20  H    0.189733
    21  H    0.155580
    22  N   -0.581653
    23  H    0.359594
    24  C   -0.086953
    25  H    0.196584
    26  C    0.653236
    27  C   -0.375046
    28  H    0.178932
    29  H    0.181175
    30  O   -0.542564
    31  C    0.132093
    32  C   -0.210934
    33  H    0.136235
    34  C   -0.168703
    35  H    0.142065
    36  C   -0.126594
    37  H    0.150592
    38  C   -0.132446
    39  H    0.151366
    40  C   -0.127789
    41  H    0.152743
    42  N   -0.612502
    43  H    0.346524
    44  C   -0.044880
    45  H    0.190515
    46  C    0.636105
    47  C   -0.073413
    48  H    0.110743
    49  O   -0.620388
    50  C   -0.487946
    51  H    0.158431
    52  H    0.153117
    53  H    0.184296
    54  C   -0.448950
    55  H    0.155804
    56  H    0.147516
    57  H    0.153622
    58  N   -0.625735
    59  H    0.409888
    60  C   -0.040793
    61  H    0.172756
    62  C    0.599924
    63  C   -0.333245
    64  H    0.174107
    65  H    0.230274
    66  O   -0.609428
    67  C   -0.377366
    68  H    0.185501
    69  H    0.179665
    70  C    0.612629
    71  N   -0.735761
    72  H    0.357243
    73  H    0.353510
    74  O   -0.538119
    75  N   -0.578285
    76  H    0.364216
    77  C   -0.099410
    78  H    0.154014
    79  C    0.597884
    80  C   -0.263553
    81  H    0.184622
    82  H    0.140349
    83  O   -0.551164
    84  C   -0.280224
    85  H    0.148987
    86  H    0.132159
    87  C   -0.286652
    88  H    0.170168
    89  H    0.179419
    90  C   -0.180411
    91  H    0.181815
    92  H    0.191196
    93  N   -0.801250
    94  H    0.380528
    95  H    0.438198
    96  H    0.447489
    97  O   -0.621386
 Sum of Mulliken charges =   1.00000

 Dipole moment (field-independent basis, Debye):
    X=            -31.8624    Y=            -13.9885    Z=            -14.5394  Tot=             37.7132
 Quadrupole moment (field-independent basis, Debye-Ang):
   XX=           -202.1361   YY=           -195.8186   ZZ=           -192.4959
   XY=             -7.2239   XZ=             69.6598   YZ=            -12.6383

 Normal termination of Gaussian 16 at Sun Jun 19 17:48:25 2022.
