 Gaussian 16, Revision C.01,
 Gaussian 16:  ES64L-G16RevC.01  3-Jul-2019

 -------------------------------------------------------------------
 # B3LYP/6-31G* guess=read geom=check nosymm integral(ultrafinegrid)
 -------------------------------------------------------------------

 ------------------------------------------------------
 Candidate Structure: Conf:428 Charge calc in gas phase
 ------------------------------------------------------
 Structure from the checkpoint file:  "conf-428.chk"
 Charge =  1 Multiplicity = 1

                          Input orientation:
 ---------------------------------------------------------------------
 Center     Atomic      Atomic             Coordinates (Angstroms)
 Number     Number       Type             X           Y           Z
 ---------------------------------------------------------------------
      1          7           0       -4.993699   -0.682628   -3.329017
      2          1           0       -5.057975   -0.342338   -4.291180
      3          1           0       -5.723983   -0.236549   -2.769514
      4          1           0       -5.089438   -1.744975   -3.324119
      5          6           0       -3.605838   -0.515642   -2.733001
      6          1           0       -3.037739    0.200603   -3.328720
      7          6           0       -3.027035   -1.944283   -2.864548
      8          6           0       -3.679002   -0.019931   -1.267514
      9          1           0       -2.629283    0.025267   -0.959724
     10          8           0       -3.835073   -2.872591   -3.055418
     11          6           0       -4.405451   -1.007066   -0.328550
     12          1           0       -3.963487   -2.001148   -0.449910
     13          1           0       -5.467836   -1.095337   -0.610867
     14          6           0       -4.240527    1.410670   -1.215809
     15          1           0       -5.314277    1.456328   -1.453798
     16          1           0       -4.128771    1.832645   -0.214158
     17          1           0       -3.709292    2.069087   -1.911585
     18          6           0       -4.318270   -0.619046    1.152261
     19          1           0       -4.781335   -1.393146    1.772262
     20          1           0       -3.272675   -0.525248    1.466013
     21          1           0       -4.827508    0.325531    1.369958
     22          7           0       -1.711594   -2.052761   -2.740913
     23          1           0       -1.171087   -1.181879   -2.623507
     24          6           0       -1.038442   -3.339892   -2.619651
     25          1           0       -1.787238   -4.103576   -2.852896
     26          6           0       -0.636335   -3.497431   -1.123822
     27          6           0        0.137084   -3.444788   -3.625696
     28          1           0        0.529966   -4.468083   -3.580827
     29          1           0        0.944777   -2.778133   -3.301316
     30          8           0       -1.256132   -2.891514   -0.255271
     31          6           0       -0.266364   -3.141903   -5.054202
     32          6           0       -0.761289   -4.155426   -5.885012
     33          1           0       -0.838580   -5.172172   -5.504833
     34          6           0       -0.163723   -1.841676   -5.567938
     35          1           0        0.213309   -1.040903   -4.935862
     36          6           0       -1.145673   -3.880330   -7.197929
     37          1           0       -1.519625   -4.681202   -7.830001
     38          6           0       -0.546097   -1.563897   -6.881291
     39          1           0       -0.448878   -0.552568   -7.267524
     40          6           0       -1.037747   -2.582282   -7.700313
     41          1           0       -1.326095   -2.368134   -8.725859
     42          7           0        0.419611   -4.321773   -0.839533
     43          1           0        1.028698   -4.522313   -1.622259
     44          6           0        1.167057   -4.068436    0.403235
     45          1           0        0.426609   -3.978190    1.201424
     46          6           0        1.864109   -2.702306    0.188639
     47          6           0        2.123990   -5.236297    0.742025
     48          1           0        1.483894   -6.127028    0.804820
     49          8           0        2.340846   -2.427301   -0.916092
     50          6           0        3.196929   -5.494593   -0.328459
     51          1           0        3.831816   -4.617108   -0.484914
     52          1           0        3.834844   -6.329848   -0.019691
     53          1           0        2.762913   -5.770289   -1.297042
     54          6           0        2.766796   -5.014441    2.120278
     55          1           0        3.420846   -4.134605    2.121241
     56          1           0        2.008821   -4.872919    2.900312
     57          1           0        3.374282   -5.881251    2.400942
     58          7           0        1.845498   -1.808904    1.206570
     59          1           0        1.354242   -2.000274    2.073673
     60          6           0        2.009421   -0.395311    0.901527
     61          1           0        2.946991   -0.265239    0.353201
     62          6           0        2.029102    0.413360    2.204695
     63          6           0        0.812226    0.143092    0.039062
     64          1           0        0.099285   -0.673519   -0.101254
     65          1           0        0.292850    0.932002    0.591659
     66          8           0        1.621619   -0.061875    3.265204
     67          6           0        1.226528    0.716344   -1.328390
     68          1           0        1.621757   -0.080973   -1.962702
     69          1           0        1.996466    1.480260   -1.193714
     70          6           0        0.012192    1.337127   -1.995898
     71          7           0       -0.166084    2.643717   -1.764547
     72          1           0        0.398365    3.140729   -1.046204
     73          1           0       -1.005450    3.080970   -2.122015
     74          8           0       -0.786603    0.647529   -2.674802
     75          7           0        2.422510    1.704620    2.025778
     76          1           0        2.529068    1.989631    1.046736
     77          6           0        1.732291    2.816774    2.692151
     78          1           0        0.879145    2.409453    3.247835
     79          6           0        1.152136    3.777282    1.574802
     80          6           0        2.622681    3.588944    3.667127
     81          1           0        2.057684    4.473236    3.982568
     82          1           0        3.517414    3.943706    3.136015
     83          8           0        0.520976    4.755271    1.984127
     84          6           0        3.038978    2.743694    4.875250
     85          1           0        2.142929    2.401631    5.410129
     86          1           0        3.555871    1.839883    4.529473
     87          6           0        3.945815    3.526231    5.840978
     88          1           0        3.422566    4.430758    6.183044
     89          1           0        4.851266    3.853597    5.309981
     90          6           0        4.331328    2.671261    7.036502
     91          1           0        3.466605    2.361180    7.628100
     92          1           0        4.905464    1.785815    6.753321
     93          7           0        5.231785    3.462816    7.999224
     94          1           0        5.510440    2.914013    8.821474
     95          1           0        4.749919    4.307056    8.331367
     96          1           0        6.086776    3.772617    7.521586
     97          8           0        1.409280    3.407927    0.378645
 ---------------------------------------------------------------------

 SCF Done:  E(RB3LYP) =  -2122.30885506     A.U. after    3 cycles

 Alpha  occ. eigenvalues --  -19.21939 -19.18813 -19.17770 -19.17171 -19.16854
 Alpha  occ. eigenvalues --  -19.11481 -19.09874 -14.63627 -14.55265 -14.44130
 Alpha  occ. eigenvalues --  -14.42140 -14.41294 -14.39523 -14.38521 -10.40165
 Alpha  occ. eigenvalues --  -10.38350 -10.35703 -10.34897 -10.34382 -10.34176
 Alpha  occ. eigenvalues --  -10.33338 -10.32025 -10.30888 -10.29082 -10.28943
 Alpha  occ. eigenvalues --  -10.28884 -10.28446 -10.27221 -10.26727 -10.26233
 Alpha  occ. eigenvalues --  -10.26230 -10.25714 -10.25305 -10.25235 -10.24286
 Alpha  occ. eigenvalues --  -10.24216 -10.24198 -10.24192 -10.24129 -10.24111
 Alpha  occ. eigenvalues --  -10.24097 -10.23920 -10.23653 -10.23352 -10.23021
 Alpha  occ. eigenvalues --   -1.17447  -1.14314  -1.10774  -1.09131  -1.08934
 Alpha  occ. eigenvalues --   -1.08225  -1.08029  -1.03894  -1.01331  -0.98789
 Alpha  occ. eigenvalues --   -0.97648  -0.96540  -0.95153  -0.94457  -0.93254
 Alpha  occ. eigenvalues --   -0.91088  -0.90448  -0.86928  -0.85444  -0.85243
 Alpha  occ. eigenvalues --   -0.83994  -0.82582  -0.80304  -0.79622  -0.79580
 Alpha  occ. eigenvalues --   -0.79096  -0.77849  -0.76080  -0.76027  -0.74817
 Alpha  occ. eigenvalues --   -0.74155  -0.72619  -0.71822  -0.71013  -0.69262
 Alpha  occ. eigenvalues --   -0.68711  -0.68577  -0.67438  -0.66877  -0.65650
 Alpha  occ. eigenvalues --   -0.65144  -0.64798  -0.64233  -0.64039  -0.63517
 Alpha  occ. eigenvalues --   -0.63359  -0.62445  -0.61526  -0.60917  -0.60694
 Alpha  occ. eigenvalues --   -0.58814  -0.57840  -0.57601  -0.56524  -0.56260
 Alpha  occ. eigenvalues --   -0.55121  -0.54806  -0.54341  -0.54103  -0.53716
 Alpha  occ. eigenvalues --   -0.53534  -0.53408  -0.52992  -0.52273  -0.51833
 Alpha  occ. eigenvalues --   -0.51422  -0.51181  -0.50864  -0.50394  -0.50133
 Alpha  occ. eigenvalues --   -0.49576  -0.49379  -0.49131  -0.48812  -0.48595
 Alpha  occ. eigenvalues --   -0.47837  -0.47344  -0.47245  -0.47100  -0.46282
 Alpha  occ. eigenvalues --   -0.46086  -0.46074  -0.46015  -0.45718  -0.45657
 Alpha  occ. eigenvalues --   -0.45478  -0.44830  -0.44763  -0.44607  -0.44335
 Alpha  occ. eigenvalues --   -0.43958  -0.43868  -0.43486  -0.42445  -0.41883
 Alpha  occ. eigenvalues --   -0.41766  -0.41081  -0.41038  -0.40921  -0.40691
 Alpha  occ. eigenvalues --   -0.40384  -0.40324  -0.39838  -0.39699  -0.39546
 Alpha  occ. eigenvalues --   -0.39476  -0.39421  -0.39295  -0.39169  -0.38979
 Alpha  occ. eigenvalues --   -0.37353  -0.36473  -0.34565  -0.33438  -0.32537
 Alpha  occ. eigenvalues --   -0.32127  -0.31734  -0.31557  -0.30751  -0.30173
 Alpha  occ. eigenvalues --   -0.30036  -0.29925  -0.29545  -0.26507  -0.26231
 Alpha  occ. eigenvalues --   -0.23785
 Alpha virt. eigenvalues --   -0.14181  -0.07541  -0.07500  -0.07370  -0.07048
 Alpha virt. eigenvalues --   -0.06058  -0.05415  -0.05272  -0.04696  -0.04497
 Alpha virt. eigenvalues --   -0.03111  -0.02331  -0.02032  -0.01197   0.00316

 Mulliken charges:
               1
     1  N   -0.762577
     2  H    0.407909
     3  H    0.402194
     4  H    0.427448
     5  C   -0.119458
     6  H    0.227548
     7  C    0.647127
     8  C   -0.108074
     9  H    0.200509
    10  O   -0.566456
    11  C   -0.283820
    12  H    0.194719
    13  H    0.106546
    14  C   -0.474797
    15  H    0.124497
    16  H    0.195371
    17  H    0.163981
    18  C   -0.452816
    19  H    0.162775
    20  H    0.170231
    21  H    0.150810
    22  N   -0.592671
    23  H    0.407731
    24  C   -0.076523
    25  H    0.212545
    26  C    0.636103
    27  C   -0.424302
    28  H    0.157112
    29  H    0.197510
    30  O   -0.526271
    31  C    0.181884
    32  C   -0.178567
    33  H    0.127650
    34  C   -0.192056
    35  H    0.145825
    36  C   -0.129729
    37  H    0.140013
    38  C   -0.140091
    39  H    0.136796
    40  C   -0.131239
    41  H    0.138049
    42  N   -0.604351
    43  H    0.357104
    44  C   -0.060598
    45  H    0.171106
    46  C    0.628186
    47  C   -0.087719
    48  H    0.149354
    49  O   -0.553887
    50  C   -0.463922
    51  H    0.174056
    52  H    0.154674
    53  H    0.138181
    54  C   -0.461349
    55  H    0.157690
    56  H    0.144685
    57  H    0.157183
    58  N   -0.609696
    59  H    0.346510
    60  C   -0.030478
    61  H    0.183632
    62  C    0.556836
    63  C   -0.320568
    64  H    0.177133
    65  H    0.175019
    66  O   -0.544985
    67  C   -0.352942
    68  H    0.180531
    69  H    0.180637
    70  C    0.573334
    71  N   -0.739813
    72  H    0.419057
    73  H    0.323949
    74  O   -0.588372
    75  N   -0.592878
    76  H    0.353944
    77  C   -0.086925
    78  H    0.155244
    79  C    0.585637
    80  C   -0.256691
    81  H    0.169251
    82  H    0.134696
    83  O   -0.553886
    84  C   -0.267649
    85  H    0.156967
    86  H    0.169712
    87  C   -0.291588
    88  H    0.165593
    89  H    0.163284
    90  C   -0.206064
    91  H    0.227788
    92  H    0.228104
    93  N   -0.731738
    94  H    0.426761
    95  H    0.425714
    96  H    0.425283
    97  O   -0.634174
 Sum of Mulliken charges =   1.00000

 Dipole moment (field-independent basis, Debye):
    X=              7.8339    Y=              4.0744    Z=             19.9493  Tot=             21.8162
 Quadrupole moment (field-independent basis, Debye-Ang):
   XX=            -90.4072   YY=           -237.3325   ZZ=             24.7264
   XY=             58.3783   XZ=            212.1549   YZ=            102.2758

 Normal termination of Gaussian 16 at Sun Jun 19 17:48:54 2022.
