 Gaussian 16, Revision C.01,
 Gaussian 16:  ES64L-G16RevC.01  3-Jul-2019

 -------------------------------------------------------------------
 # B3LYP/6-31G* guess=read geom=check nosymm integral(ultrafinegrid)
 -------------------------------------------------------------------

 ------------------------------------------------------
 Candidate Structure: Conf:883 Charge calc in gas phase
 ------------------------------------------------------
 Structure from the checkpoint file:  "conf-883.chk"
 Charge =  1 Multiplicity = 1

                          Input orientation:
 ---------------------------------------------------------------------
 Center     Atomic      Atomic             Coordinates (Angstroms)
 Number     Number       Type             X           Y           Z
 ---------------------------------------------------------------------
      1          7           0       -6.522943   -1.344275   -3.843381
      2          1           0       -6.889773   -1.726237   -4.719475
      3          1           0       -7.306221   -1.139844   -3.216966
      4          1           0       -5.861103   -2.054195   -3.408997
      5          6           0       -5.603809   -0.151660   -4.049406
      6          1           0       -5.784656    0.236275   -5.053846
      7          6           0       -4.203073   -0.805508   -3.931042
      8          6           0       -5.907096    0.934636   -2.980003
      9          1           0       -6.974592    1.174572   -3.116239
     10          8           0       -4.135897   -1.920160   -3.393301
     11          6           0       -5.116284    2.239692   -3.220868
     12          1           0       -4.054771    2.054494   -3.019029
     13          1           0       -5.443247    2.939965   -2.443464
     14          6           0       -5.678394    0.427627   -1.544889
     15          1           0       -4.615916    0.242109   -1.360650
     16          1           0       -6.017389    1.188630   -0.835784
     17          1           0       -6.233951   -0.490009   -1.310040
     18          6           0       -5.323285    2.902482   -4.589190
     19          1           0       -4.834342    3.881198   -4.612483
     20          1           0       -4.906879    2.323898   -5.425645
     21          1           0       -6.386938    3.064251   -4.802331
     22          7           0       -3.164188   -0.133720   -4.425593
     23          1           0       -3.317705    0.783158   -4.825511
     24          6           0       -1.784956   -0.514977   -4.127901
     25          1           0       -1.670057   -1.572817   -4.383514
     26          6           0       -1.524134   -0.307012   -2.611402
     27          6           0       -0.811875    0.346935   -4.968601
     28          1           0        0.200472   -0.026167   -4.778681
     29          1           0       -0.840684    1.374162   -4.583523
     30          8           0       -2.222012    0.465769   -1.951232
     31          6           0       -1.117804    0.340036   -6.452412
     32          6           0       -1.652384    1.476419   -7.073723
     33          1           0       -1.801258    2.386117   -6.493960
     34          6           0       -0.890260   -0.805389   -7.228702
     35          1           0       -0.459733   -1.692693   -6.769026
     36          6           0       -1.959647    1.469881   -8.437049
     37          1           0       -2.361129    2.364655   -8.904753
     38          6           0       -1.195564   -0.815153   -8.588931
     39          1           0       -1.004074   -1.707648   -9.178081
     40          6           0       -1.734348    0.322326   -9.196791
     41          1           0       -1.964522    0.315952  -10.258290
     42          7           0       -0.475836   -0.992478   -2.131911
     43          1           0        0.104647   -1.588758   -2.720079
     44          6           0        0.046942   -0.856930   -0.776140
     45          1           0        0.007808    0.202132   -0.496111
     46          6           0        1.514916   -1.327964   -0.877580
     47          6           0       -0.808612   -1.663376    0.250979
     48          1           0       -1.839349   -1.353679    0.036411
     49          8           0        1.879144   -2.014956   -1.838823
     50          6           0       -0.705061   -3.179811    0.040242
     51          1           0        0.301229   -3.550758    0.266519
     52          1           0       -1.405948   -3.701335    0.701241
     53          1           0       -0.943564   -3.462835   -0.990550
     54          6           0       -0.508502   -1.268744    1.704747
     55          1           0        0.487613   -1.586676    2.029923
     56          1           0       -0.585147   -0.184429    1.853064
     57          1           0       -1.233439   -1.742385    2.375738
     58          7           0        2.325769   -0.954997    0.125890
     59          1           0        1.995625   -0.402670    0.913712
     60          6           0        3.700201   -1.416811    0.282637
     61          1           0        3.769200   -2.449795   -0.065802
     62          6           0        3.982724   -1.332326    1.796578
     63          6           0        4.657126   -0.524594   -0.551468
     64          1           0        4.332908   -0.610579   -1.594886
     65          1           0        4.499212    0.515917   -0.244826
     66          8           0        3.335707   -0.555070    2.504495
     67          6           0        6.170759   -0.820990   -0.445159
     68          1           0        6.519237   -0.644455    0.579230
     69          1           0        6.698991   -0.109719   -1.090935
     70          6           0        6.539752   -2.251135   -0.809503
     71          7           0        7.235513   -2.426378   -1.960604
     72          1           0        7.540860   -1.655046   -2.533573
     73          1           0        7.511567   -3.363780   -2.220545
     74          8           0        6.219023   -3.215990   -0.106449
     75          7           0        4.956414   -2.145531    2.249961
     76          1           0        5.486738   -2.676523    1.553020
     77          6           0        5.484202   -2.009770    3.596067
     78          1           0        4.650836   -1.943007    4.299809
     79          6           0        6.324637   -0.741044    3.760116
     80          6           0        6.359221   -3.253002    3.930633
     81          1           0        6.951645   -3.504332    3.040568
     82          1           0        5.673314   -4.091881    4.091974
     83          8           0        6.317429   -0.328506    5.025347
     84          6           0        7.308884   -3.102748    5.142479
     85          1           0        6.821904   -2.494420    5.910172
     86          1           0        7.456598   -4.094651    5.584686
     87          6           0        8.703314   -2.511031    4.787720
     88          1           0        8.663061   -1.991619    3.822719
     89          1           0        9.404907   -3.341062    4.641779
     90          6           0        9.315241   -1.546743    5.823968
     91          1           0        8.988416   -1.815648    6.834819
     92          1           0       10.410713   -1.639477    5.808154
     93          7           0        8.908443   -0.137173    5.585143
     94          1           0        9.328884    0.195474    4.716989
     95          1           0        9.265770    0.461140    6.328978
     96          1           0        7.249888    0.018340    5.258296
     97          8           0        7.010663   -0.257894    2.873208
 ---------------------------------------------------------------------

 SCF Done:  E(RB3LYP) =  -2122.36495098     A.U. after    1 cycles

 Alpha  occ. eigenvalues --  -19.26363 -19.20295 -19.20041 -19.18331 -19.17839
 Alpha  occ. eigenvalues --  -19.17014 -19.16614 -14.59585 -14.49376 -14.43941
 Alpha  occ. eigenvalues --  -14.42281 -14.42048 -14.39804 -14.39541 -10.43026
 Alpha  occ. eigenvalues --  -10.39981 -10.37523 -10.35427 -10.35397 -10.34705
 Alpha  occ. eigenvalues --  -10.34179 -10.33483 -10.33435 -10.30331 -10.29561
 Alpha  occ. eigenvalues --  -10.29542 -10.28804 -10.28755 -10.28693 -10.28579
 Alpha  occ. eigenvalues --  -10.27577 -10.27411 -10.27317 -10.27290 -10.27190
 Alpha  occ. eigenvalues --  -10.27014 -10.26899 -10.26035 -10.25331 -10.24923
 Alpha  occ. eigenvalues --  -10.23939 -10.23384 -10.23351 -10.23255 -10.22919
 Alpha  occ. eigenvalues --   -1.18883  -1.13495  -1.12194  -1.12052  -1.10177
 Alpha  occ. eigenvalues --   -1.09414  -1.08272  -1.05903  -1.03630  -1.00528
 Alpha  occ. eigenvalues --   -0.98614  -0.97066  -0.96616  -0.95026  -0.94747
 Alpha  occ. eigenvalues --   -0.94010  -0.89498  -0.87034  -0.86260  -0.85367
 Alpha  occ. eigenvalues --   -0.84251  -0.83971  -0.82742  -0.82370  -0.80187
 Alpha  occ. eigenvalues --   -0.79044  -0.76872  -0.75887  -0.74680  -0.74399
 Alpha  occ. eigenvalues --   -0.73849  -0.73726  -0.73310  -0.72153  -0.69972
 Alpha  occ. eigenvalues --   -0.68873  -0.67865  -0.67766  -0.67595  -0.67148
 Alpha  occ. eigenvalues --   -0.66072  -0.64988  -0.64817  -0.63814  -0.63148
 Alpha  occ. eigenvalues --   -0.62273  -0.61893  -0.61418  -0.61279  -0.60056
 Alpha  occ. eigenvalues --   -0.59673  -0.59498  -0.58619  -0.57296  -0.55702
 Alpha  occ. eigenvalues --   -0.55472  -0.55045  -0.54779  -0.54435  -0.54204
 Alpha  occ. eigenvalues --   -0.54031  -0.53903  -0.53792  -0.53381  -0.52987
 Alpha  occ. eigenvalues --   -0.52536  -0.52195  -0.51798  -0.51437  -0.51314
 Alpha  occ. eigenvalues --   -0.50922  -0.50594  -0.50295  -0.50039  -0.49781
 Alpha  occ. eigenvalues --   -0.49614  -0.48729  -0.48519  -0.48494  -0.48089
 Alpha  occ. eigenvalues --   -0.47711  -0.47543  -0.47266  -0.47117  -0.46318
 Alpha  occ. eigenvalues --   -0.46027  -0.45793  -0.45723  -0.45297  -0.45285
 Alpha  occ. eigenvalues --   -0.44882  -0.44737  -0.44377  -0.44107  -0.43932
 Alpha  occ. eigenvalues --   -0.43600  -0.43286  -0.42506  -0.42353  -0.42296
 Alpha  occ. eigenvalues --   -0.41840  -0.41633  -0.41017  -0.40668  -0.40589
 Alpha  occ. eigenvalues --   -0.40161  -0.39885  -0.39697  -0.39588  -0.39079
 Alpha  occ. eigenvalues --   -0.38015  -0.37887  -0.37536  -0.34416  -0.33686
 Alpha  occ. eigenvalues --   -0.33660  -0.33398  -0.33225  -0.32716  -0.32439
 Alpha  occ. eigenvalues --   -0.31944  -0.31791  -0.31564  -0.31102  -0.30233
 Alpha  occ. eigenvalues --   -0.29139
 Alpha virt. eigenvalues --   -0.11971  -0.10718  -0.09161  -0.08769  -0.06437
 Alpha virt. eigenvalues --   -0.06102  -0.05281  -0.04213  -0.03657  -0.02900
 Alpha virt. eigenvalues --   -0.02279  -0.01556  -0.00773  -0.00012   0.00665

 Mulliken charges:
               1
     1  N   -0.759736
     2  H    0.414863
     3  H    0.412397
     4  H    0.435040
     5  C   -0.125316
     6  H    0.209044
     7  C    0.677114
     8  C   -0.103684
     9  H    0.146982
    10  O   -0.544783
    11  C   -0.291817
    12  H    0.188543
    13  H    0.174805
    14  C   -0.495532
    15  H    0.231047
    16  H    0.186027
    17  H    0.125912
    18  C   -0.479283
    19  H    0.185969
    20  H    0.133819
    21  H    0.162802
    22  N   -0.588320
    23  H    0.361387
    24  C   -0.053714
    25  H    0.190699
    26  C    0.647642
    27  C   -0.412179
    28  H    0.191858
    29  H    0.172155
    30  O   -0.547637
    31  C    0.181614
    32  C   -0.214770
    33  H    0.130594
    34  C   -0.182406
    35  H    0.137536
    36  C   -0.128219
    37  H    0.147235
    38  C   -0.128239
    39  H    0.150928
    40  C   -0.129326
    41  H    0.150992
    42  N   -0.615727
    43  H    0.360428
    44  C   -0.050697
    45  H    0.172109
    46  C    0.626077
    47  C   -0.071555
    48  H    0.151122
    49  O   -0.559544
    50  C   -0.456385
    51  H    0.162052
    52  H    0.150803
    53  H    0.146050
    54  C   -0.473409
    55  H    0.169333
    56  H    0.150139
    57  H    0.155805
    58  N   -0.621209
    59  H    0.364682
    60  C   -0.058206
    61  H    0.195826
    62  C    0.609904
    63  C   -0.264328
    64  H    0.165179
    65  H    0.162153
    66  O   -0.553251
    67  C   -0.403550
    68  H    0.232419
    69  H    0.140884
    70  C    0.618715
    71  N   -0.735437
    72  H    0.347604
    73  H    0.351764
    74  O   -0.532538
    75  N   -0.637903
    76  H    0.396429
    77  C   -0.016781
    78  H    0.184608
    79  C    0.597927
    80  C   -0.306716
    81  H    0.157474
    82  H    0.159864
    83  O   -0.595933
    84  C   -0.283946
    85  H    0.171548
    86  H    0.144414
    87  C   -0.288091
    88  H    0.162410
    89  H    0.147863
    90  C   -0.142444
    91  H    0.161424
    92  H    0.143045
    93  N   -0.770273
    94  H    0.335203
    95  H    0.328357
    96  H    0.452937
    97  O   -0.500673
 Sum of Mulliken charges =   1.00000

 Dipole moment (field-independent basis, Debye):
    X=            -11.9093    Y=             -2.5882    Z=            -17.1721  Tot=             21.0573
 Quadrupole moment (field-independent basis, Debye-Ang):
   XX=              3.2982   YY=           -252.8507   ZZ=           -134.1034
   XY=             -2.7716   XZ=            122.8772   YZ=             -1.3502

 Normal termination of Gaussian 16 at Sun Jun 19 17:47:50 2022.
