 Gaussian 16, Revision C.01,
 Gaussian 16:  ES64L-G16RevC.01  3-Jul-2019

 -------------------------------------------------------------------
 # B3LYP/6-31G* guess=read geom=check nosymm integral(ultrafinegrid)
 -------------------------------------------------------------------

 ------------------------------------------------------
 Candidate Structure: Conf:879 Charge calc in gas phase
 ------------------------------------------------------
 Structure from the checkpoint file:  "conf-879.chk"
 Charge =  1 Multiplicity = 1

                          Input orientation:
 ---------------------------------------------------------------------
 Center     Atomic      Atomic             Coordinates (Angstroms)
 Number     Number       Type             X           Y           Z
 ---------------------------------------------------------------------
      1          7           0       -6.099753   -3.233301   -4.855771
      2          1           0       -6.006685   -3.033257   -5.855914
      3          1           0       -7.071672   -3.485056   -4.656582
      4          1           0       -5.432204   -4.023477   -4.612210
      5          6           0       -5.579332   -2.104364   -3.981482
      6          1           0       -5.547749   -1.202421   -4.594738
      7          6           0       -4.147755   -2.604824   -3.645385
      8          6           0       -6.513536   -1.899583   -2.759338
      9          1           0       -7.517240   -1.742010   -3.186484
     10          8           0       -3.915561   -3.812264   -3.805930
     11          6           0       -6.170919   -0.620647   -1.960710
     12          1           0       -5.191774   -0.726978   -1.477563
     13          1           0       -6.897512   -0.569268   -1.141470
     14          6           0       -6.555985   -3.131251   -1.839129
     15          1           0       -5.587940   -3.305822   -1.358509
     16          1           0       -7.296657   -2.973421   -1.050026
     17          1           0       -6.836634   -4.055992   -2.358875
     18          6           0       -6.232015    0.690774   -2.753851
     19          1           0       -6.097223    1.542232   -2.080802
     20          1           0       -5.447593    0.770767   -3.517526
     21          1           0       -7.199911    0.814382   -3.254360
     22          7           0       -3.277682   -1.693561   -3.220737
     23          1           0       -3.571559   -0.752223   -2.961249
     24          6           0       -1.908740   -1.983840   -2.805376
     25          1           0       -1.851190   -3.040238   -2.529436
     26          6           0       -1.656968   -1.062415   -1.589869
     27          6           0       -0.888604   -1.671090   -3.939857
     28          1           0        0.107878   -1.948748   -3.575672
     29          1           0       -0.876577   -0.585459   -4.092304
     30          8           0       -2.396836   -0.092535   -1.403867
     31          6           0       -1.189384   -2.372908   -5.246815
     32          6           0       -1.832002   -1.689621   -6.287838
     33          1           0       -2.079135   -0.637115   -6.164771
     34          6           0       -0.844656   -3.717417   -5.439699
     35          1           0       -0.335398   -4.262221   -4.647634
     36          6           0       -2.126874   -2.333768   -7.492005
     37          1           0       -2.602492   -1.781166   -8.298322
     38          6           0       -1.138062   -4.364729   -6.639313
     39          1           0       -0.854121   -5.404513   -6.774831
     40          6           0       -1.782033   -3.674661   -7.669419
     41          1           0       -1.995897   -4.174496   -8.610066
     42          7           0       -0.599616   -1.379679   -0.821605
     43          1           0        0.023938   -2.134899   -1.088457
     44          6           0       -0.064746   -0.511934    0.233140
     45          1           0       -0.512852    0.476414    0.098321
     46          6           0        1.452618   -0.464097   -0.013627
     47          6           0       -0.399425   -1.033825    1.658419
     48          1           0        0.061835   -2.029683    1.745023
     49          8           0        2.040092   -1.524130   -0.336333
     50          6           0        0.201874   -0.117648    2.737295
     51          1           0       -0.169700    0.909574    2.633784
     52          1           0       -0.087465   -0.474635    3.731723
     53          1           0        1.294210   -0.081519    2.693395
     54          6           0       -1.914984   -1.185046    1.848340
     55          1           0       -2.421933   -0.218843    1.744617
     56          1           0       -2.352693   -1.876657    1.121242
     57          1           0       -2.129973   -1.572315    2.850132
     58          7           0        2.022405    0.732229    0.091049
     59          1           0        1.498980    1.543234    0.449721
     60          6           0        3.448190    0.981685   -0.072979
     61          1           0        3.785510    0.328582   -0.887590
     62          6           0        4.238041    0.533144    1.183262
     63          6           0        3.684367    2.449763   -0.515230
     64          1           0        4.635726    2.490635   -1.055982
     65          1           0        2.907466    2.692188   -1.249022
     66          8           0        3.678240   -0.175399    2.058563
     67          6           0        3.752149    3.539630    0.568702
     68          1           0        3.905261    4.499893    0.056644
     69          1           0        4.653730    3.410441    1.184505
     70          6           0        2.520447    3.701489    1.447295
     71          7           0        2.680927    4.552991    2.485875
     72          1           0        3.579562    4.954556    2.713899
     73          1           0        1.908170    4.700617    3.120176
     74          8           0        1.432758    3.144624    1.237141
     75          7           0        5.519449    0.868256    1.200523
     76          1           0        5.865403    1.705434    0.676835
     77          6           0        6.390880    0.806770    2.382487
     78          1           0        5.759790    0.754759    3.276590
     79          6           0        7.155940    2.199171    2.382380
     80          6           0        7.368159   -0.373999    2.392386
     81          1           0        8.010518   -0.207676    3.262284
     82          1           0        8.023756   -0.322853    1.512008
     83          8           0        7.955618    2.368749    3.304490
     84          6           0        6.703504   -1.762250    2.476069
     85          1           0        7.391084   -2.481074    2.940834
     86          1           0        5.840699   -1.690629    3.153421
     87          6           0        6.268494   -2.335670    1.107787
     88          1           0        7.127968   -2.809572    0.618951
     89          1           0        5.948266   -1.533454    0.433403
     90          6           0        5.159863   -3.384825    1.207134
     91          1           0        5.052990   -3.968891    0.289316
     92          1           0        5.348386   -4.076099    2.033377
     93          7           0        3.819928   -2.732800    1.471749
     94          1           0        3.187375   -3.344098    1.992375
     95          1           0        3.312305   -2.430869    0.611632
     96          1           0        3.904027   -1.807812    1.984951
     97          8           0        6.828212    2.960496    1.411924
 ---------------------------------------------------------------------

 SCF Done:  E(RB3LYP) =  -2122.32775000     A.U. after    2 cycles

 Alpha  occ. eigenvalues --  -19.27209 -19.22804 -19.21507 -19.19031 -19.18694
 Alpha  occ. eigenvalues --  -19.09454 -19.07991 -14.60489 -14.51815 -14.50071
 Alpha  occ. eigenvalues --  -14.46688 -14.43955 -14.42066 -14.40287 -10.44077
 Alpha  occ. eigenvalues --  -10.40914 -10.39966 -10.38043 -10.35943 -10.35654
 Alpha  occ. eigenvalues --  -10.35371 -10.34817 -10.33613 -10.32216 -10.31065
 Alpha  occ. eigenvalues --  -10.30945 -10.30836 -10.30484 -10.29360 -10.29126
 Alpha  occ. eigenvalues --  -10.28439 -10.28294 -10.28224 -10.28075 -10.28022
 Alpha  occ. eigenvalues --  -10.27920 -10.26981 -10.26926 -10.26544 -10.25203
 Alpha  occ. eigenvalues --  -10.25006 -10.24601 -10.24277 -10.24043 -10.22097
 Alpha  occ. eigenvalues --   -1.19738  -1.14882  -1.14175  -1.12569  -1.10016
 Alpha  occ. eigenvalues --   -1.09877  -1.06868  -1.06752  -1.02994  -1.02307
 Alpha  occ. eigenvalues --   -1.00944  -0.97252  -0.96888  -0.95945  -0.94946
 Alpha  occ. eigenvalues --   -0.93401  -0.90726  -0.88700  -0.87464  -0.87193
 Alpha  occ. eigenvalues --   -0.86329  -0.85261  -0.83752  -0.83610  -0.81778
 Alpha  occ. eigenvalues --   -0.80915  -0.78424  -0.77348  -0.76426  -0.75637
 Alpha  occ. eigenvalues --   -0.75344  -0.74719  -0.74060  -0.72393  -0.71578
 Alpha  occ. eigenvalues --   -0.70363  -0.69784  -0.69264  -0.69072  -0.68198
 Alpha  occ. eigenvalues --   -0.67735  -0.66877  -0.66409  -0.65377  -0.65214
 Alpha  occ. eigenvalues --   -0.64071  -0.63508  -0.63012  -0.62213  -0.61651
 Alpha  occ. eigenvalues --   -0.60974  -0.60380  -0.59859  -0.59716  -0.58894
 Alpha  occ. eigenvalues --   -0.58474  -0.57366  -0.56958  -0.56252  -0.55773
 Alpha  occ. eigenvalues --   -0.55605  -0.55339  -0.54888  -0.54658  -0.54294
 Alpha  occ. eigenvalues --   -0.53963  -0.53659  -0.53481  -0.52671  -0.52440
 Alpha  occ. eigenvalues --   -0.52266  -0.51882  -0.51291  -0.51141  -0.50975
 Alpha  occ. eigenvalues --   -0.50695  -0.50133  -0.49872  -0.49746  -0.49215
 Alpha  occ. eigenvalues --   -0.49019  -0.48837  -0.48403  -0.48088  -0.47616
 Alpha  occ. eigenvalues --   -0.47217  -0.47126  -0.46586  -0.46457  -0.46218
 Alpha  occ. eigenvalues --   -0.45768  -0.45554  -0.45304  -0.45169  -0.45074
 Alpha  occ. eigenvalues --   -0.44411  -0.43666  -0.43585  -0.43492  -0.43246
 Alpha  occ. eigenvalues --   -0.42715  -0.42055  -0.41831  -0.41723  -0.41253
 Alpha  occ. eigenvalues --   -0.41026  -0.40529  -0.39814  -0.39755  -0.38932
 Alpha  occ. eigenvalues --   -0.38498  -0.37892  -0.37206  -0.36597  -0.36310
 Alpha  occ. eigenvalues --   -0.35145  -0.34730  -0.34251  -0.33676  -0.33458
 Alpha  occ. eigenvalues --   -0.32927  -0.32345  -0.31539  -0.24433  -0.24264
 Alpha  occ. eigenvalues --   -0.22041
 Alpha virt. eigenvalues --   -0.12881  -0.11607  -0.10221  -0.09393  -0.08309
 Alpha virt. eigenvalues --   -0.07220  -0.06898  -0.05949  -0.05687  -0.04602
 Alpha virt. eigenvalues --   -0.03801  -0.02228  -0.01711  -0.01164  -0.00315

 Mulliken charges:
               1
     1  N   -0.759131
     2  H    0.418525
     3  H    0.411156
     4  H    0.435354
     5  C   -0.115352
     6  H    0.212383
     7  C    0.666189
     8  C   -0.109754
     9  H    0.152649
    10  O   -0.542887
    11  C   -0.288619
    12  H    0.175567
    13  H    0.175828
    14  C   -0.472948
    15  H    0.184469
    16  H    0.193293
    17  H    0.139396
    18  C   -0.469228
    19  H    0.194222
    20  H    0.140224
    21  H    0.160477
    22  N   -0.603064
    23  H    0.381238
    24  C   -0.080310
    25  H    0.194176
    26  C    0.640146
    27  C   -0.368683
    28  H    0.174080
    29  H    0.172752
    30  O   -0.541401
    31  C    0.181653
    32  C   -0.202516
    33  H    0.128636
    34  C   -0.164267
    35  H    0.130611
    36  C   -0.145075
    37  H    0.142359
    38  C   -0.128624
    39  H    0.150498
    40  C   -0.134959
    41  H    0.149067
    42  N   -0.609908
    43  H    0.348237
    44  C   -0.054155
    45  H    0.192664
    46  C    0.638412
    47  C   -0.069171
    48  H    0.111048
    49  O   -0.627846
    50  C   -0.494436
    51  H    0.164651
    52  H    0.151797
    53  H    0.193672
    54  C   -0.444626
    55  H    0.162038
    56  H    0.132689
    57  H    0.156162
    58  N   -0.597894
    59  H    0.413266
    60  C   -0.068603
    61  H    0.180387
    62  C    0.599192
    63  C   -0.317527
    64  H    0.181875
    65  H    0.163263
    66  O   -0.607596
    67  C   -0.404938
    68  H    0.189339
    69  H    0.228969
    70  C    0.612017
    71  N   -0.728450
    72  H    0.368902
    73  H    0.351030
    74  O   -0.560043
    75  N   -0.575585
    76  H    0.370711
    77  C   -0.090303
    78  H    0.156611
    79  C    0.591075
    80  C   -0.263778
    81  H    0.185993
    82  H    0.140566
    83  O   -0.551152
    84  C   -0.279407
    85  H    0.148539
    86  H    0.134513
    87  C   -0.289412
    88  H    0.173369
    89  H    0.170200
    90  C   -0.177499
    91  H    0.185581
    92  H    0.190968
    93  N   -0.799469
    94  H    0.380711
    95  H    0.431137
    96  H    0.451881
    97  O   -0.617795
 Sum of Mulliken charges =   1.00000

 Dipole moment (field-independent basis, Debye):
    X=            -26.6592    Y=            -19.1982    Z=            -18.8604  Tot=             37.8813
 Quadrupole moment (field-independent basis, Debye-Ang):
   XX=           -191.8264   YY=           -206.7927   ZZ=           -173.6899
   XY=             -6.1764   XZ=             74.1552   YZ=             33.0937

 Normal termination of Gaussian 16 at Sun Jun 19 17:48:19 2022.
