 Gaussian 16, Revision C.01,
 Gaussian 16:  ES64L-G16RevC.01  3-Jul-2019

 -------------------------------------------------------------------
 # B3LYP/6-31G* guess=read geom=check nosymm integral(ultrafinegrid)
 -------------------------------------------------------------------

 ------------------------------------------------------
 Candidate Structure: Conf:121 Charge calc in gas phase
 ------------------------------------------------------
 Structure from the checkpoint file:  "conf-121.chk"
 Charge =  1 Multiplicity = 1

                          Input orientation:
 ---------------------------------------------------------------------
 Center     Atomic      Atomic             Coordinates (Angstroms)
 Number     Number       Type             X           Y           Z
 ---------------------------------------------------------------------
      1          7           0       -4.151072   -1.160323   -6.422417
      2          1           0       -3.525881   -0.366760   -6.656876
      3          1           0       -4.950175   -1.184724   -7.061547
      4          1           0       -3.561530   -2.017979   -6.500166
      5          6           0       -4.542195   -1.115709   -4.956768
      6          1           0       -4.713550   -0.066684   -4.710471
      7          6           0       -3.245204   -1.642357   -4.295537
      8          6           0       -5.818474   -1.950722   -4.698239
      9          1           0       -6.602522   -1.502431   -5.330199
     10          8           0       -2.582149   -2.469842   -4.932114
     11          6           0       -6.284075   -1.808644   -3.230875
     12          1           0       -5.513305   -2.215320   -2.563232
     13          1           0       -7.155526   -2.462823   -3.112859
     14          6           0       -5.662906   -3.430415   -5.088009
     15          1           0       -4.899008   -3.930073   -4.485104
     16          1           0       -6.612966   -3.949178   -4.930202
     17          1           0       -5.396826   -3.571991   -6.142808
     18          6           0       -6.671402   -0.390464   -2.793114
     19          1           0       -7.088467   -0.408209   -1.781964
     20          1           0       -5.820697    0.302275   -2.767351
     21          1           0       -7.431304    0.039782   -3.456403
     22          7           0       -2.897210   -1.117995   -3.117739
     23          1           0       -3.491238   -0.465430   -2.612442
     24          6           0       -1.547398   -1.234086   -2.571781
     25          1           0       -1.138168   -2.197780   -2.881223
     26          6           0       -1.696320   -1.103347   -1.045965
     27          6           0       -0.644257   -0.056201   -3.085130
     28          1           0        0.397976   -0.267368   -2.821922
     29          1           0       -0.946855    0.841921   -2.534595
     30          8           0       -2.533309   -0.319122   -0.598351
     31          6           0       -0.758386    0.203360   -4.572222
     32          6           0        0.058295   -0.470885   -5.491760
     33          1           0        0.832098   -1.138583   -5.124143
     34          6           0       -1.708494    1.110244   -5.065810
     35          1           0       -2.307865    1.689234   -4.366009
     36          6           0       -0.097525   -0.278131   -6.864564
     37          1           0        0.548530   -0.807665   -7.558896
     38          6           0       -1.866875    1.314775   -6.443969
     39          1           0       -2.565212    2.068442   -6.803503
     40          6           0       -1.065417    0.607464   -7.349210
     41          1           0       -1.163957    0.778761   -8.418011
     42          7           0       -0.844255   -1.841994   -0.306211
     43          1           0       -0.148970   -2.415301   -0.774079
     44          6           0       -0.522870   -1.567290    1.105259
     45          1           0       -1.090258   -0.676564    1.391050
     46          6           0        0.992612   -1.297184    1.041399
     47          6           0       -0.872721   -2.743693    2.040205
     48          1           0       -0.280691   -3.603449    1.698672
     49          8           0        1.733058   -2.165402    0.573786
     50          6           0       -0.456728   -2.415307    3.482308
     51          1           0       -1.000660   -1.540808    3.862227
     52          1           0       -0.682529   -3.257264    4.144796
     53          1           0        0.616140   -2.209498    3.563149
     54          6           0       -2.362609   -3.098621    1.958520
     55          1           0       -2.988216   -2.258768    2.285166
     56          1           0       -2.659791   -3.363002    0.938539
     57          1           0       -2.585507   -3.953828    2.605705
     58          7           0        1.421286   -0.063100    1.381174
     59          1           0        0.794389    0.656185    1.729354
     60          6           0        2.723441    0.427417    0.945274
     61          1           0        3.490918   -0.302357    1.224728
     62          6           0        2.945890    1.768738    1.659172
     63          6           0        2.698288    0.603832   -0.595308
     64          1           0        2.230994   -0.291232   -1.008822
     65          1           0        2.047456    1.453282   -0.836205
     66          8           0        1.991313    2.423160    2.078339
     67          6           0        4.048537    0.757538   -1.293697
     68          1           0        4.718024   -0.063659   -0.996691
     69          1           0        4.560252    1.689872   -1.028194
     70          6           0        3.874297    0.669408   -2.814350
     71          7           0        4.892478    1.207562   -3.537869
     72          1           0        5.703808    1.622787   -3.104310
     73          1           0        4.869013    1.127212   -4.544827
     74          8           0        2.900390    0.142126   -3.346220
     75          7           0        4.232184    2.178435    1.740485
     76          1           0        4.967751    1.655509    1.277830
     77          6           0        4.607497    3.529471    2.133722
     78          1           0        3.807516    4.213736    1.830194
     79          6           0        5.894679    3.874056    1.395571
     80          6           0        4.800396    3.689360    3.665783
     81          1           0        3.887772    3.289021    4.120183
     82          1           0        4.818533    4.761615    3.888944
     83          8           0        6.321061    5.095642    1.663199
     84          6           0        6.031144    3.006778    4.309769
     85          1           0        5.756241    2.800246    5.350262
     86          1           0        6.194686    2.019169    3.856400
     87          6           0        7.365304    3.812154    4.338271
     88          1           0        7.813913    3.671928    5.327718
     89          1           0        7.137753    4.882585    4.265100
     90          6           0        8.443451    3.452646    3.279763
     91          1           0        9.346694    3.081968    3.782413
     92          1           0        8.092879    2.653191    2.622793
     93          7           0        8.776438    4.603287    2.395044
     94          1           0        9.461691    4.315393    1.697219
     95          1           0        9.210516    5.349408    2.938879
     96          1           0        7.356283    5.057843    1.710626
     97          8           0        6.501576    3.048940    0.721885
 ---------------------------------------------------------------------

 SCF Done:  E(RB3LYP) =  -2122.35765635     A.U. after    2 cycles

 Alpha  occ. eigenvalues --  -19.24814 -19.22131 -19.20614 -19.19583 -19.18406
 Alpha  occ. eigenvalues --  -19.18326 -19.18219 -14.58591 -14.48319 -14.44887
 Alpha  occ. eigenvalues --  -14.42831 -14.42452 -14.42423 -14.41343 -10.42055
 Alpha  occ. eigenvalues --  -10.39001 -10.37931 -10.37285 -10.35915 -10.35564
 Alpha  occ. eigenvalues --  -10.35483 -10.33841 -10.33113 -10.30437 -10.30296
 Alpha  occ. eigenvalues --  -10.29642 -10.29431 -10.29401 -10.29395 -10.29206
 Alpha  occ. eigenvalues --  -10.29138 -10.29130 -10.28528 -10.28498 -10.28204
 Alpha  occ. eigenvalues --  -10.28015 -10.27928 -10.26438 -10.25835 -10.25671
 Alpha  occ. eigenvalues --  -10.24642 -10.24529 -10.24499 -10.23516 -10.23465
 Alpha  occ. eigenvalues --   -1.17554  -1.14679  -1.12812  -1.12302  -1.10764
 Alpha  occ. eigenvalues --   -1.09949  -1.09779  -1.06116  -1.04813  -1.01088
 Alpha  occ. eigenvalues --   -0.99304  -0.98991  -0.97078  -0.96588  -0.95350
 Alpha  occ. eigenvalues --   -0.94203  -0.89168  -0.87406  -0.86503  -0.85993
 Alpha  occ. eigenvalues --   -0.85340  -0.84195  -0.84048  -0.82561  -0.81679
 Alpha  occ. eigenvalues --   -0.79829  -0.77429  -0.75981  -0.75382  -0.74809
 Alpha  occ. eigenvalues --   -0.74391  -0.73224  -0.71806  -0.71023  -0.70538
 Alpha  occ. eigenvalues --   -0.70095  -0.69178  -0.68206  -0.67776  -0.67556
 Alpha  occ. eigenvalues --   -0.66736  -0.65613  -0.65352  -0.65121  -0.64202
 Alpha  occ. eigenvalues --   -0.63724  -0.62647  -0.61621  -0.60801  -0.60668
 Alpha  occ. eigenvalues --   -0.60344  -0.59145  -0.58228  -0.57601  -0.56747
 Alpha  occ. eigenvalues --   -0.56326  -0.55739  -0.55535  -0.55488  -0.54905
 Alpha  occ. eigenvalues --   -0.54660  -0.54386  -0.54219  -0.54157  -0.53523
 Alpha  occ. eigenvalues --   -0.53206  -0.52996  -0.52861  -0.52522  -0.52059
 Alpha  occ. eigenvalues --   -0.51551  -0.51408  -0.51129  -0.51010  -0.50464
 Alpha  occ. eigenvalues --   -0.49898  -0.49585  -0.49234  -0.48924  -0.48682
 Alpha  occ. eigenvalues --   -0.48320  -0.48101  -0.47502  -0.47432  -0.46927
 Alpha  occ. eigenvalues --   -0.46781  -0.46445  -0.46188  -0.46057  -0.45679
 Alpha  occ. eigenvalues --   -0.45393  -0.45094  -0.44986  -0.44521  -0.44427
 Alpha  occ. eigenvalues --   -0.44228  -0.44150  -0.43937  -0.43430  -0.43276
 Alpha  occ. eigenvalues --   -0.42971  -0.42961  -0.42221  -0.41619  -0.41227
 Alpha  occ. eigenvalues --   -0.40316  -0.40019  -0.39359  -0.39321  -0.39229
 Alpha  occ. eigenvalues --   -0.39158  -0.38384  -0.37926  -0.36202  -0.35094
 Alpha  occ. eigenvalues --   -0.34840  -0.34748  -0.33867  -0.33688  -0.33510
 Alpha  occ. eigenvalues --   -0.33219  -0.33068  -0.32104  -0.31869  -0.31701
 Alpha  occ. eigenvalues --   -0.31342
 Alpha virt. eigenvalues --   -0.11850  -0.10775  -0.10424  -0.08517  -0.07232
 Alpha virt. eigenvalues --   -0.05221  -0.04771  -0.04679  -0.03815  -0.03645
 Alpha virt. eigenvalues --   -0.03391  -0.01049   0.00114   0.00340   0.00565

 Mulliken charges:
               1
     1  N   -0.759531
     2  H    0.410581
     3  H    0.402995
     4  H    0.427631
     5  C   -0.115415
     6  H    0.198926
     7  C    0.673343
     8  C   -0.102145
     9  H    0.146580
    10  O   -0.542710
    11  C   -0.275466
    12  H    0.164173
    13  H    0.173162
    14  C   -0.470973
    15  H    0.191121
    16  H    0.186046
    17  H    0.135626
    18  C   -0.467691
    19  H    0.188635
    20  H    0.139714
    21  H    0.160721
    22  N   -0.608685
    23  H    0.366809
    24  C   -0.067992
    25  H    0.192872
    26  C    0.626782
    27  C   -0.391620
    28  H    0.221910
    29  H    0.174577
    30  O   -0.537513
    31  C    0.174462
    32  C   -0.144943
    33  H    0.173095
    34  C   -0.201289
    35  H    0.139642
    36  C   -0.130298
    37  H    0.158311
    38  C   -0.208090
    39  H    0.150583
    40  C   -0.147003
    41  H    0.153499
    42  N   -0.606693
    43  H    0.353889
    44  C   -0.043958
    45  H    0.172429
    46  C    0.618616
    47  C   -0.076861
    48  H    0.150644
    49  O   -0.547789
    50  C   -0.464024
    51  H    0.147392
    52  H    0.161719
    53  H    0.161875
    54  C   -0.448173
    55  H    0.151970
    56  H    0.142554
    57  H    0.156017
    58  N   -0.613350
    59  H    0.357195
    60  C   -0.050579
    61  H    0.176614
    62  C    0.617258
    63  C   -0.271626
    64  H    0.190705
    65  H    0.153288
    66  O   -0.537415
    67  C   -0.399369
    68  H    0.181230
    69  H    0.171817
    70  C    0.613444
    71  N   -0.746277
    72  H    0.351273
    73  H    0.346200
    74  O   -0.525875
    75  N   -0.612400
    76  H    0.352378
    77  C   -0.048595
    78  H    0.193010
    79  C    0.606232
    80  C   -0.261555
    81  H    0.169157
    82  H    0.162654
    83  O   -0.603950
    84  C   -0.286989
    85  H    0.153529
    86  H    0.141669
    87  C   -0.282439
    88  H    0.152160
    89  H    0.158583
    90  C   -0.159803
    91  H    0.151136
    92  H    0.178965
    93  N   -0.775291
    94  H    0.336460
    95  H    0.331305
    96  H    0.458169
    97  O   -0.518956
 Sum of Mulliken charges =   1.00000

 Dipole moment (field-independent basis, Debye):
    X=             -4.4057    Y=              0.4973    Z=            -18.2586  Tot=             18.7892
 Quadrupole moment (field-independent basis, Debye-Ang):
   XX=            -71.8241   YY=           -249.5991   ZZ=           -104.2732
   XY=             66.2698   XZ=            115.1576   YZ=             23.9648

 Normal termination of Gaussian 16 at Sun Jun 19 17:48:17 2022.
