 Gaussian 16, Revision C.01,
 Gaussian 16:  ES64L-G16RevC.01  3-Jul-2019

 -------------------------------------------------------------------
 # B3LYP/6-31G* guess=read geom=check nosymm integral(ultrafinegrid)
 -------------------------------------------------------------------

 ------------------------------------------------------
 Candidate Structure: Conf:578 Charge calc in gas phase
 ------------------------------------------------------
 Structure from the checkpoint file:  "conf-578.chk"
 Charge =  1 Multiplicity = 1

                          Input orientation:
 ---------------------------------------------------------------------
 Center     Atomic      Atomic             Coordinates (Angstroms)
 Number     Number       Type             X           Y           Z
 ---------------------------------------------------------------------
      1          7           0       -6.406045   -1.783962   -5.367003
      2          1           0       -6.790770   -0.998993   -5.899213
      3          1           0       -7.093072   -2.542486   -5.357873
      4          1           0       -5.489106   -2.099591   -5.818561
      5          6           0       -5.932668   -1.391072   -3.977335
      6          1           0       -6.312511   -0.388621   -3.772063
      7          6           0       -4.387674   -1.375034   -4.162813
      8          6           0       -6.467143   -2.398651   -2.924507
      9          1           0       -7.556187   -2.435998   -3.089048
     10          8           0       -3.934822   -1.895439   -5.198424
     11          6           0       -6.264149   -1.911508   -1.471407
     12          1           0       -5.195860   -1.894814   -1.223870
     13          1           0       -6.701759   -2.684127   -0.828272
     14          6           0       -5.888521   -3.810081   -3.121288
     15          1           0       -4.812539   -3.831622   -2.919373
     16          1           0       -6.371446   -4.506005   -2.429367
     17          1           0       -6.040814   -4.208731   -4.132328
     18          6           0       -6.908820   -0.562494   -1.129926
     19          1           0       -6.826626   -0.368692   -0.056599
     20          1           0       -6.428324    0.284261   -1.636116
     21          1           0       -7.974718   -0.548445   -1.387668
     22          7           0       -3.667759   -0.814444   -3.203874
     23          1           0       -4.077496   -0.422540   -2.353133
     24          6           0       -2.203727   -0.761820   -3.173417
     25          1           0       -1.810807   -1.710969   -3.548821
     26          6           0       -1.874275   -0.589083   -1.672737
     27          6           0       -1.676157    0.401306   -4.061016
     28          1           0       -2.057230    1.344117   -3.651818
     29          1           0       -2.133781    0.265576   -5.048534
     30          8           0       -2.754794   -0.174317   -0.904595
     31          6           0       -0.168280    0.452816   -4.189858
     32          6           0        0.561108    1.520721   -3.650250
     33          1           0        0.034139    2.322290   -3.135991
     34          6           0        0.523830   -0.563780   -4.865469
     35          1           0       -0.028176   -1.387449   -5.316003
     36          6           0        1.949988    1.572062   -3.779131
     37          1           0        2.523098    2.398358   -3.370588
     38          6           0        1.913992   -0.518750   -4.985455
     39          1           0        2.434468   -1.314379   -5.511534
     40          6           0        2.630680    0.548212   -4.440461
     41          1           0        3.711519    0.606311   -4.515627
     42          7           0       -0.631661   -0.912849   -1.297486
     43          1           0        0.075739   -1.188551   -1.977321
     44          6           0       -0.116250   -0.712845    0.056063
     45          1           0       -0.487823    0.250334    0.425247
     46          6           0        1.414759   -0.670371   -0.112130
     47          6           0       -0.604678   -1.825369    1.034072
     48          1           0       -1.695577   -1.828850    0.917027
     49          8           0        1.948112   -1.247015   -1.060382
     50          6           0       -0.068917   -3.215495    0.666858
     51          1           0        1.017201   -3.278622    0.796362
     52          1           0       -0.526909   -3.977174    1.307410
     53          1           0       -0.292724   -3.472213   -0.373648
     54          6           0       -0.299301   -1.469547    2.496250
     55          1           0        0.777887   -1.466408    2.697778
     56          1           0       -0.703813   -0.484981    2.764382
     57          1           0       -0.756186   -2.205419    3.166557
     58          7           0        2.116330    0.015151    0.817069
     59          1           0        1.669285    0.511674    1.577538
     60          6           0        3.560346    0.166591    0.703760
     61          1           0        3.985441   -0.816796    0.477662
     62          6           0        4.095818    0.671077    2.047312
     63          6           0        3.969201    1.164137   -0.429570
     64          1           0        3.125344    1.264701   -1.114993
     65          1           0        4.148045    2.154792    0.006813
     66          8           0        3.282897    1.162229    2.884041
     67          6           0        5.201845    0.712767   -1.236638
     68          1           0        4.906054   -0.104798   -1.901763
     69          1           0        6.002822    0.354352   -0.586405
     70          6           0        5.722982    1.870814   -2.089003
     71          7           0        6.842627    2.458185   -1.611400
     72          1           0        7.268189    2.185710   -0.718043
     73          1           0        7.198183    3.264260   -2.107601
     74          8           0        5.128671    2.243514   -3.103926
     75          7           0        5.408397    0.613558    2.203503
     76          1           0        5.997906    0.393350    1.383678
     77          6           0        6.252218    1.438156    3.075973
     78          1           0        5.682983    2.307959    3.419217
     79          6           0        7.411039    2.014188    2.149876
     80          6           0        6.834905    0.652246    4.254357
     81          1           0        7.659641    1.248902    4.660364
     82          1           0        7.279292   -0.267546    3.855377
     83          8           0        8.081393    2.910286    2.664193
     84          6           0        5.840868    0.291100    5.372516
     85          1           0        4.931819   -0.143185    4.933159
     86          1           0        6.279499   -0.505144    5.983779
     87          6           0        5.478408    1.476081    6.309591
     88          1           0        6.112007    2.347413    6.090534
     89          1           0        5.706735    1.209772    7.347881
     90          6           0        4.016152    1.915520    6.315994
     91          1           0        3.336640    1.065413    6.422252
     92          1           0        3.819972    2.621084    7.128346
     93          7           0        3.622689    2.609803    5.032794
     94          1           0        2.682559    3.009747    5.104207
     95          1           0        3.611271    1.949474    4.158256
     96          1           0        4.266572    3.381198    4.831102
     97          8           0        7.476862    1.452885    1.011606
 ---------------------------------------------------------------------

 SCF Done:  E(RB3LYP) =  -2122.32766912     A.U. after    3 cycles

 Alpha  occ. eigenvalues --  -19.26709 -19.22339 -19.21594 -19.19408 -19.13450
 Alpha  occ. eigenvalues --  -19.12153 -19.10683 -14.59731 -14.54266 -14.49223
 Alpha  occ. eigenvalues --  -14.44930 -14.43854 -14.42811 -14.36794 -10.43409
 Alpha  occ. eigenvalues --  -10.40440 -10.38567 -10.37802 -10.36608 -10.35273
 Alpha  occ. eigenvalues --  -10.34433 -10.34178 -10.31616 -10.31213 -10.30991
 Alpha  occ. eigenvalues --  -10.30590 -10.30580 -10.29797 -10.28847 -10.28801
 Alpha  occ. eigenvalues --  -10.28357 -10.27598 -10.27422 -10.26342 -10.26183
 Alpha  occ. eigenvalues --  -10.25420 -10.25127 -10.24990 -10.24793 -10.24486
 Alpha  occ. eigenvalues --  -10.24413 -10.24395 -10.23765 -10.23519 -10.22961
 Alpha  occ. eigenvalues --   -1.19127  -1.13776  -1.13233  -1.12828  -1.11387
 Alpha  occ. eigenvalues --   -1.09059  -1.05825  -1.05039  -1.04847  -1.01541
 Alpha  occ. eigenvalues --   -1.00200  -0.99902  -0.96360  -0.95404  -0.91839
 Alpha  occ. eigenvalues --   -0.91807  -0.89213  -0.89122  -0.87963  -0.86157
 Alpha  occ. eigenvalues --   -0.85777  -0.84559  -0.83512  -0.81457  -0.79907
 Alpha  occ. eigenvalues --   -0.79795  -0.78495  -0.76556  -0.76330  -0.75866
 Alpha  occ. eigenvalues --   -0.74931  -0.74214  -0.73466  -0.72533  -0.71058
 Alpha  occ. eigenvalues --   -0.69698  -0.68886  -0.68561  -0.68401  -0.67405
 Alpha  occ. eigenvalues --   -0.66591  -0.66280  -0.66100  -0.65199  -0.64487
 Alpha  occ. eigenvalues --   -0.64307  -0.64242  -0.62594  -0.61904  -0.60626
 Alpha  occ. eigenvalues --   -0.60506  -0.59900  -0.59099  -0.58078  -0.56953
 Alpha  occ. eigenvalues --   -0.56669  -0.56243  -0.55886  -0.55850  -0.55425
 Alpha  occ. eigenvalues --   -0.54882  -0.54713  -0.54363  -0.54003  -0.53496
 Alpha  occ. eigenvalues --   -0.53067  -0.52764  -0.52644  -0.52350  -0.52029
 Alpha  occ. eigenvalues --   -0.51720  -0.51539  -0.50936  -0.50643  -0.49920
 Alpha  occ. eigenvalues --   -0.49669  -0.49562  -0.49453  -0.49107  -0.48601
 Alpha  occ. eigenvalues --   -0.48432  -0.47675  -0.47479  -0.46886  -0.46788
 Alpha  occ. eigenvalues --   -0.46587  -0.46343  -0.46120  -0.45834  -0.45577
 Alpha  occ. eigenvalues --   -0.45439  -0.45268  -0.45225  -0.45050  -0.44838
 Alpha  occ. eigenvalues --   -0.44351  -0.43112  -0.42281  -0.42196  -0.41686
 Alpha  occ. eigenvalues --   -0.41600  -0.41414  -0.41259  -0.41186  -0.41002
 Alpha  occ. eigenvalues --   -0.40668  -0.40446  -0.40138  -0.39588  -0.39418
 Alpha  occ. eigenvalues --   -0.38976  -0.38664  -0.38482  -0.36608  -0.35781
 Alpha  occ. eigenvalues --   -0.34863  -0.34438  -0.33270  -0.32633  -0.30587
 Alpha  occ. eigenvalues --   -0.30040  -0.28582  -0.27721  -0.26939  -0.26758
 Alpha  occ. eigenvalues --   -0.24756
 Alpha virt. eigenvalues --   -0.12179  -0.11132  -0.07699  -0.07064  -0.06834
 Alpha virt. eigenvalues --   -0.06619  -0.06165  -0.05827  -0.05342  -0.04953
 Alpha virt. eigenvalues --   -0.01848  -0.01144  -0.00685   0.00191   0.00346

 Mulliken charges:
               1
     1  N   -0.764145
     2  H    0.415543
     3  H    0.410332
     4  H    0.436404
     5  C   -0.109730
     6  H    0.212208
     7  C    0.655469
     8  C   -0.110003
     9  H    0.151978
    10  O   -0.551260
    11  C   -0.284085
    12  H    0.171178
    13  H    0.173434
    14  C   -0.474658
    15  H    0.185883
    16  H    0.192156
    17  H    0.141329
    18  C   -0.468937
    19  H    0.189539
    20  H    0.146286
    21  H    0.158757
    22  N   -0.613547
    23  H    0.384473
    24  C   -0.067955
    25  H    0.193863
    26  C    0.634163
    27  C   -0.349617
    28  H    0.158015
    29  H    0.175315
    30  O   -0.564551
    31  C    0.151493
    32  C   -0.190503
    33  H    0.121247
    34  C   -0.201229
    35  H    0.125150
    36  C   -0.136926
    37  H    0.171452
    38  C   -0.119818
    39  H    0.141819
    40  C   -0.127613
    41  H    0.178347
    42  N   -0.620393
    43  H    0.380421
    44  C   -0.037338
    45  H    0.163435
    46  C    0.634529
    47  C   -0.076783
    48  H    0.155865
    49  O   -0.536939
    50  C   -0.453970
    51  H    0.164063
    52  H    0.151054
    53  H    0.148661
    54  C   -0.467766
    55  H    0.153622
    56  H    0.139473
    57  H    0.160595
    58  N   -0.634095
    59  H    0.346324
    60  C   -0.025334
    61  H    0.195882
    62  C    0.607873
    63  C   -0.286243
    64  H    0.185831
    65  H    0.156426
    66  O   -0.641544
    67  C   -0.374972
    68  H    0.176203
    69  H    0.176888
    70  C    0.568359
    71  N   -0.763995
    72  H    0.405760
    73  H    0.331976
    74  O   -0.536132
    75  N   -0.569036
    76  H    0.388465
    77  C   -0.095692
    78  H    0.092053
    79  C    0.600909
    80  C   -0.263785
    81  H    0.182931
    82  H    0.158706
    83  O   -0.546919
    84  C   -0.287638
    85  H    0.142882
    86  H    0.164477
    87  C   -0.286766
    88  H    0.174044
    89  H    0.183714
    90  C   -0.192859
    91  H    0.202782
    92  H    0.193805
    93  N   -0.772565
    94  H    0.392030
    95  H    0.466972
    96  H    0.399876
    97  O   -0.617373
 Sum of Mulliken charges =   1.00000

 Dipole moment (field-independent basis, Debye):
    X=            -27.2372    Y=             -4.6456    Z=             -0.6696  Tot=             27.6386
 Quadrupole moment (field-independent basis, Debye-Ang):
   XX=           -172.2134   YY=           -241.6058   ZZ=           -109.5918
   XY=             28.0903   XZ=            155.7935   YZ=             59.0711

 Normal termination of Gaussian 16 at Sun Jun 19 17:48:41 2022.
