 Gaussian 16, Revision C.01,
 Gaussian 16:  ES64L-G16RevC.01  3-Jul-2019

 -------------------------------------------------------------------
 # B3LYP/6-31G* guess=read geom=check nosymm integral(ultrafinegrid)
 -------------------------------------------------------------------

 ------------------------------------------------------
 Candidate Structure: Conf:112 Charge calc in gas phase
 ------------------------------------------------------
 Structure from the checkpoint file:  "conf-112.chk"
 Charge =  1 Multiplicity = 1

                          Input orientation:
 ---------------------------------------------------------------------
 Center     Atomic      Atomic             Coordinates (Angstroms)
 Number     Number       Type             X           Y           Z
 ---------------------------------------------------------------------
      1          7           0       -7.040759   -1.399374   -4.686758
      2          1           0       -7.503190   -0.486699   -4.668383
      3          1           0       -7.742957   -2.120795   -4.869532
      4          1           0       -6.280980   -1.394691   -5.442927
      5          6           0       -6.210044   -1.674367   -3.444713
      6          1           0       -6.476906   -0.925635   -2.696884
      7          6           0       -4.765743   -1.443279   -3.976397
      8          6           0       -6.501059   -3.101856   -2.909992
      9          1           0       -7.595879   -3.147600   -2.791426
     10          8           0       -4.621392   -1.383013   -5.212205
     11          6           0       -5.900156   -3.349488   -1.507235
     12          1           0       -4.804924   -3.360581   -1.560451
     13          1           0       -6.190964   -4.369111   -1.227838
     14          6           0       -6.064944   -4.196057   -3.899124
     15          1           0       -4.976238   -4.219624   -4.013034
     16          1           0       -6.382566   -5.174987   -3.528725
     17          1           0       -6.497278   -4.078464   -4.900978
     18          6           0       -6.365821   -2.385349   -0.409245
     19          1           0       -5.993452   -2.718162    0.563834
     20          1           0       -5.994268   -1.362638   -0.549850
     21          1           0       -7.460091   -2.341589   -0.348156
     22          7           0       -3.803260   -1.329441   -3.077851
     23          1           0       -3.957077   -1.446519   -2.071994
     24          6           0       -2.377075   -1.184440   -3.381997
     25          1           0       -2.124679   -1.863893   -4.201685
     26          6           0       -1.682615   -1.651506   -2.076726
     27          6           0       -2.043880    0.272018   -3.806332
     28          1           0       -2.157111    0.927613   -2.935379
     29          1           0       -2.814014    0.562802   -4.531446
     30          8           0       -2.372454   -1.826134   -1.060392
     31          6           0       -0.673378    0.449355   -4.428671
     32          6           0        0.261586    1.326082   -3.865143
     33          1           0        0.011794    1.865594   -2.953895
     34          6           0       -0.337621   -0.225187   -5.613449
     35          1           0       -1.061355   -0.886905   -6.087138
     36          6           0        1.506332    1.536889   -4.463389
     37          1           0        2.208981    2.233352   -4.008580
     38          6           0        0.908402   -0.029453   -6.209210
     39          1           0        1.154962   -0.556285   -7.127344
     40          6           0        1.828403    0.851454   -5.635920
     41          1           0        2.795806    1.007242   -6.105147
     42          7           0       -0.363169   -1.865651   -2.143032
     43          1           0        0.170042   -1.592044   -2.966939
     44          6           0        0.457578   -2.246510   -0.987550
     45          1           0       -0.104386   -1.989229   -0.084626
     46          6           0        1.743388   -1.407896   -1.123948
     47          6           0        0.788443   -3.765654   -0.984536
     48          1           0        1.388324   -3.952183   -1.885800
     49          8           0        2.262591   -1.288206   -2.235632
     50          6           0        1.631386   -4.140477    0.244636
     51          1           0        1.080142   -3.944864    1.174157
     52          1           0        1.874584   -5.208402    0.223996
     53          1           0        2.572251   -3.583877    0.287807
     54          6           0       -0.477906   -4.630137   -1.051729
     55          1           0       -1.130715   -4.446662   -0.190271
     56          1           0       -1.055145   -4.433503   -1.960498
     57          1           0       -0.208236   -5.692369   -1.053773
     58          7           0        2.220812   -0.840086   -0.002166
     59          1           0        1.808916   -0.989082    0.915688
     60          6           0        3.413385   -0.005448    0.012957
     61          1           0        4.210154   -0.521959   -0.535873
     62          6           0        3.802820    0.155286    1.501485
     63          6           0        3.162791    1.385800   -0.646069
     64          1           0        2.297106    1.301483   -1.307130
     65          1           0        2.905085    2.112853    0.133430
     66          8           0        3.056793   -0.271662    2.394641
     67          6           0        4.348935    1.911976   -1.478085
     68          1           0        4.429614    1.320027   -2.395669
     69          1           0        5.292939    1.833640   -0.933758
     70          6           0        4.108582    3.371468   -1.863555
     71          7           0        4.764651    4.272869   -1.100302
     72          1           0        5.313021    3.999787   -0.274178
     73          1           0        4.574845    5.251164   -1.270828
     74          8           0        3.341011    3.680585   -2.780380
     75          7           0        4.953229    0.818698    1.716718
     76          1           0        5.389550    1.310626    0.927232
     77          6           0        5.220339    1.639593    2.899026
     78          1           0        4.266682    1.897416    3.376080
     79          6           0        5.886713    2.988325    2.388334
     80          6           0        6.129529    0.977727    3.934297
     81          1           0        6.429755    1.774414    4.624827
     82          1           0        7.039593    0.618139    3.433329
     83          8           0        6.188546    3.795062    3.273932
     84          6           0        5.470208   -0.174333    4.700038
     85          1           0        4.555295    0.187203    5.188122
     86          1           0        5.156033   -0.963710    4.007079
     87          6           0        6.425089   -0.748269    5.761906
     88          1           0        6.742008    0.060985    6.435740
     89          1           0        7.329320   -1.136595    5.271212
     90          6           0        5.761886   -1.852713    6.565277
     91          1           0        4.878671   -1.506406    7.107401
     92          1           0        5.490860   -2.717454    5.954853
     93          7           0        6.727041   -2.384183    7.639551
     94          1           0        6.315963   -3.132595    8.210057
     95          1           0        7.012329   -1.625057    8.270106
     96          1           0        7.582505   -2.750111    7.204556
     97          8           0        6.032571    3.050331    1.126437
 ---------------------------------------------------------------------

 SCF Done:  E(RB3LYP) =  -2122.28611506     A.U. after    3 cycles

 Alpha  occ. eigenvalues --  -19.25568 -19.20186 -19.16228 -19.15480 -19.11378
 Alpha  occ. eigenvalues --  -19.08874 -19.07493 -14.62855 -14.58663 -14.47852
 Alpha  occ. eigenvalues --  -14.43445 -14.40439 -14.37138 -14.34499 -10.42186
 Alpha  occ. eigenvalues --  -10.39339 -10.39323 -10.37187 -10.33503 -10.33429
 Alpha  occ. eigenvalues --  -10.32836 -10.32028 -10.30931 -10.29655 -10.29522
 Alpha  occ. eigenvalues --  -10.29220 -10.29016 -10.27821 -10.27095 -10.26914
 Alpha  occ. eigenvalues --  -10.26550 -10.25899 -10.25500 -10.24642 -10.23541
 Alpha  occ. eigenvalues --  -10.23374 -10.23371 -10.23347 -10.23103 -10.22872
 Alpha  occ. eigenvalues --  -10.22423 -10.22287 -10.22072 -10.21612 -10.20556
 Alpha  occ. eigenvalues --   -1.17973  -1.16673  -1.12589  -1.11866  -1.08366
 Alpha  occ. eigenvalues --   -1.06668  -1.04526  -1.02771  -1.01578  -0.99804
 Alpha  occ. eigenvalues --   -0.96798  -0.94747  -0.94356  -0.92774  -0.92248
 Alpha  occ. eigenvalues --   -0.90279  -0.89580  -0.87600  -0.86359  -0.84890
 Alpha  occ. eigenvalues --   -0.84009  -0.83480  -0.82117  -0.79949  -0.78223
 Alpha  occ. eigenvalues --   -0.78039  -0.77614  -0.75471  -0.75311  -0.75302
 Alpha  occ. eigenvalues --   -0.74320  -0.73854  -0.73635  -0.73183  -0.72360
 Alpha  occ. eigenvalues --   -0.69926  -0.69412  -0.67390  -0.66743  -0.66205
 Alpha  occ. eigenvalues --   -0.65636  -0.65012  -0.64415  -0.63555  -0.63160
 Alpha  occ. eigenvalues --   -0.62627  -0.62054  -0.61178  -0.60382  -0.59951
 Alpha  occ. eigenvalues --   -0.59585  -0.58805  -0.58115  -0.57553  -0.55832
 Alpha  occ. eigenvalues --   -0.55384  -0.54746  -0.54453  -0.53774  -0.53597
 Alpha  occ. eigenvalues --   -0.53468  -0.53277  -0.53070  -0.52831  -0.52244
 Alpha  occ. eigenvalues --   -0.51795  -0.51179  -0.50900  -0.50802  -0.49959
 Alpha  occ. eigenvalues --   -0.49499  -0.49274  -0.48890  -0.48618  -0.48564
 Alpha  occ. eigenvalues --   -0.48192  -0.47701  -0.47508  -0.47155  -0.46707
 Alpha  occ. eigenvalues --   -0.46177  -0.45834  -0.45418  -0.45328  -0.45121
 Alpha  occ. eigenvalues --   -0.45003  -0.44562  -0.44475  -0.44254  -0.44241
 Alpha  occ. eigenvalues --   -0.44003  -0.43850  -0.43655  -0.43153  -0.42938
 Alpha  occ. eigenvalues --   -0.41572  -0.41014  -0.40256  -0.40249  -0.39981
 Alpha  occ. eigenvalues --   -0.39735  -0.39558  -0.39164  -0.39055  -0.38691
 Alpha  occ. eigenvalues --   -0.38544  -0.38033  -0.37847  -0.37503  -0.37026
 Alpha  occ. eigenvalues --   -0.36750  -0.36383  -0.35472  -0.34505  -0.33161
 Alpha  occ. eigenvalues --   -0.30488  -0.29908  -0.29361  -0.28859  -0.28637
 Alpha  occ. eigenvalues --   -0.28529  -0.26405  -0.25390  -0.23868  -0.23651
 Alpha  occ. eigenvalues --   -0.21618
 Alpha virt. eigenvalues --   -0.13472  -0.11016  -0.10169  -0.06828  -0.06625
 Alpha virt. eigenvalues --   -0.06200  -0.05811  -0.04480  -0.04242  -0.03910
 Alpha virt. eigenvalues --   -0.03906  -0.02658  -0.01142  -0.00378  -0.00096

 Mulliken charges:
               1
     1  N   -0.764758
     2  H    0.414242
     3  H    0.408294
     4  H    0.435714
     5  C   -0.109370
     6  H    0.211558
     7  C    0.655293
     8  C   -0.109137
     9  H    0.149327
    10  O   -0.554745
    11  C   -0.284919
    12  H    0.176410
    13  H    0.170290
    14  C   -0.474144
    15  H    0.186907
    16  H    0.189781
    17  H    0.139527
    18  C   -0.468259
    19  H    0.188784
    20  H    0.148387
    21  H    0.155501
    22  N   -0.616081
    23  H    0.387999
    24  C   -0.071491
    25  H    0.195286
    26  C    0.631506
    27  C   -0.348687
    28  H    0.161331
    29  H    0.174135
    30  O   -0.563369
    31  C    0.139604
    32  C   -0.201239
    33  H    0.132323
    34  C   -0.200462
    35  H    0.121071
    36  C   -0.134058
    37  H    0.218594
    38  C   -0.123351
    39  H    0.133776
    40  C   -0.133239
    41  H    0.143790
    42  N   -0.614287
    43  H    0.377019
    44  C   -0.042513
    45  H    0.167154
    46  C    0.621183
    47  C   -0.071071
    48  H    0.150987
    49  O   -0.545140
    50  C   -0.463661
    51  H    0.141176
    52  H    0.151040
    53  H    0.163986
    54  C   -0.445445
    55  H    0.151218
    56  H    0.135836
    57  H    0.148225
    58  N   -0.625044
    59  H    0.349826
    60  C   -0.028562
    61  H    0.177663
    62  C    0.574078
    63  C   -0.283478
    64  H    0.173700
    65  H    0.162289
    66  O   -0.571797
    67  C   -0.371572
    68  H    0.167363
    69  H    0.175295
    70  C    0.561811
    71  N   -0.763721
    72  H    0.408977
    73  H    0.325271
    74  O   -0.530162
    75  N   -0.611582
    76  H    0.376816
    77  C   -0.078577
    78  H    0.149594
    79  C    0.586088
    80  C   -0.258655
    81  H    0.170583
    82  H    0.132753
    83  O   -0.561009
    84  C   -0.265624
    85  H    0.153567
    86  H    0.168211
    87  C   -0.291585
    88  H    0.165249
    89  H    0.161918
    90  C   -0.205763
    91  H    0.225887
    92  H    0.225035
    93  N   -0.731383
    94  H    0.423972
    95  H    0.425440
    96  H    0.424295
    97  O   -0.624995
 Sum of Mulliken charges =   1.00000

 Dipole moment (field-independent basis, Debye):
    X=            -12.0650    Y=            -25.5234    Z=             13.3076  Tot=             31.2106
 Quadrupole moment (field-independent basis, Debye-Ang):
   XX=             14.1534   YY=           -256.4393   ZZ=             -2.6428
   XY=            -75.3487   XZ=            275.9708   YZ=            -61.5162

 Normal termination of Gaussian 16 at Sun Jun 19 17:48:37 2022.
