 Gaussian 16, Revision C.01,
 Gaussian 16:  ES64L-G16RevC.01  3-Jul-2019

 -------------------------------------------------------------------
 # B3LYP/6-31G* guess=read geom=check nosymm integral(ultrafinegrid)
 -------------------------------------------------------------------

 ------------------------------------------------------
 Candidate Structure: Conf:950 Charge calc in gas phase
 ------------------------------------------------------
 Structure from the checkpoint file:  "conf-950.chk"
 Charge =  1 Multiplicity = 1

                          Input orientation:
 ---------------------------------------------------------------------
 Center     Atomic      Atomic             Coordinates (Angstroms)
 Number     Number       Type             X           Y           Z
 ---------------------------------------------------------------------
      1          7           0       -5.608085   -1.168923   -4.717067
      2          1           0       -5.630755   -0.362182   -5.346900
      3          1           0       -6.527730   -1.617469   -4.717178
      4          1           0       -4.842044   -1.835041   -5.049387
      5          6           0       -5.109013   -0.816228   -3.326458
      6          1           0       -5.192193    0.265547   -3.210780
      7          6           0       -3.621558   -1.260079   -3.411578
      8          6           0       -5.956436   -1.546139   -2.251014
      9          1           0       -7.000526   -1.266000   -2.466274
     10          8           0       -3.317265   -2.036466   -4.331541
     11          6           0       -5.654874   -1.047664   -0.818773
     12          1           0       -4.636362   -1.330262   -0.525401
     13          1           0       -6.318458   -1.612561   -0.153549
     14          6           0       -5.826847   -3.076175   -2.340800
     15          1           0       -4.813250   -3.406858   -2.092234
     16          1           0       -6.514372   -3.544712   -1.630794
     17          1           0       -6.069589   -3.477873   -3.332676
     18          6           0       -5.879220    0.450615   -0.579143
     19          1           0       -5.762014    0.681614    0.483495
     20          1           0       -5.162619    1.085119   -1.116341
     21          1           0       -6.888674    0.759970   -0.876176
     22          7           0       -2.794486   -0.768032   -2.498304
     23          1           0       -3.136718   -0.250341   -1.689657
     24          6           0       -1.379519   -1.114016   -2.376203
     25          1           0       -1.209523   -2.061212   -2.893100
     26          6           0       -1.127709   -1.239049   -0.858347
     27          6           0       -0.466088   -0.010976   -2.982388
     28          1           0        0.568410   -0.331609   -2.823314
     29          1           0       -0.621262    0.910428   -2.407971
     30          8           0       -1.888671   -0.667401   -0.069473
     31          6           0       -0.719644    0.234550   -4.453019
     32          6           0       -0.156119   -0.611600   -5.418367
     33          1           0        0.490250   -1.426157   -5.098938
     34          6           0       -1.527558    1.296796   -4.879622
     35          1           0       -1.943939    1.981288   -4.142872
     36          6           0       -0.402381   -0.406553   -6.775388
     37          1           0        0.048864   -1.066250   -7.511421
     38          6           0       -1.773873    1.506906   -6.238815
     39          1           0       -2.382868    2.350513   -6.554840
     40          6           0       -1.214460    0.652259   -7.190063
     41          1           0       -1.394235    0.819819   -8.248509
     42          7           0       -0.043936   -1.956799   -0.515913
     43          1           0        0.570279   -2.281840   -1.266583
     44          6           0        0.505094   -1.985454    0.851133
     45          1           0        0.053776   -1.139168    1.381318
     46          6           0        2.027651   -1.760357    0.676847
     47          6           0        0.196303   -3.286897    1.620005
     48          1           0        0.764177   -4.089076    1.132449
     49          8           0        2.835437   -2.688873    0.707345
     50          6           0        0.690697   -3.167427    3.070430
     51          1           0        0.170957   -2.357436    3.598926
     52          1           0        0.493901   -4.096078    3.616761
     53          1           0        1.766778   -2.977743    3.114065
     54          6           0       -1.297734   -3.634532    1.578740
     55          1           0       -1.905280   -2.837055    2.022427
     56          1           0       -1.648787   -3.794382    0.553869
     57          1           0       -1.484363   -4.555137    2.142673
     58          7           0        2.374157   -0.488295    0.382887
     59          1           0        1.703503    0.274013    0.417554
     60          6           0        3.720442   -0.075691    0.029599
     61          1           0        4.430830   -0.626105    0.657334
     62          6           0        3.792677    1.432893    0.348560
     63          6           0        4.077997   -0.297252   -1.466690
     64          1           0        3.269789    0.107730   -2.084552
     65          1           0        4.972036    0.299076   -1.684157
     66          8           0        2.767149    2.113399    0.413783
     67          6           0        4.381637   -1.741866   -1.891655
     68          1           0        5.041458   -2.226695   -1.163687
     69          1           0        4.937841   -1.710789   -2.839233
     70          6           0        3.170434   -2.631396   -2.151745
     71          7           0        3.416065   -3.963438   -2.111237
     72          1           0        4.216987   -4.319669   -1.609024
     73          1           0        2.626361   -4.588173   -2.208065
     74          8           0        2.061453   -2.186522   -2.476917
     75          7           0        5.035795    1.928049    0.528541
     76          1           0        5.849622    1.374958    0.273147
     77          6           0        5.303724    3.361696    0.578641
     78          1           0        4.758134    3.838675   -0.249663
     79          6           0        6.809946    3.512857    0.256207
     80          6           0        4.845129    4.032166    1.893429
     81          1           0        5.673166    4.042726    2.611217
     82          1           0        4.062349    3.411430    2.336020
     83          8           0        7.416171    4.651711    0.556778
     84          6           0        4.284335    5.453076    1.660231
     85          1           0        4.771307    5.910514    0.787809
     86          1           0        3.227137    5.353784    1.389113
     87          6           0        4.444522    6.407529    2.858967
     88          1           0        4.428201    5.840172    3.800498
     89          1           0        3.597138    7.101562    2.912358
     90          6           0        5.721129    7.250863    2.774762
     91          1           0        5.653786    7.913825    1.904268
     92          1           0        5.810836    7.892522    3.663460
     93          7           0        6.921047    6.407583    2.575331
     94          1           0        7.735904    6.997434    2.405499
     95          1           0        6.988379    5.255519    1.246996
     96          1           0        7.128858    5.891790    3.431344
     97          8           0        7.400636    2.610055   -0.308002
 ---------------------------------------------------------------------

 SCF Done:  E(RB3LYP) =  -2122.36373968     A.U. after    1 cycles

 Alpha  occ. eigenvalues --  -19.25725 -19.22354 -19.20751 -19.20050 -19.18767
 Alpha  occ. eigenvalues --  -19.18444 -19.18234 -14.59058 -14.48501 -14.44101
 Alpha  occ. eigenvalues --  -14.43382 -14.42562 -14.42354 -14.41165 -10.42552
 Alpha  occ. eigenvalues --  -10.39607 -10.37647 -10.37365 -10.36930 -10.35638
 Alpha  occ. eigenvalues --  -10.35617 -10.33671 -10.33339 -10.30535 -10.30187
 Alpha  occ. eigenvalues --  -10.29886 -10.29832 -10.29744 -10.28259 -10.28159
 Alpha  occ. eigenvalues --  -10.27641 -10.27273 -10.27081 -10.26599 -10.26595
 Alpha  occ. eigenvalues --  -10.26534 -10.26257 -10.26176 -10.26054 -10.25361
 Alpha  occ. eigenvalues --  -10.24959 -10.24943 -10.24651 -10.23414 -10.22946
 Alpha  occ. eigenvalues --   -1.18287  -1.13962  -1.12983  -1.12368  -1.11390
 Alpha  occ. eigenvalues --   -1.10786  -1.09949  -1.05875  -1.05123  -1.00890
 Alpha  occ. eigenvalues --   -0.99115  -0.98931  -0.98271  -0.96810  -0.94663
 Alpha  occ. eigenvalues --   -0.93011  -0.88793  -0.87292  -0.86498  -0.85966
 Alpha  occ. eigenvalues --   -0.85685  -0.84006  -0.82240  -0.81876  -0.81702
 Alpha  occ. eigenvalues --   -0.80058  -0.77275  -0.75860  -0.75277  -0.74652
 Alpha  occ. eigenvalues --   -0.74075  -0.73520  -0.72709  -0.71555  -0.70503
 Alpha  occ. eigenvalues --   -0.69108  -0.67909  -0.67802  -0.67171  -0.66974
 Alpha  occ. eigenvalues --   -0.66238  -0.65715  -0.65046  -0.64819  -0.64623
 Alpha  occ. eigenvalues --   -0.63870  -0.63440  -0.62350  -0.61356  -0.60855
 Alpha  occ. eigenvalues --   -0.60017  -0.59067  -0.58489  -0.57524  -0.57218
 Alpha  occ. eigenvalues --   -0.56903  -0.55877  -0.55258  -0.55026  -0.54747
 Alpha  occ. eigenvalues --   -0.54636  -0.54455  -0.54104  -0.53376  -0.53336
 Alpha  occ. eigenvalues --   -0.53216  -0.52663  -0.52469  -0.52421  -0.52070
 Alpha  occ. eigenvalues --   -0.51528  -0.51008  -0.50415  -0.50228  -0.49786
 Alpha  occ. eigenvalues --   -0.49486  -0.49401  -0.49232  -0.49176  -0.48650
 Alpha  occ. eigenvalues --   -0.48553  -0.48210  -0.47876  -0.47344  -0.47094
 Alpha  occ. eigenvalues --   -0.46708  -0.46321  -0.46232  -0.45435  -0.45382
 Alpha  occ. eigenvalues --   -0.44998  -0.44796  -0.44683  -0.44556  -0.44486
 Alpha  occ. eigenvalues --   -0.44196  -0.43761  -0.43528  -0.43187  -0.42758
 Alpha  occ. eigenvalues --   -0.42312  -0.41713  -0.41536  -0.41274  -0.40944
 Alpha  occ. eigenvalues --   -0.40861  -0.40283  -0.39944  -0.39738  -0.39510
 Alpha  occ. eigenvalues --   -0.39287  -0.39064  -0.38100  -0.35541  -0.35480
 Alpha  occ. eigenvalues --   -0.34912  -0.34395  -0.33919  -0.33825  -0.33024
 Alpha  occ. eigenvalues --   -0.32393  -0.32336  -0.31887  -0.31740  -0.31632
 Alpha  occ. eigenvalues --   -0.31288
 Alpha virt. eigenvalues --   -0.11322  -0.10396  -0.08293  -0.07539  -0.06742
 Alpha virt. eigenvalues --   -0.06055  -0.05748  -0.04929  -0.04463  -0.04111
 Alpha virt. eigenvalues --   -0.03722  -0.00530  -0.00167  -0.00041   0.00512

 Mulliken charges:
               1
     1  N   -0.761306
     2  H    0.415873
     3  H    0.408225
     4  H    0.435828
     5  C   -0.113998
     6  H    0.209698
     7  C    0.666312
     8  C   -0.108450
     9  H    0.149437
    10  O   -0.545076
    11  C   -0.288613
    12  H    0.179281
    13  H    0.172833
    14  C   -0.473139
    15  H    0.187378
    16  H    0.190316
    17  H    0.138490
    18  C   -0.468560
    19  H    0.191306
    20  H    0.141457
    21  H    0.157533
    22  N   -0.599554
    23  H    0.377057
    24  C   -0.084048
    25  H    0.199165
    26  C    0.627030
    27  C   -0.387879
    28  H    0.216316
    29  H    0.160625
    30  O   -0.553788
    31  C    0.176326
    32  C   -0.175291
    33  H    0.151095
    34  C   -0.201941
    35  H    0.119395
    36  C   -0.128224
    37  H    0.145282
    38  C   -0.143988
    39  H    0.132763
    40  C   -0.132838
    41  H    0.141927
    42  N   -0.637617
    43  H    0.393224
    44  C   -0.043337
    45  H    0.173389
    46  C    0.608139
    47  C   -0.060658
    48  H    0.142320
    49  O   -0.550530
    50  C   -0.464131
    51  H    0.141963
    52  H    0.154156
    53  H    0.169845
    54  C   -0.451323
    55  H    0.153513
    56  H    0.131258
    57  H    0.150806
    58  N   -0.604354
    59  H    0.354391
    60  C   -0.042153
    61  H    0.178111
    62  C    0.609271
    63  C   -0.274654
    64  H    0.174200
    65  H    0.162599
    66  O   -0.544629
    67  C   -0.359155
    68  H    0.170281
    69  H    0.189295
    70  C    0.629840
    71  N   -0.715720
    72  H    0.356716
    73  H    0.343830
    74  O   -0.562511
    75  N   -0.621646
    76  H    0.358219
    77  C   -0.042745
    78  H    0.189148
    79  C    0.580474
    80  C   -0.286551
    81  H    0.138835
    82  H    0.178623
    83  O   -0.615006
    84  C   -0.278206
    85  H    0.141563
    86  H    0.163597
    87  C   -0.272274
    88  H    0.143592
    89  H    0.153267
    90  C   -0.144470
    91  H    0.161328
    92  H    0.146953
    93  N   -0.768318
    94  H    0.338490
    95  H    0.484449
    96  H    0.326708
    97  O   -0.476660
 Sum of Mulliken charges =   1.00000

 Dipole moment (field-independent basis, Debye):
    X=            -13.4650    Y=              0.1966    Z=            -10.9300  Tot=             17.3439
 Quadrupole moment (field-independent basis, Debye-Ang):
   XX=           -114.9198   YY=           -190.8518   ZZ=           -181.8901
   XY=             44.9142   XZ=            105.9275   YZ=             43.1664

 Normal termination of Gaussian 16 at Sun Jun 19 17:47:53 2022.
