 Gaussian 16, Revision C.01,
 Gaussian 16:  ES64L-G16RevC.01  3-Jul-2019

 -------------------------------------------------------------------
 # B3LYP/6-31G* guess=read geom=check nosymm integral(ultrafinegrid)
 -------------------------------------------------------------------

 ------------------------------------------------------
 Candidate Structure: Conf:224 Charge calc in gas phase
 ------------------------------------------------------
 Structure from the checkpoint file:  "conf-224.chk"
 Charge =  1 Multiplicity = 1

                          Input orientation:
 ---------------------------------------------------------------------
 Center     Atomic      Atomic             Coordinates (Angstroms)
 Number     Number       Type             X           Y           Z
 ---------------------------------------------------------------------
      1          7           0       -2.452418    0.031662   -6.645623
      2          1           0       -1.605434   -0.519152   -6.865436
      3          1           0       -2.570832    0.780105   -7.332309
      4          1           0       -3.254987   -0.632698   -6.653560
      5          6           0       -2.413203    0.532862   -5.208944
      6          1           0       -1.402869    0.885268   -4.988011
      7          6           0       -2.753473   -0.770011   -4.454437
      8          6           0       -3.455695    1.650882   -4.984573
      9          1           0       -4.439090    1.247014   -5.269674
     10          8           0       -3.620355   -1.502718   -4.954060
     11          6           0       -3.152270    2.892840   -5.853826
     12          1           0       -3.046593    2.611304   -6.915232
     13          1           0       -2.179275    3.305515   -5.554281
     14          6           0       -3.489191    2.002074   -3.485380
     15          1           0       -2.518713    2.392093   -3.159016
     16          1           0       -4.250469    2.760584   -3.288446
     17          1           0       -3.720650    1.132197   -2.864423
     18          6           0       -4.225911    3.986112   -5.785618
     19          1           0       -3.992221    4.794697   -6.485439
     20          1           0       -5.213665    3.590071   -6.049344
     21          1           0       -4.295056    4.426549   -4.787014
     22          7           0       -2.037185   -1.025265   -3.359912
     23          1           0       -1.289983   -0.363986   -3.111805
     24          6           0       -2.066714   -2.332974   -2.721478
     25          1           0       -2.999093   -2.812406   -3.035428
     26          6           0       -2.103917   -2.108826   -1.191455
     27          6           0       -0.853410   -3.194355   -3.207442
     28          1           0       -1.038362   -4.239366   -2.929009
     29          1           0        0.043751   -2.869081   -2.669296
     30          8           0       -2.442668   -1.023998   -0.735265
     31          6           0       -0.631982   -3.109579   -4.704748
     32          6           0       -1.288746   -3.980568   -5.585019
     33          1           0       -1.935230   -4.758057   -5.185011
     34          6           0        0.198544   -2.115902   -5.245548
     35          1           0        0.712123   -1.423649   -4.583304
     36          6           0       -1.133317   -3.862521   -6.966903
     37          1           0       -1.647307   -4.554068   -7.628522
     38          6           0        0.358469   -1.991180   -6.631160
     39          1           0        1.039211   -1.240958   -7.028037
     40          6           0       -0.310618   -2.865007   -7.497732
     41          1           0       -0.167560   -2.788258   -8.572556
     42          7           0       -1.731927   -3.160009   -0.392418
     43          1           0       -1.204363   -3.890458   -0.852686
     44          6           0       -1.213991   -2.824913    0.943465
     45          1           0       -1.972966   -2.208640    1.432055
     46          6           0        0.054995   -1.969971    0.710023
     47          6           0       -0.962673   -4.083425    1.808681
     48          1           0       -0.497204   -3.706923    2.730845
     49          8           0        0.814321   -2.235584   -0.226937
     50          6           0       -2.288315   -4.760543    2.187917
     51          1           0       -2.817194   -5.117930    1.297325
     52          1           0       -2.107602   -5.621725    2.840605
     53          1           0       -2.954606   -4.069952    2.717516
     54          6           0        0.015918   -5.084411    1.171287
     55          1           0       -0.434869   -5.598851    0.311907
     56          1           0        0.936411   -4.600316    0.833452
     57          1           0        0.279125   -5.862062    1.896145
     58          7           0        0.250124   -0.899980    1.515240
     59          1           0       -0.446952   -0.616044    2.196637
     60          6           0        1.106383    0.182097    1.049253
     61          1           0        2.098263   -0.226867    0.834015
     62          6           0        1.196671    1.266506    2.130653
     63          6           0        0.520060    0.860290   -0.239480
     64          1           0       -0.440018    0.392658   -0.469053
     65          1           0        0.321192    1.916511   -0.037423
     66          8           0        0.401655    1.310227    3.070284
     67          6           0        1.447649    0.779376   -1.465060
     68          1           0        1.575319   -0.263082   -1.765961
     69          1           0        2.424556    1.205851   -1.221499
     70          6           0        0.829330    1.561376   -2.609029
     71          7           0        1.159508    2.857503   -2.663666
     72          1           0        1.691719    3.306066   -1.891150
     73          1           0        0.695098    3.440870   -3.347324
     74          8           0        0.032392    1.020349   -3.413170
     75          7           0        2.148996    2.203607    1.867378
     76          1           0        2.581799    2.125861    0.941241
     77          6           0        1.893352    3.636510    2.066636
     78          1           0        0.838808    3.763573    2.341376
     79          6           0        2.103884    4.372620    0.679431
     80          6           0        2.756284    4.265982    3.160698
     81          1           0        2.604989    5.349476    3.099274
     82          1           0        3.815989    4.069286    2.944621
     83          8           0        1.948558    5.596486    0.693857
     84          6           0        2.404885    3.741828    4.556858
     85          1           0        1.346382    3.944787    4.767607
     86          1           0        2.519167    2.651088    4.581139
     87          6           0        3.276377    4.384151    5.650046
     88          1           0        3.160238    5.477014    5.614849
     89          1           0        4.335325    4.161447    5.455065
     90          6           0        2.886367    3.869367    7.025274
     91          1           0        1.852080    4.107388    7.285003
     92          1           0        3.042213    2.793243    7.132457
     93          7           0        3.750410    4.527553    8.113860
     94          1           0        3.511209    4.203600    9.058687
     95          1           0        3.639868    5.548598    8.092319
     96          1           0        4.745447    4.329184    7.953977
     97          8           0        2.399768    3.594287   -0.290096
 ---------------------------------------------------------------------

 SCF Done:  E(RB3LYP) =  -2122.31052942     A.U. after    3 cycles

 Alpha  occ. eigenvalues --  -19.20830 -19.18553 -19.17470 -19.17021 -19.16531
 Alpha  occ. eigenvalues --  -19.11078 -19.09495 -14.63387 -14.55073 -14.43892
 Alpha  occ. eigenvalues --  -14.42045 -14.40961 -14.39273 -14.38105 -10.39892
 Alpha  occ. eigenvalues --  -10.37718 -10.35574 -10.34094 -10.34091 -10.33933
 Alpha  occ. eigenvalues --  -10.32972 -10.31718 -10.31074 -10.29144 -10.28955
 Alpha  occ. eigenvalues --  -10.28509 -10.28055 -10.27683 -10.27367 -10.27017
 Alpha  occ. eigenvalues --  -10.26952 -10.26934 -10.26847 -10.26580 -10.26470
 Alpha  occ. eigenvalues --  -10.26467 -10.25773 -10.25084 -10.24857 -10.24748
 Alpha  occ. eigenvalues --  -10.23500 -10.23448 -10.23227 -10.23092 -10.22933
 Alpha  occ. eigenvalues --   -1.17207  -1.13462  -1.10696  -1.08875  -1.08715
 Alpha  occ. eigenvalues --   -1.07908  -1.07692  -1.03499  -1.00986  -0.98654
 Alpha  occ. eigenvalues --   -0.97352  -0.96151  -0.94828  -0.94133  -0.93169
 Alpha  occ. eigenvalues --   -0.92965  -0.90549  -0.87116  -0.85714  -0.84960
 Alpha  occ. eigenvalues --   -0.83591  -0.83452  -0.81969  -0.80998  -0.79273
 Alpha  occ. eigenvalues --   -0.78276  -0.77703  -0.75893  -0.75844  -0.74695
 Alpha  occ. eigenvalues --   -0.74004  -0.73740  -0.72335  -0.70647  -0.68857
 Alpha  occ. eigenvalues --   -0.68238  -0.68173  -0.67949  -0.66731  -0.66392
 Alpha  occ. eigenvalues --   -0.65870  -0.65069  -0.64581  -0.64045  -0.63335
 Alpha  occ. eigenvalues --   -0.63049  -0.62314  -0.61141  -0.60640  -0.60411
 Alpha  occ. eigenvalues --   -0.58975  -0.58545  -0.58133  -0.57547  -0.55908
 Alpha  occ. eigenvalues --   -0.55628  -0.54777  -0.54379  -0.54042  -0.53785
 Alpha  occ. eigenvalues --   -0.53346  -0.53288  -0.53055  -0.52636  -0.51783
 Alpha  occ. eigenvalues --   -0.51471  -0.51147  -0.50764  -0.50481  -0.49951
 Alpha  occ. eigenvalues --   -0.49538  -0.49388  -0.49284  -0.48948  -0.48611
 Alpha  occ. eigenvalues --   -0.48027  -0.47832  -0.47584  -0.47132  -0.46635
 Alpha  occ. eigenvalues --   -0.46489  -0.46235  -0.46042  -0.45618  -0.45422
 Alpha  occ. eigenvalues --   -0.45276  -0.44885  -0.44714  -0.44322  -0.43947
 Alpha  occ. eigenvalues --   -0.43689  -0.43604  -0.43513  -0.43082  -0.42308
 Alpha  occ. eigenvalues --   -0.41925  -0.41617  -0.41528  -0.41353  -0.41160
 Alpha  occ. eigenvalues --   -0.40948  -0.40660  -0.40412  -0.39876  -0.39818
 Alpha  occ. eigenvalues --   -0.39476  -0.39163  -0.39048  -0.38984  -0.38653
 Alpha  occ. eigenvalues --   -0.36985  -0.35420  -0.34324  -0.33296  -0.32675
 Alpha  occ. eigenvalues --   -0.32425  -0.32096  -0.31567  -0.31337  -0.31235
 Alpha  occ. eigenvalues --   -0.30397  -0.29682  -0.29588  -0.26135  -0.25812
 Alpha  occ. eigenvalues --   -0.23431
 Alpha virt. eigenvalues --   -0.13959  -0.08524  -0.08165  -0.07559  -0.07279
 Alpha virt. eigenvalues --   -0.07143  -0.05669  -0.05153  -0.04424  -0.04193
 Alpha virt. eigenvalues --   -0.02769  -0.01705  -0.00927  -0.00150   0.00587

 Mulliken charges:
               1
     1  N   -0.763050
     2  H    0.410721
     3  H    0.396316
     4  H    0.414331
     5  C   -0.132582
     6  H    0.239888
     7  C    0.630043
     8  C   -0.088553
     9  H    0.150510
    10  O   -0.562018
    11  C   -0.274023
    12  H    0.104592
    13  H    0.160202
    14  C   -0.482159
    15  H    0.174015
    16  H    0.169871
    17  H    0.191842
    18  C   -0.452288
    19  H    0.165008
    20  H    0.155881
    21  H    0.171465
    22  N   -0.590747
    23  H    0.402865
    24  C   -0.072441
    25  H    0.211513
    26  C    0.629636
    27  C   -0.409894
    28  H    0.156968
    29  H    0.207602
    30  O   -0.511633
    31  C    0.169301
    32  C   -0.156736
    33  H    0.143481
    34  C   -0.192162
    35  H    0.170026
    36  C   -0.130509
    37  H    0.151854
    38  C   -0.200895
    39  H    0.150929
    40  C   -0.151649
    41  H    0.147916
    42  N   -0.602273
    43  H    0.351167
    44  C   -0.060092
    45  H    0.170707
    46  C    0.633180
    47  C   -0.094334
    48  H    0.143268
    49  O   -0.557647
    50  C   -0.443779
    51  H    0.155230
    52  H    0.153200
    53  H    0.148640
    54  C   -0.472859
    55  H    0.134980
    56  H    0.179699
    57  H    0.157055
    58  N   -0.612470
    59  H    0.346590
    60  C   -0.029982
    61  H    0.180376
    62  C    0.557178
    63  C   -0.322466
    64  H    0.189496
    65  H    0.178109
    66  O   -0.545877
    67  C   -0.354147
    68  H    0.176242
    69  H    0.178560
    70  C    0.572643
    71  N   -0.738597
    72  H    0.419872
    73  H    0.322387
    74  O   -0.585033
    75  N   -0.594006
    76  H    0.353962
    77  C   -0.086434
    78  H    0.156154
    79  C    0.586508
    80  C   -0.255770
    81  H    0.169527
    82  H    0.133334
    83  O   -0.553234
    84  C   -0.267892
    85  H    0.156793
    86  H    0.170126
    87  C   -0.291560
    88  H    0.165205
    89  H    0.162564
    90  C   -0.206093
    91  H    0.227920
    92  H    0.227814
    93  N   -0.731736
    94  H    0.426311
    95  H    0.425548
    96  H    0.424840
    97  O   -0.634336
 Sum of Mulliken charges =   1.00000

 Dipole moment (field-independent basis, Debye):
    X=              5.4535    Y=              7.8303    Z=             13.4301  Tot=             16.4749
 Quadrupole moment (field-independent basis, Debye-Ang):
   XX=           -208.8754   YY=           -207.3171   ZZ=            131.1082
   XY=             45.0931   XZ=            161.7418   YZ=            132.0730

 Normal termination of Gaussian 16 at Sun Jun 19 17:48:51 2022.
