 Gaussian 16, Revision C.01,
 Gaussian 16:  ES64L-G16RevC.01  3-Jul-2019

 -------------------------------------------------------------------
 # B3LYP/6-31G* guess=read geom=check nosymm integral(ultrafinegrid)
 -------------------------------------------------------------------

 -----------------------------------------------------
 Candidate Structure: Conf:95 Charge calc in gas phase
 -----------------------------------------------------
 Structure from the checkpoint file:  "conf-95.chk"
 Charge =  1 Multiplicity = 1

                          Input orientation:
 ---------------------------------------------------------------------
 Center     Atomic      Atomic             Coordinates (Angstroms)
 Number     Number       Type             X           Y           Z
 ---------------------------------------------------------------------
      1          7           0       -4.974930    1.475361   -6.257160
      2          1           0       -4.586528    2.205939   -6.859496
      3          1           0       -5.996455    1.522664   -6.300883
      4          1           0       -4.619394    0.522917   -6.584886
      5          6           0       -4.439203    1.524180   -4.834885
      6          1           0       -3.917180    2.475997   -4.709697
      7          6           0       -3.435969    0.333812   -4.832280
      8          6           0       -5.604953    1.418901   -3.815027
      9          1           0       -6.317994    2.205114   -4.112396
     10          8           0       -3.502799   -0.466505   -5.783872
     11          6           0       -5.130098    1.777504   -2.387465
     12          1           0       -4.496389    2.674330   -2.437706
     13          1           0       -4.504355    0.972823   -1.983814
     14          6           0       -6.315822    0.056884   -3.881650
     15          1           0       -5.660014   -0.750623   -3.539274
     16          1           0       -7.201154    0.061959   -3.241731
     17          1           0       -6.658925   -0.203646   -4.891143
     18          6           0       -6.284610    2.052108   -1.415570
     19          1           0       -5.888341    2.358828   -0.443171
     20          1           0       -6.933162    2.857191   -1.780603
     21          1           0       -6.903584    1.164915   -1.249522
     22          7           0       -2.584466    0.261737   -3.821597
     23          1           0       -2.640233    0.879524   -3.006189
     24          6           0       -1.679626   -0.864793   -3.580109
     25          1           0       -2.236731   -1.793894   -3.743887
     26          6           0       -1.333783   -0.734988   -2.072024
     27          6           0       -0.446861   -0.854613   -4.534136
     28          1           0        0.328208   -0.197442   -4.124967
     29          1           0       -0.779996   -0.409795   -5.477572
     30          8           0       -1.841968    0.184383   -1.416151
     31          6           0        0.106769   -2.239532   -4.813704
     32          6           0        1.318101   -2.674217   -4.261678
     33          1           0        1.888189   -2.021894   -3.606456
     34          6           0       -0.611334   -3.113825   -5.645855
     35          1           0       -1.547603   -2.781051   -6.089907
     36          6           0        1.796879   -3.961010   -4.526605
     37          1           0        2.732270   -4.283959   -4.079382
     38          6           0       -0.130200   -4.393461   -5.915211
     39          1           0       -0.693485   -5.056677   -6.566001
     40          6           0        1.076739   -4.821193   -5.353866
     41          1           0        1.450858   -5.819480   -5.562405
     42          7           0       -0.500352   -1.655166   -1.567071
     43          1           0       -0.022749   -2.307424   -2.183736
     44          6           0       -0.017924   -1.634247   -0.182374
     45          1           0       -0.398206   -0.715403    0.271872
     46          6           0        1.520825   -1.625233   -0.258653
     47          6           0       -0.538865   -2.864782    0.612597
     48          1           0       -0.149883   -3.755956    0.100070
     49          8           0        2.099539   -2.342124   -1.080145
     50          6           0       -0.009054   -2.869742    2.054929
     51          1           0       -0.324284   -1.969355    2.597921
     52          1           0       -0.406014   -3.735124    2.595846
     53          1           0        1.082390   -2.924559    2.098424
     54          6           0       -2.072996   -2.920898    0.601147
     55          1           0       -2.503665   -2.038455    1.090308
     56          1           0       -2.472266   -2.973966   -0.416734
     57          1           0       -2.422336   -3.807069    1.141891
     58          7           0        2.147601   -0.815564    0.614088
     59          1           0        1.639476   -0.247750    1.288531
     60          6           0        3.593313   -0.776809    0.801667
     61          1           0        3.990805   -1.791380    0.719326
     62          6           0        3.801595   -0.223321    2.226033
     63          6           0        4.248010    0.121738   -0.280482
     64          1           0        3.991033   -0.320479   -1.249635
     65          1           0        3.770601    1.107320   -0.231742
     66          8           0        2.937868    0.486682    2.747478
     67          6           0        5.776800    0.334093   -0.188288
     68          1           0        6.029816    0.860326    0.739726
     69          1           0        6.077312    0.984471   -1.018308
     70          6           0        6.576330   -0.960287   -0.206762
     71          7           0        7.322797   -1.199589   -1.314247
     72          1           0        7.401540   -0.536656   -2.069712
     73          1           0        7.885558   -2.039216   -1.344651
     74          8           0        6.548187   -1.768238    0.727965
     75          7           0        4.962898   -0.569602    2.815816
     76          1           0        5.644250   -1.079501    2.246543
     77          6           0        5.393998    0.055768    4.053297
     78          1           0        4.563604    0.048411    4.763721
     79          6           0        5.807741    1.515245    3.849248
     80          6           0        6.595246   -0.743131    4.638152
     81          1           0        7.256936   -1.023354    3.807467
     82          1           0        6.190650   -1.678622    5.039761
     83          8           0        5.647962    2.213837    4.970855
     84          6           0        7.426078   -0.015546    5.721110
     85          1           0        6.759875    0.592543    6.339955
     86          1           0        7.856746   -0.772755    6.386214
     87          6           0        8.583754    0.855937    5.155064
     88          1           0        8.409850    1.080162    4.095712
     89          1           0        9.506541    0.264031    5.178952
     90          6           0        8.851632    2.186530    5.887068
     91          1           0        8.594889    2.096391    6.948587
     92          1           0        9.924346    2.422598    5.837720
     93          7           0        8.046316    3.303997    5.328032
     94          1           0        8.186964    4.147955    5.882039
     95          1           0        6.426430    2.869466    5.058821
     96          1           0        8.371226    3.517881    4.384744
     97          8           0        6.334731    1.940089    2.833045
 ---------------------------------------------------------------------

 SCF Done:  E(RB3LYP) =  -2122.36555836     A.U. after    1 cycles

 Alpha  occ. eigenvalues --  -19.26836 -19.21544 -19.20126 -19.17942 -19.17846
 Alpha  occ. eigenvalues --  -19.17104 -19.16596 -14.59753 -14.48972 -14.44868
 Alpha  occ. eigenvalues --  -14.42398 -14.42009 -14.39823 -14.39652 -10.43371
 Alpha  occ. eigenvalues --  -10.40428 -10.38642 -10.35513 -10.35105 -10.34790
 Alpha  occ. eigenvalues --  -10.34296 -10.34174 -10.33438 -10.30345 -10.30326
 Alpha  occ. eigenvalues --  -10.30179 -10.28755 -10.28730 -10.27556 -10.27453
 Alpha  occ. eigenvalues --  -10.27208 -10.26983 -10.26280 -10.25934 -10.25801
 Alpha  occ. eigenvalues --  -10.25605 -10.25555 -10.25496 -10.25442 -10.25071
 Alpha  occ. eigenvalues --  -10.23975 -10.23875 -10.23504 -10.23322 -10.22964
 Alpha  occ. eigenvalues --   -1.19125  -1.13797  -1.13228  -1.12275  -1.09820
 Alpha  occ. eigenvalues --   -1.09516  -1.08255  -1.05679  -1.03711  -1.01289
 Alpha  occ. eigenvalues --   -0.98448  -0.97123  -0.96697  -0.95172  -0.95130
 Alpha  occ. eigenvalues --   -0.92779  -0.89124  -0.87305  -0.86135  -0.85513
 Alpha  occ. eigenvalues --   -0.84329  -0.83792  -0.81922  -0.81133  -0.80270
 Alpha  occ. eigenvalues --   -0.79139  -0.76898  -0.76605  -0.75477  -0.74582
 Alpha  occ. eigenvalues --   -0.73859  -0.73761  -0.73191  -0.70768  -0.69931
 Alpha  occ. eigenvalues --   -0.68451  -0.67717  -0.67400  -0.67383  -0.66044
 Alpha  occ. eigenvalues --   -0.65747  -0.65382  -0.65073  -0.63998  -0.63747
 Alpha  occ. eigenvalues --   -0.62506  -0.62188  -0.61345  -0.60840  -0.59944
 Alpha  occ. eigenvalues --   -0.59754  -0.58925  -0.57650  -0.57356  -0.56759
 Alpha  occ. eigenvalues --   -0.55797  -0.55721  -0.55328  -0.55024  -0.54533
 Alpha  occ. eigenvalues --   -0.53985  -0.53787  -0.53445  -0.53340  -0.52830
 Alpha  occ. eigenvalues --   -0.52343  -0.52220  -0.52007  -0.51163  -0.50914
 Alpha  occ. eigenvalues --   -0.50708  -0.49931  -0.49890  -0.49676  -0.49527
 Alpha  occ. eigenvalues --   -0.49291  -0.48598  -0.48480  -0.48359  -0.48065
 Alpha  occ. eigenvalues --   -0.47804  -0.47527  -0.47044  -0.46807  -0.46523
 Alpha  occ. eigenvalues --   -0.46111  -0.45997  -0.45638  -0.45627  -0.45357
 Alpha  occ. eigenvalues --   -0.44990  -0.44715  -0.44464  -0.44447  -0.44104
 Alpha  occ. eigenvalues --   -0.43380  -0.42678  -0.42470  -0.41964  -0.41804
 Alpha  occ. eigenvalues --   -0.41756  -0.41135  -0.40962  -0.40656  -0.40573
 Alpha  occ. eigenvalues --   -0.40252  -0.40172  -0.39853  -0.39569  -0.38880
 Alpha  occ. eigenvalues --   -0.38071  -0.37941  -0.37594  -0.35840  -0.34605
 Alpha  occ. eigenvalues --   -0.33762  -0.33337  -0.32198  -0.32029  -0.31847
 Alpha  occ. eigenvalues --   -0.31665  -0.31441  -0.31364  -0.31097  -0.30203
 Alpha  occ. eigenvalues --   -0.29186
 Alpha virt. eigenvalues --   -0.12316  -0.11148  -0.08043  -0.07088  -0.06720
 Alpha virt. eigenvalues --   -0.06521  -0.04399  -0.04081  -0.03778  -0.02972
 Alpha virt. eigenvalues --   -0.02259  -0.01225  -0.00785   0.00426   0.00962

 Mulliken charges:
               1
     1  N   -0.763623
     2  H    0.415261
     3  H    0.410926
     4  H    0.435135
     5  C   -0.112919
     6  H    0.210338
     7  C    0.650733
     8  C   -0.099788
     9  H    0.150211
    10  O   -0.552478
    11  C   -0.291518
    12  H    0.149503
    13  H    0.181101
    14  C   -0.476693
    15  H    0.184646
    16  H    0.197180
    17  H    0.139124
    18  C   -0.459287
    19  H    0.182807
    20  H    0.156439
    21  H    0.166064
    22  N   -0.614540
    23  H    0.387323
    24  C   -0.054196
    25  H    0.203733
    26  C    0.616165
    27  C   -0.362147
    28  H    0.170057
    29  H    0.174874
    30  O   -0.550423
    31  C    0.133189
    32  C   -0.204408
    33  H    0.162341
    34  C   -0.185459
    35  H    0.138992
    36  C   -0.127668
    37  H    0.154312
    38  C   -0.127171
    39  H    0.143094
    40  C   -0.126978
    41  H    0.147251
    42  N   -0.610964
    43  H    0.373368
    44  C   -0.065006
    45  H    0.178243
    46  C    0.625022
    47  C   -0.075630
    48  H    0.148051
    49  O   -0.556219
    50  C   -0.463918
    51  H    0.151112
    52  H    0.159835
    53  H    0.165715
    54  C   -0.446610
    55  H    0.151495
    56  H    0.136485
    57  H    0.158320
    58  N   -0.612775
    59  H    0.359094
    60  C   -0.051363
    61  H    0.194660
    62  C    0.604849
    63  C   -0.265277
    64  H    0.162894
    65  H    0.160169
    66  O   -0.550963
    67  C   -0.402900
    68  H    0.232866
    69  H    0.138292
    70  C    0.618482
    71  N   -0.735846
    72  H    0.346549
    73  H    0.352049
    74  O   -0.531176
    75  N   -0.638035
    76  H    0.395814
    77  C   -0.016333
    78  H    0.184978
    79  C    0.597712
    80  C   -0.307012
    81  H    0.157205
    82  H    0.160887
    83  O   -0.596098
    84  C   -0.283860
    85  H    0.171413
    86  H    0.144979
    87  C   -0.288142
    88  H    0.162020
    89  H    0.148105
    90  C   -0.142647
    91  H    0.161792
    92  H    0.142985
    93  N   -0.770073
    94  H    0.328072
    95  H    0.452673
    96  H    0.334605
    97  O   -0.501452
 Sum of Mulliken charges =   1.00000

 Dipole moment (field-independent basis, Debye):
    X=             -8.1043    Y=              5.7048    Z=            -19.2020  Tot=             21.6088
 Quadrupole moment (field-independent basis, Debye-Ang):
   XX=            -56.3797   YY=           -235.3961   ZZ=           -115.1953
   XY=            -13.8185   XZ=            126.4121   YZ=            -22.7057

 Normal termination of Gaussian 16 at Sun Jun 19 17:47:50 2022.
