 Gaussian 16, Revision C.01,
 Gaussian 16:  ES64L-G16RevC.01  3-Jul-2019

 -------------------------------------------------------------------
 # B3LYP/6-31G* guess=read geom=check nosymm integral(ultrafinegrid)
 -------------------------------------------------------------------

 ------------------------------------------------------
 Candidate Structure: Conf:472 Charge calc in gas phase
 ------------------------------------------------------
 Structure from the checkpoint file:  "conf-472.chk"
 Charge =  1 Multiplicity = 1

                          Input orientation:
 ---------------------------------------------------------------------
 Center     Atomic      Atomic             Coordinates (Angstroms)
 Number     Number       Type             X           Y           Z
 ---------------------------------------------------------------------
      1          7           0       -6.295454   -1.921103   -3.293931
      2          1           0       -6.496373   -2.855418   -3.662667
      3          1           0       -7.167233   -1.384444   -3.280503
      4          1           0       -5.885415   -2.023533   -2.324167
      5          6           0       -5.180818   -1.206781   -4.043488
      6          1           0       -5.089448   -1.668161   -5.031060
      7          6           0       -3.951766   -1.530661   -3.147360
      8          6           0       -5.519791    0.303877   -4.183536
      9          1           0       -5.707726    0.683682   -3.167597
     10          8           0       -4.171347   -1.864747   -1.975543
     11          6           0       -6.794482    0.500058   -5.042176
     12          1           0       -7.609314   -0.161358   -4.704116
     13          1           0       -6.574995    0.190863   -6.073527
     14          6           0       -4.325452    1.079262   -4.764992
     15          1           0       -4.043425    0.687074   -5.752307
     16          1           0       -4.601348    2.126360   -4.907401
     17          1           0       -3.460402    1.063420   -4.097047
     18          6           0       -7.341772    1.933034   -5.031526
     19          1           0       -8.279409    1.981375   -5.593184
     20          1           0       -7.545338    2.275038   -4.010283
     21          1           0       -6.648524    2.641041   -5.493386
     22          7           0       -2.738365   -1.482717   -3.705516
     23          1           0       -2.650320   -1.060302   -4.621890
     24          6           0       -1.514375   -1.558153   -2.897972
     25          1           0       -1.593106   -2.449205   -2.268705
     26          6           0       -1.429080   -0.290626   -2.011181
     27          6           0       -0.308412   -1.690463   -3.858906
     28          1           0       -0.236374   -0.769391   -4.451096
     29          1           0       -0.536473   -2.508121   -4.555343
     30          8           0       -1.952210    0.760541   -2.376929
     31          6           0        1.012845   -1.959250   -3.167798
     32          6           0        1.247216   -3.189781   -2.535841
     33          1           0        0.479072   -3.961305   -2.548896
     34          6           0        2.030283   -0.997689   -3.170315
     35          1           0        1.869575   -0.044020   -3.667466
     36          6           0        2.469632   -3.449184   -1.915792
     37          1           0        2.640277   -4.411506   -1.441214
     38          6           0        3.257747   -1.259001   -2.558189
     39          1           0        4.043635   -0.509523   -2.587510
     40          6           0        3.478623   -2.483509   -1.926842
     41          1           0        4.436737   -2.690466   -1.458903
     42          7           0       -0.757778   -0.438802   -0.848469
     43          1           0       -0.257269   -1.299022   -0.652785
     44          6           0       -0.476593    0.683087    0.051558
     45          1           0       -0.686267    1.594805   -0.515638
     46          6           0        1.014552    0.573489    0.408881
     47          6           0       -1.359752    0.665601    1.326709
     48          1           0       -1.101590   -0.254783    1.871451
     49          8           0        1.452003   -0.491322    0.878867
     50          6           0       -1.037959    1.875624    2.219502
     51          1           0       -1.298270    2.812491    1.709750
     52          1           0       -1.631021    1.835873    3.139723
     53          1           0        0.020394    1.927575    2.496559
     54          6           0       -2.853638    0.619605    0.979172
     55          1           0       -3.151545    1.511993    0.416153
     56          1           0       -3.109033   -0.259759    0.379660
     57          1           0       -3.450367    0.587794    1.897576
     58          7           0        1.769452    1.646935    0.122782
     59          1           0        1.300927    2.482740   -0.201713
     60          6           0        3.202195    1.748362    0.390400
     61          1           0        3.623775    0.769385    0.130938
     62          6           0        3.455592    1.934180    1.916785
     63          6           0        3.845507    2.843998   -0.495570
     64          1           0        3.210110    3.029770   -1.368808
     65          1           0        3.887306    3.783410    0.068158
     66          8           0        2.520701    1.718410    2.727231
     67          6           0        5.255815    2.496555   -1.021747
     68          1           0        5.171364    1.738038   -1.808408
     69          1           0        5.905541    2.098235   -0.238791
     70          6           0        5.884049    3.746864   -1.648781
     71          7           0        6.830943    4.344730   -0.888049
     72          1           0        7.042297    4.051200    0.071053
     73          1           0        7.214868    5.216086   -1.228466
     74          8           0        5.498732    4.157437   -2.740782
     75          7           0        4.717039    2.212619    2.216417
     76          1           0        5.397834    2.531888    1.496536
     77          6           0        5.436704    2.438584    3.482865
     78          1           0        4.839278    3.084906    4.134556
     79          6           0        6.764951    3.191893    3.052187
     80          6           0        5.781521    1.124536    4.244647
     81          1           0        6.105646    1.400777    5.251810
     82          1           0        6.623086    0.616505    3.757471
     83          8           0        7.494565    3.555886    3.971361
     84          6           0        4.525760    0.259956    4.204415
     85          1           0        3.709261    0.888267    4.571403
     86          1           0        4.357150    0.126897    3.131871
     87          6           0        4.335726   -1.139169    4.798095
     88          1           0        4.062614   -1.110300    5.859482
     89          1           0        5.233193   -1.763963    4.715801
     90          6           0        3.238772   -1.826530    3.956262
     91          1           0        3.647400   -2.116045    2.985246
     92          1           0        2.808249   -2.712336    4.429981
     93          7           0        2.076577   -0.895201    3.619223
     94          1           0        1.580407   -1.187032    2.761579
     95          1           0        2.375682    0.090661    3.369068
     96          1           0        1.409226   -0.823499    4.391411
     97          8           0        6.907870    3.277183    1.783888
 ---------------------------------------------------------------------

 SCF Done:  E(RB3LYP) =  -2122.29068073     A.U. after    3 cycles

 Alpha  occ. eigenvalues --  -19.28703 -19.22626 -19.21982 -19.18921 -19.12886
 Alpha  occ. eigenvalues --  -19.10720 -19.08816 -14.61454 -14.53792 -14.51626
 Alpha  occ. eigenvalues --  -14.46886 -14.46126 -14.40634 -14.36446 -10.45348
 Alpha  occ. eigenvalues --  -10.42107 -10.39944 -10.38942 -10.36354 -10.35750
 Alpha  occ. eigenvalues --  -10.35289 -10.34989 -10.32980 -10.32735 -10.31369
 Alpha  occ. eigenvalues --  -10.31323 -10.30924 -10.30132 -10.29493 -10.29292
 Alpha  occ. eigenvalues --  -10.28799 -10.28341 -10.28333 -10.28111 -10.28005
 Alpha  occ. eigenvalues --  -10.27987 -10.27718 -10.27658 -10.26165 -10.26016
 Alpha  occ. eigenvalues --  -10.25616 -10.25566 -10.25151 -10.23842 -10.23500
 Alpha  occ. eigenvalues --   -1.21090  -1.15528  -1.14574  -1.13319  -1.09843
 Alpha  occ. eigenvalues --   -1.08391  -1.07997  -1.04598  -1.03335  -1.03138
 Alpha  occ. eigenvalues --   -1.02110  -0.97700  -0.96560  -0.95047  -0.94524
 Alpha  occ. eigenvalues --   -0.91518  -0.91400  -0.89611  -0.88849  -0.88364
 Alpha  occ. eigenvalues --   -0.86389  -0.84558  -0.83660  -0.83374  -0.82817
 Alpha  occ. eigenvalues --   -0.81227  -0.78710  -0.78424  -0.76988  -0.76473
 Alpha  occ. eigenvalues --   -0.75880  -0.75601  -0.74320  -0.73290  -0.71804
 Alpha  occ. eigenvalues --   -0.70562  -0.69986  -0.69667  -0.69476  -0.68837
 Alpha  occ. eigenvalues --   -0.68085  -0.67772  -0.67587  -0.66841  -0.65746
 Alpha  occ. eigenvalues --   -0.64728  -0.63794  -0.63159  -0.61986  -0.61684
 Alpha  occ. eigenvalues --   -0.60668  -0.60321  -0.59936  -0.59603  -0.58920
 Alpha  occ. eigenvalues --   -0.58452  -0.58114  -0.57533  -0.56770  -0.56558
 Alpha  occ. eigenvalues --   -0.56292  -0.55695  -0.55036  -0.54626  -0.54441
 Alpha  occ. eigenvalues --   -0.54271  -0.54034  -0.53686  -0.52983  -0.52319
 Alpha  occ. eigenvalues --   -0.52229  -0.51752  -0.51382  -0.50926  -0.50709
 Alpha  occ. eigenvalues --   -0.50289  -0.50200  -0.50043  -0.49775  -0.49388
 Alpha  occ. eigenvalues --   -0.49167  -0.48809  -0.48670  -0.48458  -0.47973
 Alpha  occ. eigenvalues --   -0.47724  -0.47571  -0.47486  -0.47233  -0.46512
 Alpha  occ. eigenvalues --   -0.46395  -0.46112  -0.45500  -0.45418  -0.44660
 Alpha  occ. eigenvalues --   -0.44599  -0.43624  -0.43607  -0.43195  -0.43062
 Alpha  occ. eigenvalues --   -0.42657  -0.42471  -0.42290  -0.42164  -0.41435
 Alpha  occ. eigenvalues --   -0.41246  -0.41160  -0.40343  -0.39624  -0.39539
 Alpha  occ. eigenvalues --   -0.39182  -0.38599  -0.37311  -0.37131  -0.36483
 Alpha  occ. eigenvalues --   -0.35899  -0.34981  -0.33982  -0.33494  -0.32457
 Alpha  occ. eigenvalues --   -0.31807  -0.28155  -0.26991  -0.25808  -0.25355
 Alpha  occ. eigenvalues --   -0.22970
 Alpha virt. eigenvalues --   -0.14479  -0.12372  -0.09913  -0.09385  -0.09164
 Alpha virt. eigenvalues --   -0.07923  -0.07668  -0.06580  -0.05863  -0.05182
 Alpha virt. eigenvalues --   -0.03326  -0.02854  -0.01640  -0.01403  -0.00900

 Mulliken charges:
               1
     1  N   -0.757008
     2  H    0.417344
     3  H    0.413184
     4  H    0.432995
     5  C   -0.120150
     6  H    0.205251
     7  C    0.669363
     8  C   -0.093998
     9  H    0.166242
    10  O   -0.538527
    11  C   -0.278602
    12  H    0.112352
    13  H    0.166232
    14  C   -0.520592
    15  H    0.146850
    16  H    0.194426
    17  H    0.225842
    18  C   -0.455003
    19  H    0.180062
    20  H    0.162610
    21  H    0.178949
    22  N   -0.588833
    23  H    0.359564
    24  C   -0.062326
    25  H    0.187952
    26  C    0.647785
    27  C   -0.392112
    28  H    0.172340
    29  H    0.177813
    30  O   -0.531566
    31  C    0.157696
    32  C   -0.196764
    33  H    0.127510
    34  C   -0.185636
    35  H    0.146185
    36  C   -0.125170
    37  H    0.146204
    38  C   -0.131992
    39  H    0.165406
    40  C   -0.123992
    41  H    0.151472
    42  N   -0.606223
    43  H    0.352459
    44  C   -0.044202
    45  H    0.174249
    46  C    0.654531
    47  C   -0.069071
    48  H    0.113246
    49  O   -0.607337
    50  C   -0.492626
    51  H    0.150593
    52  H    0.155097
    53  H    0.190795
    54  C   -0.456007
    55  H    0.154941
    56  H    0.152034
    57  H    0.152178
    58  N   -0.590560
    59  H    0.349272
    60  C   -0.040888
    61  H    0.187276
    62  C    0.606841
    63  C   -0.325358
    64  H    0.164734
    65  H    0.183153
    66  O   -0.593118
    67  C   -0.378103
    68  H    0.154763
    69  H    0.182383
    70  C    0.570308
    71  N   -0.767087
    72  H    0.408038
    73  H    0.333417
    74  O   -0.530941
    75  N   -0.620793
    76  H    0.408355
    77  C   -0.073655
    78  H    0.164824
    79  C    0.597008
    80  C   -0.265717
    81  H    0.176395
    82  H    0.151950
    83  O   -0.544616
    84  C   -0.303642
    85  H    0.158646
    86  H    0.135682
    87  C   -0.265528
    88  H    0.163852
    89  H    0.179171
    90  C   -0.195218
    91  H    0.207475
    92  H    0.187520
    93  N   -0.794528
    94  H    0.421790
    95  H    0.459578
    96  H    0.386998
    97  O   -0.633691
 Sum of Mulliken charges =   1.00000

 Dipole moment (field-independent basis, Debye):
    X=            -31.4913    Y=            -17.6132    Z=            -11.8493  Tot=             37.9780
 Quadrupole moment (field-independent basis, Debye-Ang):
   XX=           -208.5244   YY=           -266.9942   ZZ=           -184.5882
   XY=            -38.4275   XZ=             81.3044   YZ=             -2.8411

 Normal termination of Gaussian 16 at Sun Jun 19 17:48:50 2022.
