 Gaussian 16, Revision C.01,
 Gaussian 16:  ES64L-G16RevC.01  3-Jul-2019

 -------------------------------------------------------------------
 # B3LYP/6-31G* guess=read geom=check nosymm integral(ultrafinegrid)
 -------------------------------------------------------------------

 ------------------------------------------------------
 Candidate Structure: Conf:584 Charge calc in gas phase
 ------------------------------------------------------
 Structure from the checkpoint file:  "conf-584.chk"
 Charge =  1 Multiplicity = 1

                          Input orientation:
 ---------------------------------------------------------------------
 Center     Atomic      Atomic             Coordinates (Angstroms)
 Number     Number       Type             X           Y           Z
 ---------------------------------------------------------------------
      1          7           0       -4.548496    0.334859   -4.267567
      2          1           0       -4.046280    0.087761   -5.136679
      3          1           0       -5.125044    1.167435   -4.416649
      4          1           0       -5.128981   -0.494771   -4.021174
      5          6           0       -3.583670    0.463138   -3.096865
      6          1           0       -2.699207    0.990952   -3.459079
      7          6           0       -3.281727   -1.023680   -2.814345
      8          6           0       -4.254094    1.229119   -1.928568
      9          1           0       -4.502346    2.226120   -2.329030
     10          8           0       -4.219307   -1.824535   -2.930138
     11          6           0       -3.258129    1.439225   -0.763129
     12          1           0       -2.841804    0.471587   -0.453822
     13          1           0       -3.842080    1.801151    0.090981
     14          6           0       -5.553508    0.572108   -1.429957
     15          1           0       -5.367104   -0.410088   -0.987788
     16          1           0       -6.006225    1.210758   -0.665877
     17          1           0       -6.306026    0.442592   -2.218223
     18          6           0       -2.129829    2.437964   -1.047151
     19          1           0       -1.522741    2.580410   -0.147198
     20          1           0       -1.456360    2.101093   -1.842133
     21          1           0       -2.532178    3.418672   -1.330297
     22          7           0       -2.015734   -1.331532   -2.531891
     23          1           0       -1.294986   -0.603985   -2.579285
     24          6           0       -1.564242   -2.715809   -2.496942
     25          1           0       -2.455429   -3.327750   -2.326663
     26          6           0       -0.656612   -2.870312   -1.253246
     27          6           0       -0.937322   -3.106452   -3.870468
     28          1           0       -0.770948   -4.190563   -3.881528
     29          1           0        0.041336   -2.621615   -3.968884
     30          8           0       -0.893924   -2.213072   -0.244568
     31          6           0       -1.813072   -2.716353   -5.046741
     32          6           0       -2.838911   -3.559018   -5.495215
     33          1           0       -2.980076   -4.529292   -5.025258
     34          6           0       -1.647926   -1.472348   -5.674295
     35          1           0       -0.851936   -0.808358   -5.346889
     36          6           0       -3.688744   -3.169789   -6.531440
     37          1           0       -4.472996   -3.842420   -6.866300
     38          6           0       -2.497945   -1.075442   -6.714587
     39          1           0       -2.322711   -0.129570   -7.223717
     40          6           0       -3.525440   -1.924556   -7.143871
     41          1           0       -4.170778   -1.631801   -7.967793
     42          7           0        0.363938   -3.763655   -1.335705
     43          1           0        0.617346   -4.156304   -2.232156
     44          6           0        1.361234   -3.888087   -0.258070
     45          1           0        0.812331   -3.788344    0.682977
     46          6           0        2.339592   -2.702630   -0.435252
     47          6           0        2.075473   -5.250084   -0.306813
     48          1           0        2.617360   -5.295614   -1.261751
     49          8           0        3.285480   -2.757112   -1.219971
     50          6           0        3.113177   -5.346712    0.822466
     51          1           0        2.635685   -5.259806    1.806804
     52          1           0        3.620707   -6.316231    0.786207
     53          1           0        3.876424   -4.568242    0.734996
     54          6           0        1.077339   -6.414850   -0.230563
     55          1           0        0.528954   -6.401288    0.719565
     56          1           0        0.339082   -6.388366   -1.039098
     57          1           0        1.607128   -7.371147   -0.294249
     58          7           0        2.008308   -1.593292    0.271866
     59          1           0        1.159629   -1.577955    0.829424
     60          6           0        2.704069   -0.324393    0.151597
     61          1           0        3.731634   -0.536597   -0.158137
     62          6           0        2.649382    0.355774    1.532280
     63          6           0        2.015898    0.613479   -0.871620
     64          1           0        0.971003    0.729305   -0.562475
     65          1           0        2.482412    1.605690   -0.817062
     66          8           0        1.621512    0.296528    2.204977
     67          6           0        2.078083    0.089314   -2.321751
     68          1           0        1.749586   -0.951211   -2.354639
     69          1           0        3.110155    0.110683   -2.688461
     70          6           0        1.157726    0.884754   -3.228610
     71          7           0        1.726516    1.878084   -3.944865
     72          1           0        2.716995    2.069211   -3.907576
     73          1           0        1.146757    2.464029   -4.530566
     74          8           0       -0.063978    0.662571   -3.298142
     75          7           0        3.760910    1.028893    1.898342
     76          1           0        4.567044    1.099629    1.285620
     77          6           0        3.832490    1.865457    3.088684
     78          1           0        2.905333    2.443139    3.174782
     79          6           0        5.019677    2.800523    2.905649
     80          6           0        4.002375    1.051379    4.401213
     81          1           0        3.212202    0.294016    4.384209
     82          1           0        3.776871    1.722480    5.237056
     83          8           0        5.144099    3.661523    3.900903
     84          6           0        5.369366    0.365909    4.641440
     85          1           0        5.166632   -0.513930    5.262399
     86          1           0        5.759778   -0.034795    3.695822
     87          6           0        6.471301    1.197841    5.366942
     88          1           0        6.931839    0.548743    6.119597
     89          1           0        5.995117    2.010402    5.929223
     90          6           0        7.614437    1.790222    4.497980
     91          1           0        8.578517    1.377573    4.823993
     92          1           0        7.486319    1.515841    3.448473
     93          7           0        7.647822    3.278434    4.538836
     94          1           0        8.374041    3.624004    3.912260
     95          1           0        7.895081    3.597842    5.475687
     96          1           0        6.159916    3.783444    4.070472
     97          8           0        5.818466    2.661964    1.988128
 ---------------------------------------------------------------------

 SCF Done:  E(RB3LYP) =  -2122.36939475     A.U. after    1 cycles

 Alpha  occ. eigenvalues --  -19.23657 -19.23130 -19.21912 -19.20493 -19.19274
 Alpha  occ. eigenvalues --  -19.18394 -19.18222 -14.58267 -14.46923 -14.46885
 Alpha  occ. eigenvalues --  -14.45379 -14.42902 -14.42573 -14.41136 -10.40732
 Alpha  occ. eigenvalues --  -10.40276 -10.38039 -10.37846 -10.37019 -10.35692
 Alpha  occ. eigenvalues --  -10.35531 -10.33738 -10.31919 -10.31028 -10.30689
 Alpha  occ. eigenvalues --  -10.30108 -10.29922 -10.29497 -10.29402 -10.29234
 Alpha  occ. eigenvalues --  -10.29109 -10.28863 -10.28842 -10.28776 -10.28314
 Alpha  occ. eigenvalues --  -10.28091 -10.27987 -10.27731 -10.26395 -10.26168
 Alpha  occ. eigenvalues --  -10.24533 -10.24445 -10.24409 -10.24106 -10.23585
 Alpha  occ. eigenvalues --   -1.16462  -1.14459  -1.14176  -1.12732  -1.11817
 Alpha  occ. eigenvalues --   -1.10610  -1.09853  -1.05916  -1.03956  -1.01494
 Alpha  occ. eigenvalues --   -1.01340  -0.99491  -0.99020  -0.96387  -0.95638
 Alpha  occ. eigenvalues --   -0.93006  -0.89551  -0.88483  -0.87244  -0.85739
 Alpha  occ. eigenvalues --   -0.85259  -0.84395  -0.83212  -0.82494  -0.81796
 Alpha  occ. eigenvalues --   -0.80371  -0.77767  -0.76117  -0.75466  -0.74794
 Alpha  occ. eigenvalues --   -0.74072  -0.72392  -0.72073  -0.71331  -0.70533
 Alpha  occ. eigenvalues --   -0.70030  -0.69234  -0.68697  -0.68365  -0.68160
 Alpha  occ. eigenvalues --   -0.66830  -0.66493  -0.65431  -0.65411  -0.65320
 Alpha  occ. eigenvalues --   -0.64413  -0.63004  -0.62569  -0.61264  -0.60742
 Alpha  occ. eigenvalues --   -0.59997  -0.59252  -0.58612  -0.57886  -0.57644
 Alpha  occ. eigenvalues --   -0.57077  -0.56602  -0.56184  -0.55666  -0.55468
 Alpha  occ. eigenvalues --   -0.55028  -0.54962  -0.54614  -0.53726  -0.53141
 Alpha  occ. eigenvalues --   -0.53012  -0.52627  -0.52505  -0.52192  -0.51869
 Alpha  occ. eigenvalues --   -0.51731  -0.51406  -0.51057  -0.50845  -0.50684
 Alpha  occ. eigenvalues --   -0.50555  -0.50062  -0.49616  -0.49430  -0.49108
 Alpha  occ. eigenvalues --   -0.48942  -0.48279  -0.48126  -0.47543  -0.47339
 Alpha  occ. eigenvalues --   -0.47031  -0.46835  -0.46357  -0.46168  -0.45985
 Alpha  occ. eigenvalues --   -0.45725  -0.45319  -0.44955  -0.44763  -0.44411
 Alpha  occ. eigenvalues --   -0.44187  -0.44114  -0.43781  -0.43613  -0.43529
 Alpha  occ. eigenvalues --   -0.42869  -0.42770  -0.42640  -0.42599  -0.41809
 Alpha  occ. eigenvalues --   -0.40818  -0.40362  -0.39725  -0.39124  -0.39047
 Alpha  occ. eigenvalues --   -0.38361  -0.38249  -0.38021  -0.37092  -0.36894
 Alpha  occ. eigenvalues --   -0.35988  -0.35727  -0.35142  -0.34915  -0.33882
 Alpha  occ. eigenvalues --   -0.33457  -0.33251  -0.32806  -0.31848  -0.31380
 Alpha  occ. eigenvalues --   -0.31261
 Alpha virt. eigenvalues --   -0.11086  -0.10587  -0.10400  -0.08990  -0.08144
 Alpha virt. eigenvalues --   -0.07386  -0.05124  -0.04776  -0.03641  -0.03293
 Alpha virt. eigenvalues --   -0.02856  -0.01557  -0.01131  -0.00284   0.00109

 Mulliken charges:
               1
     1  N   -0.757555
     2  H    0.409693
     3  H    0.402693
     4  H    0.426128
     5  C   -0.131226
     6  H    0.217149
     7  C    0.660690
     8  C   -0.097438
     9  H    0.138988
    10  O   -0.553007
    11  C   -0.278526
    12  H    0.182725
    13  H    0.165534
    14  C   -0.470803
    15  H    0.197709
    16  H    0.181350
    17  H    0.126326
    18  C   -0.486053
    19  H    0.177224
    20  H    0.163212
    21  H    0.147658
    22  N   -0.600293
    23  H    0.398406
    24  C   -0.071612
    25  H    0.220987
    26  C    0.622748
    27  C   -0.396894
    28  H    0.169126
    29  H    0.170484
    30  O   -0.518140
    31  C    0.168137
    32  C   -0.153119
    33  H    0.150104
    34  C   -0.198856
    35  H    0.157546
    36  C   -0.128318
    37  H    0.160152
    38  C   -0.201688
    39  H    0.147351
    40  C   -0.143762
    41  H    0.154417
    42  N   -0.625025
    43  H    0.346704
    44  C   -0.034122
    45  H    0.174446
    46  C    0.619324
    47  C   -0.100647
    48  H    0.148865
    49  O   -0.550953
    50  C   -0.463330
    51  H    0.147176
    52  H    0.159558
    53  H    0.170932
    54  C   -0.446881
    55  H    0.153186
    56  H    0.134416
    57  H    0.161183
    58  N   -0.595613
    59  H    0.370660
    60  C   -0.060911
    61  H    0.176506
    62  C    0.626279
    63  C   -0.273489
    64  H    0.180555
    65  H    0.154339
    66  O   -0.538236
    67  C   -0.356151
    68  H    0.187607
    69  H    0.166549
    70  C    0.600305
    71  N   -0.718971
    72  H    0.363347
    73  H    0.353041
    74  O   -0.551745
    75  N   -0.617817
    76  H    0.350665
    77  C   -0.035280
    78  H    0.185346
    79  C    0.601423
    80  C   -0.268151
    81  H    0.174134
    82  H    0.161737
    83  O   -0.606978
    84  C   -0.287130
    85  H    0.151372
    86  H    0.143240
    87  C   -0.282700
    88  H    0.151123
    89  H    0.157700
    90  C   -0.159268
    91  H    0.149497
    92  H    0.182632
    93  N   -0.775070
    94  H    0.337332
    95  H    0.330268
    96  H    0.458752
    97  O   -0.510983
 Sum of Mulliken charges =   1.00000

 Dipole moment (field-independent basis, Debye):
    X=             -3.2754    Y=              2.4510    Z=            -14.1319  Tot=             14.7122
 Quadrupole moment (field-independent basis, Debye-Ang):
   XX=           -140.3901   YY=           -227.3888   ZZ=           -152.2955
   XY=             11.3510   XZ=             96.6078   YZ=              1.1305

 Normal termination of Gaussian 16 at Sun Jun 19 17:47:58 2022.
