 Gaussian 16, Revision C.01,
 Gaussian 16:  ES64L-G16RevC.01  3-Jul-2019

 -------------------------------------------------------------------
 # B3LYP/6-31G* guess=read geom=check nosymm integral(ultrafinegrid)
 -------------------------------------------------------------------

 ----------------------------------------------------
 Candidate Structure: Conf:1 Charge calc in gas phase
 ----------------------------------------------------
 Structure from the checkpoint file:  "conf-1.chk"
 Charge =  1 Multiplicity = 1

                          Input orientation:
 ---------------------------------------------------------------------
 Center     Atomic      Atomic             Coordinates (Angstroms)
 Number     Number       Type             X           Y           Z
 ---------------------------------------------------------------------
      1          7           0        9.242441    0.850672   -6.301141
      2          1           0        8.888438    0.391370   -7.179398
      3          1           0        8.901299    1.844264   -6.264088
      4          1           0       10.285072    0.906251   -6.388104
      5          6           0        8.876251    0.068327   -5.044447
      6          1           0        9.442591   -0.863745   -5.065062
      7          6           0        7.397703   -0.361640   -4.959368
      8          6           0        9.244652    0.868077   -3.772799
      9          1           0        8.528213    1.696200   -3.665364
     10          1           0        9.079292    0.196765   -2.921983
     11          8           0        7.114832   -1.233947   -4.136699
     12          6           0       10.679893    1.448154   -3.694079
     13          1           0       10.793612    2.198821   -4.495855
     14          6           0       10.853227    2.178341   -2.351790
     15          1           0       10.107731    2.972313   -2.226287
     16          1           0       10.743609    1.479284   -1.513339
     17          1           0       11.844847    2.635534   -2.280375
     18          6           0       11.764872    0.372078   -3.876912
     19          1           0       11.695730   -0.387406   -3.088029
     20          1           0       12.763143    0.816562   -3.820625
     21          1           0       11.698508   -0.149432   -4.845054
     22          7           0        6.457015    0.220641   -5.771432
     23          1           0        6.721369    1.001162   -6.372468
     24          6           0        5.025169   -0.038613   -5.583340
     25          1           0        4.730320    0.151479   -4.546890
     26          1           0        4.470023    0.656426   -6.221683
     27          6           0        4.535656   -1.462860   -5.904340
     28          8           0        3.479695   -1.842067   -5.412901
     29          7           0        5.273230   -2.212723   -6.769995
     30          1           0        6.159733   -1.831705   -7.083784
     31          6           0        5.017710   -3.652230   -6.983567
     32          1           0        3.980987   -3.771202   -7.306418
     33          6           0        5.103311   -4.471798   -5.674810
     34          6           0        5.984495   -4.168284   -8.055509
     35          1           0        5.841544   -3.612407   -8.989053
     36          1           0        5.807767   -5.227802   -8.254752
     37          1           0        7.028517   -4.051538   -7.737021
     38          8           0        4.168764   -5.205839   -5.344978
     39          7           0        6.236939   -4.361179   -4.917409
     40          1           0        6.868118   -3.581786   -5.061786
     41          6           0        6.344216   -5.125440   -3.674744
     42          1           0        6.079927   -6.160084   -3.904140
     43          6           0        5.351702   -4.689646   -2.578615
     44          6           0        7.777884   -5.117812   -3.134930
     45          1           0        7.770277   -5.547533   -2.125238
     46          1           0        8.161622   -4.089521   -3.051228
     47          8           0        4.980627   -5.519734   -1.739717
     48          6           0        8.703500   -5.979941   -4.006148
     49          7           0       10.027925   -5.638057   -3.963391
     50          1           0       10.683761   -6.219026   -4.472173
     51          1           0       10.383972   -4.915442   -3.353629
     52          8           0        8.287671   -6.922633   -4.660847
     53          7           0        4.938958   -3.392059   -2.565027
     54          1           0        5.426229   -2.708199   -3.135700
     55          6           0        3.890251   -2.941262   -1.640240
     56          1           0        4.182443   -3.201990   -0.618263
     57          6           0        2.555507   -3.687541   -1.870155
     58          6           0        3.709914   -1.423295   -1.760701
     59          1           0        2.983076   -1.069680   -1.024365
     60          1           0        3.350836   -1.148546   -2.758831
     61          1           0        4.664195   -0.914293   -1.575304
     62          8           0        1.950144   -4.165558   -0.902188
     63          7           0        2.097345   -3.776662   -3.148667
     64          1           0        2.605311   -3.329569   -3.904214
     65          6           0        0.806263   -4.414176   -3.429490
     66          1           0        0.079315   -4.018801   -2.712056
     67          6           0        0.822237   -5.931144   -3.162161
     68          6           0        0.313888   -4.050686   -4.862943
     69          1           0        1.137124   -4.280521   -5.558511
     70          8           0       -0.203285   -6.473834   -2.717794
     71          6           0        0.018155   -2.529312   -4.921110
     72          1           0        0.854790   -1.977896   -4.476192
     73          1           0       -0.851953   -2.336572   -4.275780
     74          6           0       -0.927362   -4.864067   -5.268349
     75          1           0       -1.775253   -4.631900   -4.613954
     76          1           0       -0.753894   -5.941908   -5.224686
     77          1           0       -1.220097   -4.619556   -6.293487
     78          6           0       -0.252368   -1.982915   -6.326177
     79          1           0        0.586782   -2.190729   -7.002848
     80          1           0       -0.395669   -0.896241   -6.296530
     81          1           0       -1.153511   -2.417759   -6.770581
     82          7           0        1.945427   -6.637767   -3.440805
     83          1           0        2.767622   -6.152678   -3.793456
     84          6           0        2.059497   -8.047059   -3.032389
     85          1           0        1.224701   -8.596000   -3.475389
     86          6           0        1.887901   -8.218642   -1.508263
     87          6           0        3.394172   -8.653777   -3.510771
     88          1           0        3.528659   -9.626376   -3.019134
     89          1           0        4.211295   -8.005805   -3.161734
     90          8           0        1.096774   -9.059480   -1.051301
     91          6           0        3.507236   -8.850575   -5.043861
     92          1           0        3.169209   -7.924652   -5.531896
     93          6           0        4.970570   -9.107497   -5.438722
     94          1           0        5.333421  -10.037951   -4.981579
     95          1           0        5.067838   -9.219056   -6.525733
     96          1           0        5.645278   -8.304095   -5.122403
     97          6           0        2.617587  -10.007508   -5.532365
     98          1           0        2.634700  -10.079226   -6.625912
     99          1           0        2.974675  -10.964266   -5.128791
    100          1           0        1.572423   -9.888909   -5.224848
    101          7           0        2.624820   -7.404393   -0.710249
    102          1           0        3.302364   -6.762311   -1.113442
    103          6           0        2.549600   -7.511729    0.739417
    104          1           0        3.251425   -6.779371    1.152690
    105          1           0        2.844545   -8.510025    1.078718
    106          6           0        1.152650   -7.267315    1.342717
    107          8           0        0.748532   -7.993707    2.267597
    108          7           0        0.434033   -6.232072    0.831287
    109          1           0        0.858970   -5.632641    0.125314
    110          6           0       -0.927572   -5.945925    1.299379
    111          1           0       -0.910915   -5.935329    2.394292
    112          6           0       -1.930829   -7.059291    0.942455
    113          6           0       -1.368910   -4.538640    0.794955
    114          1           0       -1.059676   -4.470277   -0.259365
    115          8           0       -2.876169   -7.312243    1.705073
    116          6           0       -2.889135   -4.323810    0.867513
    117          1           0       -3.252096   -4.432624    1.895640
    118          1           0       -3.135532   -3.311832    0.525695
    119          1           0       -3.436949   -5.035155    0.244128
    120          6           0       -0.632423   -3.454244    1.601305
    121          1           0        0.452324   -3.610199    1.601996
    122          1           0       -0.978350   -3.460295    2.643022
    123          1           0       -0.833851   -2.458273    1.189289
    124          7           0       -1.746031   -7.685544   -0.244814
    125          1           0       -0.956739   -7.419753   -0.826427
    126          6           0       -2.617406   -8.771815   -0.696722
    127          1           0       -3.658428   -8.444480   -0.636823
    128          6           0       -2.500114   -9.999757    0.220428
    129          6           0       -2.294537   -9.129676   -2.164221
    130          1           0       -2.977765   -9.923749   -2.482888
    131          1           0       -1.264794   -9.511202   -2.227027
    132          8           0       -3.514156  -10.617518    0.582529
    133          8           0       -2.498615   -8.033814   -3.037738
    134          1           0       -1.699610   -7.476304   -3.018336
    135          7           0       -1.246417  -10.367735    0.596480
    136          1           0       -0.449463   -9.826873    0.263556
    137          6           0       -1.013976  -11.507069    1.482762
    138          1           0       -1.625390  -12.343950    1.135009
    139          6           0       -1.481294  -11.262882    2.940902
    140          6           0        0.483234  -11.884985    1.388945
    141          1           0        1.074156  -10.987638    1.625443
    142          1           0        0.684340  -12.135671    0.337413
    143          8           0       -1.884093  -12.217234    3.630854
    144          6           0        0.970132  -13.049573    2.278812
    145          1           0        0.871887  -12.720550    3.323867
    146          6           0        0.153926  -14.340793    2.086190
    147          1           0        0.503167  -15.126156    2.773848
    148          1           0        0.277944  -14.722947    1.064307
    149          1           0       -0.913366  -14.192129    2.271045
    150          6           0        2.460860  -13.306864    1.997012
    151          1           0        3.067567  -12.408490    2.170577
    152          1           0        2.854733  -14.107672    2.636703
    153          1           0        2.606975  -13.614754    0.953690
    154          7           0       -1.411225   -9.994964    3.422055
    155          1           0       -0.904949   -9.278514    2.899411
    156          6           0       -1.967874   -9.647320    4.733008
    157          1           0       -1.515447  -10.293556    5.489878
    158          6           0       -3.501816   -9.885180    4.844616
    159          6           0       -1.652862   -8.177402    5.049442
    160          1           0       -2.110985   -7.512819    4.310191
    161          1           0       -2.044932   -7.920329    6.038824
    162          1           0       -0.569433   -8.009330    5.045214
    163          8           0       -3.965754  -10.494736    5.806916
    164          7           0       -4.252855   -9.340524    3.837182
    165          1           0       -3.787971   -8.752572    3.149449
    166          6           0       -5.722665   -9.360618    3.830864
    167          1           0       -6.064897   -9.209961    4.859567
    168          6           0       -6.412672  -10.670825    3.384026
    169          6           0       -6.238924   -8.225933    2.935149
    170          1           0       -5.897263   -8.360289    1.901877
    171          1           0       -7.331982   -8.222137    2.945018
    172          1           0       -5.875994   -7.255897    3.294001
    173          8           0       -7.558814  -10.898440    3.770205
    174          7           0       -5.735730  -11.474020    2.524515
    175          1           0       -4.812039  -11.194198    2.205281
    176          6           0       -6.308364  -12.717571    1.983684
    177          1           0       -7.392824  -12.579787    1.942665
    178          6           0       -5.943799  -13.859434    2.947591
    179          6           0       -5.738691  -12.982093    0.584068
    180          1           0       -4.653597  -13.119972    0.663572
    181          1           0       -6.159883  -13.918626    0.204513
    182          8           0       -5.021647  -14.653051    2.683372
    183          8           0       -6.069396  -11.952900   -0.336131
    184          1           0       -5.416615  -11.242247   -0.191555
    185          7           0       -6.631467  -13.884375    4.111041
    186          1           0       -7.418225  -13.267343    4.335606
    187          6           0       -6.240262  -14.791619    5.171411
    188          1           0       -6.116247  -15.811088    4.785732
    189          6           0       -7.340555  -14.806609    6.278524
    190          6           0       -4.903601  -14.272441    5.729594
    191          1           0       -4.275456  -14.094085    4.844938
    192          1           0       -5.088576  -13.300023    6.203731
    193          8           0       -7.188275  -15.655904    7.210828
    194          6           0       -4.176161  -15.214668    6.682446
    195          1           0       -3.868738  -16.117139    6.133638
    196          1           0       -4.835983  -15.552009    7.489201
    197          6           0       -2.943804  -14.529757    7.265917
    198          1           0       -2.425795  -15.215904    7.951366
    199          1           0       -3.223921  -13.632946    7.834586
    200          7           0       -2.037030  -14.149200    6.157773
    201          1           0       -2.539471  -13.826718    5.321468
    202          7           0       -0.299995  -13.467638    7.552397
    203          1           0        0.692998  -13.292706    7.630976
    204          1           0       -0.714538  -13.990203    8.313212
    205          7           0       -0.235150  -13.014533    5.269441
    206          1           0       -0.528951  -13.311543    4.343712
    207          1           0        0.745791  -12.779301    5.352575
    208          6           0       -0.861119  -13.566448    6.331090
    209          8           0       -8.284888  -13.982776    6.186795
 ---------------------------------------------------------------------

 SCF Done:  E(RB3LYP) =  -4860.26522715     A.U. after    3 cycles

 Alpha  occ. eigenvalues --  -19.29752 -19.25572 -19.23643 -19.22315 -19.21549
 Alpha  occ. eigenvalues --  -19.20790 -19.19851 -19.18875 -19.17780 -19.16344
 Alpha  occ. eigenvalues --  -19.16138 -19.16130 -19.16083 -19.12538 -19.12377
 Alpha  occ. eigenvalues --  -19.09848 -19.09377 -19.06947 -19.06507 -14.64455
 Alpha  occ. eigenvalues --  -14.54679 -14.50254 -14.48192 -14.46837 -14.46269
 Alpha  occ. eigenvalues --  -14.46017 -14.44838 -14.44060 -14.43723 -14.43717
 Alpha  occ. eigenvalues --  -14.43204 -14.41637 -14.40326 -14.40264 -14.39786
 Alpha  occ. eigenvalues --  -14.36724 -14.34697 -14.32764 -10.47458 -10.44022
 Alpha  occ. eigenvalues --  -10.43144 -10.40723 -10.40708 -10.39544 -10.39475
 Alpha  occ. eigenvalues --  -10.38509 -10.37889 -10.36911 -10.36089 -10.35973
 Alpha  occ. eigenvalues --  -10.35847 -10.35080 -10.34634 -10.34426 -10.33395
 Alpha  occ. eigenvalues --  -10.33153 -10.33074 -10.33042 -10.31966 -10.31568
 Alpha  occ. eigenvalues --  -10.31114 -10.30848 -10.30472 -10.30432 -10.29903
 Alpha  occ. eigenvalues --  -10.29617 -10.28862 -10.28101 -10.27761 -10.27385
 Alpha  occ. eigenvalues --  -10.27308 -10.27201 -10.26871 -10.26758 -10.26353
 Alpha  occ. eigenvalues --  -10.26168 -10.25890 -10.25335 -10.25214 -10.25013
 Alpha  occ. eigenvalues --  -10.24963 -10.24217 -10.24039 -10.23818 -10.23547
 Alpha  occ. eigenvalues --  -10.23328 -10.23199 -10.22999 -10.22970 -10.22476
 Alpha  occ. eigenvalues --  -10.22080 -10.21587 -10.21560 -10.21500 -10.21224
 Alpha  occ. eigenvalues --  -10.19754 -10.19511 -10.18846 -10.17747  -1.21576
 Alpha  occ. eigenvalues --   -1.18008  -1.17493  -1.15161  -1.13711  -1.13431
 Alpha  occ. eigenvalues --   -1.12144  -1.11254  -1.10022  -1.09789  -1.09680
 Alpha  occ. eigenvalues --   -1.08698  -1.07831  -1.07344  -1.06777  -1.06079
 Alpha  occ. eigenvalues --   -1.04211  -1.04039  -1.03872  -1.02585  -1.01840
 Alpha  occ. eigenvalues --   -1.01044  -1.00685  -1.00589  -0.99960  -0.99660
 Alpha  occ. eigenvalues --   -0.98848  -0.98838  -0.98795  -0.98024  -0.97807
 Alpha  occ. eigenvalues --   -0.97647  -0.97097  -0.95943  -0.95137  -0.92746
 Alpha  occ. eigenvalues --   -0.92662  -0.90980  -0.90498  -0.90138  -0.89238
 Alpha  occ. eigenvalues --   -0.88835  -0.88495  -0.87413  -0.87236  -0.86615
 Alpha  occ. eigenvalues --   -0.86394  -0.85376  -0.82932  -0.82770  -0.81979
 Alpha  occ. eigenvalues --   -0.81485  -0.81464  -0.80787  -0.80065  -0.79575
 Alpha  occ. eigenvalues --   -0.78969  -0.77915  -0.77645  -0.77211  -0.76908
 Alpha  occ. eigenvalues --   -0.76707  -0.76320  -0.75887  -0.75249  -0.74687
 Alpha  occ. eigenvalues --   -0.74338  -0.73883  -0.73505  -0.73321  -0.72846
 Alpha  occ. eigenvalues --   -0.72829  -0.72204  -0.71888  -0.71544  -0.71222
 Alpha  occ. eigenvalues --   -0.70635  -0.70429  -0.70076  -0.69680  -0.69054
 Alpha  occ. eigenvalues --   -0.68233  -0.67917  -0.67601  -0.67272  -0.67033
 Alpha  occ. eigenvalues --   -0.66746  -0.66222  -0.66107  -0.66037  -0.65272
 Alpha  occ. eigenvalues --   -0.64995  -0.64810  -0.64234  -0.64089  -0.63759
 Alpha  occ. eigenvalues --   -0.63437  -0.63180  -0.63059  -0.62929  -0.62235
 Alpha  occ. eigenvalues --   -0.61802  -0.61630  -0.61496  -0.61308  -0.60873
 Alpha  occ. eigenvalues --   -0.60710  -0.60391  -0.59743  -0.59685  -0.59325
 Alpha  occ. eigenvalues --   -0.59300  -0.59112  -0.58883  -0.58742  -0.58179
 Alpha  occ. eigenvalues --   -0.58107  -0.57719  -0.57686  -0.57526  -0.57460
 Alpha  occ. eigenvalues --   -0.56787  -0.56399  -0.56308  -0.56003  -0.55335
 Alpha  occ. eigenvalues --   -0.55292  -0.55149  -0.54744  -0.54591  -0.54524
 Alpha  occ. eigenvalues --   -0.54410  -0.54143  -0.54056  -0.53706  -0.53431
 Alpha  occ. eigenvalues --   -0.53298  -0.53217  -0.53160  -0.52724  -0.52431
 Alpha  occ. eigenvalues --   -0.52331  -0.52259  -0.52061  -0.51986  -0.51918
 Alpha  occ. eigenvalues --   -0.51652  -0.51426  -0.51163  -0.51065  -0.50959
 Alpha  occ. eigenvalues --   -0.50843  -0.50630  -0.50474  -0.50376  -0.50196
 Alpha  occ. eigenvalues --   -0.49926  -0.49836  -0.49655  -0.49463  -0.49275
 Alpha  occ. eigenvalues --   -0.49069  -0.48981  -0.48898  -0.48616  -0.48498
 Alpha  occ. eigenvalues --   -0.48237  -0.48141  -0.47977  -0.47850  -0.47816
 Alpha  occ. eigenvalues --   -0.47612  -0.47572  -0.47528  -0.47421  -0.47301
 Alpha  occ. eigenvalues --   -0.47196  -0.47047  -0.47003  -0.46817  -0.46567
 Alpha  occ. eigenvalues --   -0.46405  -0.45893  -0.45736  -0.45631  -0.45396
 Alpha  occ. eigenvalues --   -0.45342  -0.45105  -0.44980  -0.44896  -0.44891
 Alpha  occ. eigenvalues --   -0.44786  -0.44570  -0.44419  -0.44358  -0.44029
 Alpha  occ. eigenvalues --   -0.43954  -0.43936  -0.43836  -0.43655  -0.43630
 Alpha  occ. eigenvalues --   -0.43472  -0.43270  -0.43159  -0.42913  -0.42747
 Alpha  occ. eigenvalues --   -0.42540  -0.42176  -0.42051  -0.41882  -0.41612
 Alpha  occ. eigenvalues --   -0.41440  -0.41406  -0.41133  -0.40988  -0.40821
 Alpha  occ. eigenvalues --   -0.40746  -0.40200  -0.40028  -0.39864  -0.39825
 Alpha  occ. eigenvalues --   -0.39602  -0.39264  -0.39135  -0.39033  -0.38864
 Alpha  occ. eigenvalues --   -0.38772  -0.38712  -0.38684  -0.38530  -0.38485
 Alpha  occ. eigenvalues --   -0.38435  -0.38210  -0.38102  -0.38092  -0.37908
 Alpha  occ. eigenvalues --   -0.37698  -0.37527  -0.37310  -0.37216  -0.37074
 Alpha  occ. eigenvalues --   -0.36905  -0.36529  -0.36509  -0.36029  -0.35985
 Alpha  occ. eigenvalues --   -0.35885  -0.35613  -0.35592  -0.35470  -0.34869
 Alpha  occ. eigenvalues --   -0.34540  -0.34467  -0.34279  -0.33997  -0.33593
 Alpha  occ. eigenvalues --   -0.33551  -0.33231  -0.32612  -0.32545  -0.32312
 Alpha  occ. eigenvalues --   -0.31872  -0.31742  -0.31576  -0.30996  -0.30816
 Alpha  occ. eigenvalues --   -0.30108  -0.29606  -0.28915  -0.28517  -0.28082
 Alpha  occ. eigenvalues --   -0.27331  -0.25836  -0.25736  -0.25253  -0.23296
 Alpha  occ. eigenvalues --   -0.22884  -0.21904  -0.21001  -0.20146  -0.18567
 Alpha virt. eigenvalues --   -0.18159  -0.16367  -0.12375  -0.10876  -0.10801
 Alpha virt. eigenvalues --   -0.10315  -0.09061  -0.07924  -0.07581  -0.07160
 Alpha virt. eigenvalues --   -0.06623  -0.06279  -0.05836  -0.05109  -0.04948

 Mulliken charges:
               1
     1  N   -0.657758
     2  H    0.315639
     3  H    0.327237
     4  H    0.371090
     5  C   -0.121852
     6  H    0.223187
     7  C    0.614586
     8  C   -0.281134
     9  H    0.163792
    10  H    0.202685
    11  O   -0.510761
    12  C   -0.101007
    13  H    0.112769
    14  C   -0.448282
    15  H    0.163030
    16  H    0.165253
    17  H    0.179860
    18  C   -0.456123
    19  H    0.168169
    20  H    0.191707
    21  H    0.112709
    22  N   -0.613408
    23  H    0.306223
    24  C   -0.239978
    25  H    0.222456
    26  H    0.215505
    27  C    0.631943
    28  O   -0.505060
    29  N   -0.605921
    30  H    0.315049
    31  C   -0.037426
    32  H    0.212246
    33  C    0.637088
    34  C   -0.485407
    35  H    0.178277
    36  H    0.212012
    37  H    0.144180
    38  O   -0.516170
    39  N   -0.620085
    40  H    0.326315
    41  C   -0.040584
    42  H    0.241863
    43  C    0.631599
    44  C   -0.417845
    45  H    0.222511
    46  H    0.140500
    47  O   -0.544777
    48  C    0.612638
    49  N   -0.758419
    50  H    0.358331
    51  H    0.336269
    52  O   -0.481112
    53  N   -0.640587
    54  H    0.354082
    55  C   -0.014440
    56  H    0.190289
    57  C    0.622248
    58  C   -0.510937
    59  H    0.195977
    60  H    0.173397
    61  H    0.153531
    62  O   -0.538189
    63  N   -0.648758
    64  H    0.383708
    65  C   -0.022039
    66  H    0.189392
    67  C    0.646087
    68  C   -0.125162
    69  H    0.136992
    70  O   -0.574598
    71  C   -0.255276
    72  H    0.135127
    73  H    0.144057
    74  C   -0.461876
    75  H    0.168049
    76  H    0.169520
    77  H    0.157430
    78  C   -0.448812
    79  H    0.135446
    80  H    0.146041
    81  H    0.163217
    82  N   -0.639343
    83  H    0.382991
    84  C   -0.041245
    85  H    0.193192
    86  C    0.622069
    87  C   -0.314249
    88  H    0.163251
    89  H    0.145757
    90  O   -0.549849
    91  C   -0.076315
    92  H    0.138051
    93  C   -0.461015
    94  H    0.146811
    95  H    0.143598
    96  H    0.158082
    97  C   -0.451657
    98  H    0.151254
    99  H    0.148737
   100  H    0.154416
   101  N   -0.618168
   102  H    0.390415
   103  C   -0.222918
   104  H    0.179802
   105  H    0.190332
   106  C    0.618811
   107  O   -0.551994
   108  N   -0.654984
   109  H    0.400876
   110  C   -0.017749
   111  H    0.177790
   112  C    0.636173
   113  C   -0.120603
   114  H    0.140574
   115  O   -0.561071
   116  C   -0.451059
   117  H    0.164382
   118  H    0.141111
   119  H    0.171772
   120  C   -0.446525
   121  H    0.149993
   122  H    0.152084
   123  H    0.142042
   124  N   -0.648332
   125  H    0.382146
   126  C   -0.034804
   127  H    0.194709
   128  C    0.628168
   129  C   -0.092615
   130  H    0.172526
   131  H    0.145355
   132  O   -0.549512
   133  O   -0.653221
   134  H    0.439282
   135  N   -0.658784
   136  H    0.397010
   137  C   -0.032132
   138  H    0.202562
   139  C    0.640796
   140  C   -0.297917
   141  H    0.153634
   142  H    0.158281
   143  O   -0.576997
   144  C   -0.091636
   145  H    0.091151
   146  C   -0.476700
   147  H    0.138728
   148  H    0.156240
   149  H    0.193567
   150  C   -0.442989
   151  H    0.138801
   152  H    0.140951
   153  H    0.152955
   154  N   -0.640977
   155  H    0.394580
   156  C   -0.021702
   157  H    0.158309
   158  C    0.617085
   159  C   -0.504960
   160  H    0.179768
   161  H    0.172133
   162  H    0.156584
   163  O   -0.526404
   164  N   -0.656725
   165  H    0.384551
   166  C   -0.020162
   167  H    0.186376
   168  C    0.629759
   169  C   -0.480601
   170  H    0.159799
   171  H    0.185070
   172  H    0.149470
   173  O   -0.534766
   174  N   -0.637051
   175  H    0.371556
   176  C   -0.063161
   177  H    0.181858
   178  C    0.639036
   179  C   -0.053275
   180  H    0.139018
   181  H    0.150793
   182  O   -0.574135
   183  O   -0.646291
   184  H    0.406607
   185  N   -0.611851
   186  H    0.375879
   187  C   -0.044116
   188  H    0.156626
   189  C    0.584649
   190  C   -0.314610
   191  H    0.159365
   192  H    0.174494
   193  O   -0.528634
   194  C   -0.294251
   195  H    0.148667
   196  H    0.207832
   197  C   -0.171525
   198  H    0.147922
   199  H    0.195590
   200  N   -0.602883
   201  H    0.417227
   202  N   -0.746661
   203  H    0.357587
   204  H    0.379699
   205  N   -0.758238
   206  H    0.417998
   207  H    0.347093
   208  C    0.783244
   209  O   -0.517616
 Sum of Mulliken charges =   1.00000

 Dipole moment (field-independent basis, Debye):
    X=             79.1760    Y=             16.4333    Z=            -34.8858  Tot=             88.0676
 Quadrupole moment (field-independent basis, Debye-Ang):
   XX=           -337.9709   YY=           -809.3692   ZZ=           -387.3535
   XY=           -395.6533   XZ=           -126.7339   YZ=             33.9354

 Normal termination of Gaussian 16 at Thu Aug 11 11:49:03 2022.
