 Gaussian 16, Revision C.01,
 Gaussian 16:  ES64L-G16RevC.01  3-Jul-2019

 -------------------------------------------------------------------
 # B3LYP/6-31G* guess=read geom=check nosymm integral(ultrafinegrid)
 -------------------------------------------------------------------

 ------------------------------------------------------
 Candidate Structure: Conf:270 Charge calc in gas phase
 ------------------------------------------------------
 Structure from the checkpoint file:  "conf-270.chk"
 Charge =  1 Multiplicity = 1

                          Input orientation:
 ---------------------------------------------------------------------
 Center     Atomic      Atomic             Coordinates (Angstroms)
 Number     Number       Type             X           Y           Z
 ---------------------------------------------------------------------
      1          7           0       -2.900613    1.460196    3.503016
      2          1           0       -2.053434    1.885702    3.887191
      3          1           0       -2.712573    1.055405    2.548891
      4          1           0       -3.186719    0.648075    4.067983
      5          6           0       -4.081559    2.413829    3.480346
      6          1           0       -4.264164    2.681040    4.527650
      7          6           0       -5.231493    1.472748    3.044806
      8          6           0       -3.778393    3.694956    2.678930
      9          1           0       -4.727374    4.250642    2.665929
     10          8           0       -5.168333    0.304147    3.445828
     11          6           0       -2.765378    4.583106    3.425013
     12          1           0       -1.765519    4.129727    3.459271
     13          1           0       -2.653726    5.540089    2.907219
     14          1           0       -3.083613    4.795387    4.451700
     15          6           0       -3.331760    3.441067    1.228664
     16          1           0       -2.339474    2.978062    1.184231
     17          1           0       -4.018823    2.789195    0.682282
     18          1           0       -3.266838    4.392961    0.693506
     19          7           0       -6.194580    1.928436    2.229519
     20          1           0       -6.128998    2.870611    1.864967
     21          6           0       -7.132659    1.016044    1.547834
     22          1           0       -7.362365    0.203651    2.242335
     23          6           0       -6.454114    0.430042    0.270306
     24          6           0       -8.433958    1.756025    1.188036
     25          1           0       -8.195676    2.615835    0.539111
     26          1           0       -8.885791    2.140771    2.107550
     27          8           0       -6.981855    0.533720   -0.832667
     28          8           0       -9.360804    0.886608    0.595016
     29          1           0       -8.988483    0.656621   -0.275381
     30          7           0       -5.238785   -0.131378    0.506983
     31          1           0       -4.998829   -0.300259    1.477117
     32          6           0       -4.271352   -0.607678   -0.476896
     33          1           0       -4.563026   -1.603737   -0.836580
     34          6           0       -2.912538   -0.714614    0.243994
     35          6           0       -4.111422    0.326856   -1.691909
     36          1           0       -3.367235   -0.088377   -2.378446
     37          1           0       -3.773500    1.318234   -1.372800
     38          1           0       -5.061792    0.428087   -2.215576
     39          8           0       -2.599678    0.057014    1.174247
     40          7           0       -2.094927   -1.657979   -0.227679
     41          1           0       -2.343858   -2.176657   -1.071321
     42          6           0       -0.677740   -1.802314    0.099079
     43          1           0       -0.307665   -0.838980    0.460934
     44          6           0        0.004531   -2.169360   -1.240734
     45          6           0       -0.419075   -2.915836    1.141396
     46          1           0       -0.826239   -3.849104    0.731336
     47          1           0        0.666861   -3.061582    1.220597
     48          8           0       -0.671937   -2.626301   -2.168201
     49          6           0       -0.997690   -2.681781    2.550774
     50          1           0       -2.067325   -2.451302    2.446119
     51          6           0       -0.872066   -3.967842    3.382452
     52          1           0        0.179360   -4.255325    3.507051
     53          1           0       -1.299902   -3.834262    4.382491
     54          1           0       -1.393040   -4.805149    2.904876
     55          6           0       -0.321017   -1.504624    3.270441
     56          1           0        0.755195   -1.680719    3.390562
     57          1           0       -0.740634   -1.376100    4.276706
     58          1           0       -0.449764   -0.564307    2.722019
     59          7           0        1.330665   -1.974646   -1.288691
     60          1           0        1.872175   -1.711126   -0.466021
     61          6           0        2.165868   -2.420939   -2.396244
     62          1           0        1.865864   -3.439115   -2.671359
     63          6           0        3.600712   -2.454745   -1.819617
     64          6           0        2.012528   -1.513523   -3.657250
     65          1           0        2.674604   -0.644922   -3.566935
     66          1           0        0.985209   -1.136823   -3.641823
     67          8           0        3.804435   -2.123969   -0.646953
     68          6           0        2.251225   -2.239812   -4.965668
     69          6           0        3.386368   -2.007392   -5.755538
     70          1           0        4.137397   -1.292735   -5.430335
     71          6           0        1.309184   -3.174057   -5.423193
     72          1           0        0.414792   -3.361717   -4.832811
     73          6           0        3.585883   -2.685614   -6.956156
     74          1           0        4.470441   -2.507371   -7.558336
     75          6           0        1.493909   -3.855758   -6.623134
     76          1           0        0.748660   -4.572499   -6.963821
     77          8           0        2.878076   -4.247902   -8.579690
     78          1           0        2.144705   -4.851940   -8.774871
     79          6           0        2.637011   -3.612750   -7.395956
     80          7           0        4.572273   -2.857715   -2.661378
     81          1           0        4.364050   -3.045755   -3.637889
     82          6           0        5.980928   -2.880863   -2.286201
     83          1           0        6.112906   -2.222268   -1.426671
     84          6           0        6.826597   -2.377317   -3.447272
     85          6           0        6.438257   -4.326630   -1.905522
     86          1           0        6.024417   -4.531085   -0.912027
     87          1           0        5.949267   -5.023741   -2.597662
     88          8           0        7.967501   -1.847009   -3.024051
     89          6           0        7.964392   -4.579401   -1.914499
     90          1           0        8.184154   -5.370094   -1.187984
     91          1           0        8.481962   -3.684259   -1.556594
     92          6           0        8.526922   -5.013533   -3.299313
     93          1           0        8.598510   -6.107411   -3.316059
     94          1           0        7.818346   -4.758465   -4.096841
     95          6           0        9.906238   -4.441143   -3.684855
     96          1           0       10.450030   -5.173676   -4.297314
     97          1           0       10.510880   -4.263739   -2.788498
     98          7           0        9.792570   -3.145895   -4.407904
     99          1           0       10.719008   -2.753917   -4.573192
    100          1           0        9.376365   -3.303846   -5.326253
    101          1           0        8.719482   -2.118035   -3.675428
    102          8           0        6.519743   -2.562628   -4.614690
 ---------------------------------------------------------------------

 SCF Done:  E(RB3LYP) =  -2312.10411252     A.U. after    1 cycles

 Alpha  occ. eigenvalues --  -19.26321 -19.24649 -19.22776 -19.22593 -19.21803
 Alpha  occ. eigenvalues --  -19.21378 -19.20643 -19.18851 -19.18430 -14.58331
 Alpha  occ. eigenvalues --  -14.50724 -14.47149 -14.46411 -14.43950 -14.42575
 Alpha  occ. eigenvalues --  -14.40764 -10.43861 -10.41107 -10.40285 -10.39742
 Alpha  occ. eigenvalues --  -10.37588 -10.36298 -10.35972 -10.34732 -10.34637
 Alpha  occ. eigenvalues --  -10.34357 -10.33178 -10.32744 -10.31062 -10.30795
 Alpha  occ. eigenvalues --  -10.30586 -10.30053 -10.28971 -10.27961 -10.27889
 Alpha  occ. eigenvalues --  -10.27862 -10.27753 -10.26697 -10.25820 -10.25235
 Alpha  occ. eigenvalues --  -10.24833 -10.24633 -10.24379 -10.24249 -10.24242
 Alpha  occ. eigenvalues --  -10.24160 -10.23928 -10.23419  -1.19000  -1.15722
 Alpha  occ. eigenvalues --   -1.14362  -1.13641  -1.12812  -1.12446  -1.10856
 Alpha  occ. eigenvalues --   -1.10614  -1.09744  -1.06653  -1.05189  -1.03688
 Alpha  occ. eigenvalues --   -1.02961  -1.00673  -0.99062  -0.96168  -0.95238
 Alpha  occ. eigenvalues --   -0.90853  -0.90487  -0.88888  -0.87138  -0.86334
 Alpha  occ. eigenvalues --   -0.85178  -0.84456  -0.83234  -0.81930  -0.81023
 Alpha  occ. eigenvalues --   -0.79878  -0.78706  -0.77331  -0.76852  -0.75375
 Alpha  occ. eigenvalues --   -0.75206  -0.74266  -0.73334  -0.73049  -0.72392
 Alpha  occ. eigenvalues --   -0.72185  -0.70497  -0.69180  -0.68414  -0.67846
 Alpha  occ. eigenvalues --   -0.67407  -0.67258  -0.66483  -0.65895  -0.65378
 Alpha  occ. eigenvalues --   -0.64636  -0.64119  -0.63903  -0.63241  -0.62339
 Alpha  occ. eigenvalues --   -0.61233  -0.60535  -0.60109  -0.59467  -0.59282
 Alpha  occ. eigenvalues --   -0.58187  -0.58014  -0.57697  -0.57279  -0.56812
 Alpha  occ. eigenvalues --   -0.56591  -0.56132  -0.55606  -0.55375  -0.54666
 Alpha  occ. eigenvalues --   -0.54495  -0.53506  -0.53420  -0.52962  -0.52789
 Alpha  occ. eigenvalues --   -0.52688  -0.52401  -0.52030  -0.51753  -0.51652
 Alpha  occ. eigenvalues --   -0.51228  -0.51004  -0.50941  -0.50736  -0.50638
 Alpha  occ. eigenvalues --   -0.50098  -0.49669  -0.48853  -0.48799  -0.48637
 Alpha  occ. eigenvalues --   -0.48539  -0.48469  -0.47994  -0.47815  -0.47780
 Alpha  occ. eigenvalues --   -0.47363  -0.47316  -0.47192  -0.47135  -0.46959
 Alpha  occ. eigenvalues --   -0.46926  -0.46554  -0.46357  -0.46236  -0.45555
 Alpha  occ. eigenvalues --   -0.44976  -0.44571  -0.44291  -0.42796  -0.42580
 Alpha  occ. eigenvalues --   -0.42129  -0.42059  -0.41662  -0.41522  -0.41467
 Alpha  occ. eigenvalues --   -0.41231  -0.41179  -0.40708  -0.40185  -0.39332
 Alpha  occ. eigenvalues --   -0.38979  -0.38808  -0.38630  -0.38433  -0.38015
 Alpha  occ. eigenvalues --   -0.37371  -0.36080  -0.35633  -0.35125  -0.34534
 Alpha  occ. eigenvalues --   -0.34429  -0.34017  -0.33275  -0.33076  -0.32232
 Alpha  occ. eigenvalues --   -0.31055  -0.30223  -0.26946
 Alpha virt. eigenvalues --   -0.13942  -0.09895  -0.09612  -0.07912  -0.06548
 Alpha virt. eigenvalues --   -0.05673  -0.05638  -0.04891  -0.04107  -0.03660
 Alpha virt. eigenvalues --   -0.03620  -0.02872  -0.01531  -0.00531   0.00172

 Mulliken charges:
               1
     1  N   -0.780641
     2  H    0.403380
     3  H    0.474811
     4  H    0.421437
     5  C   -0.113855
     6  H    0.222579
     7  C    0.654291
     8  C   -0.124485
     9  H    0.168465
    10  O   -0.541425
    11  C   -0.469291
    12  H    0.145681
    13  H    0.196623
    14  H    0.173640
    15  C   -0.476846
    16  H    0.163290
    17  H    0.169136
    18  H    0.189065
    19  N   -0.598343
    20  H    0.355261
    21  C   -0.114989
    22  H    0.224566
    23  C    0.634599
    24  C   -0.028980
    25  H    0.130629
    26  H    0.166278
    27  O   -0.517868
    28  O   -0.610828
    29  H    0.424787
    30  N   -0.652923
    31  H    0.370651
    32  C    0.003518
    33  H    0.183518
    34  C    0.607594
    35  C   -0.474792
    36  H    0.173867
    37  H    0.158093
    38  H    0.220958
    39  O   -0.605841
    40  N   -0.580101
    41  H    0.371144
    42  C   -0.081850
    43  H    0.173197
    44  C    0.628454
    45  C   -0.260316
    46  H    0.158166
    47  H    0.159066
    48  O   -0.546440
    49  C   -0.067247
    50  H    0.124401
    51  C   -0.447210
    52  H    0.155390
    53  H    0.149146
    54  H    0.155666
    55  C   -0.464316
    56  H    0.164111
    57  H    0.132008
    58  H    0.125640
    59  N   -0.624732
    60  H    0.361112
    61  C   -0.039350
    62  H    0.191857
    63  C    0.605946
    64  C   -0.357584
    65  H    0.158195
    66  H    0.177388
    67  O   -0.548141
    68  C    0.126452
    69  C   -0.203527
    70  H    0.148808
    71  C   -0.194059
    72  H    0.152336
    73  C   -0.152544
    74  H    0.154651
    75  C   -0.191911
    76  H    0.126945
    77  O   -0.635793
    78  H    0.411134
    79  C    0.351644
    80  N   -0.617430
    81  H    0.367934
    82  C   -0.027330
    83  H    0.195050
    84  C    0.577960
    85  C   -0.277296
    86  H    0.160694
    87  H    0.150114
    88  O   -0.600308
    89  C   -0.284653
    90  H    0.146304
    91  H    0.169483
    92  C   -0.290802
    93  H    0.151652
    94  H    0.163704
    95  C   -0.143601
    96  H    0.148994
    97  H    0.163451
    98  N   -0.775597
    99  H    0.332799
   100  H    0.339986
   101  H    0.456698
   102  O   -0.501148
 Sum of Mulliken charges =   1.00000

 Dipole moment (field-independent basis, Debye):
    X=             -3.0858    Y=              2.1583    Z=              6.7288  Tot=              7.7109
 Quadrupole moment (field-independent basis, Debye-Ang):
   XX=           -168.1697   YY=           -213.7940   ZZ=           -218.5758
   XY=            -76.4146   XZ=            -69.9938   YZ=             57.0202

 Normal termination of Gaussian 16 at Sat Jul  2 15:27:44 2022.
