 Gaussian 16, Revision C.01,
 Gaussian 16:  ES64L-G16RevC.01  3-Jul-2019

 -------------------------------------------------------------------
 # B3LYP/6-31G* guess=read geom=check nosymm integral(ultrafinegrid)
 -------------------------------------------------------------------

 ------------------------------------------------------
 Candidate Structure: Conf:102 Charge calc in gas phase
 ------------------------------------------------------
 Structure from the checkpoint file:  "conf-102.chk"
 Charge =  1 Multiplicity = 1

                          Input orientation:
 ---------------------------------------------------------------------
 Center     Atomic      Atomic             Coordinates (Angstroms)
 Number     Number       Type             X           Y           Z
 ---------------------------------------------------------------------
      1          7           0       -7.625162    3.982287    5.260030
      2          1           0       -7.153967    3.905041    6.166047
      3          1           0       -8.633334    4.045929    5.421901
      4          1           0       -7.248650    4.840050    4.756001
      5          6           0       -7.245613    2.871918    4.294166
      6          1           0       -6.868872    2.026947    4.877181
      7          6           0       -6.115016    3.559960    3.472929
      8          6           0       -8.481337    2.444319    3.458477
      9          1           0       -8.819961    3.332552    2.905519
     10          8           0       -6.092389    4.801856    3.480149
     11          6           0       -8.111050    1.352633    2.439437
     12          1           0       -7.724047    0.455749    2.939028
     13          1           0       -9.007666    1.056060    1.887799
     14          1           0       -7.372002    1.685483    1.707665
     15          6           0       -9.625952    1.944813    4.360209
     16          1           0       -9.314308    1.078160    4.955070
     17          1           0      -10.024121    2.702593    5.049230
     18          1           0      -10.470832    1.634014    3.739120
     19          7           0       -5.255498    2.775700    2.836263
     20          1           0       -5.353008    1.758020    2.807095
     21          6           0       -4.203613    3.246733    1.940715
     22          1           0       -4.563670    4.105822    1.366804
     23          6           0       -3.891110    2.051579    1.027469
     24          6           0       -2.927656    3.680700    2.731253
     25          1           0       -2.620113    2.849550    3.380342
     26          1           0       -3.203262    4.532092    3.361771
     27          8           0       -4.320638    0.929878    1.306358
     28          8           0       -1.897107    4.085001    1.864998
     29          1           0       -1.351871    3.289606    1.662856
     30          7           0       -3.108022    2.338609   -0.038584
     31          1           0       -2.671550    3.256681   -0.005198
     32          6           0       -2.329331    1.290941   -0.687479
     33          1           0       -2.980447    0.418431   -0.788533
     34          6           0       -1.131099    0.910244    0.221376
     35          6           0       -1.852637    1.760871   -2.068927
     36          1           0       -1.274212    0.979024   -2.569358
     37          1           0       -1.211359    2.645599   -1.980414
     38          1           0       -2.710677    2.014729   -2.697796
     39          8           0       -0.763587    1.638706    1.154581
     40          7           0       -0.534628   -0.249551   -0.095086
     41          1           0       -0.784346   -0.731249   -0.957235
     42          6           0        0.748555   -0.702854    0.433400
     43          1           0        1.264408    0.160446    0.862913
     44          6           0        1.525449   -1.239199   -0.789857
     45          6           0        0.591675   -1.820890    1.490452
     46          1           0        0.064069   -2.656201    1.010505
     47          1           0        1.593442   -2.193123    1.746211
     48          8           0        0.922863   -1.549942   -1.822246
     49          6           0       -0.142726   -1.425227    2.786364
     50          1           0       -1.111972   -0.988737    2.506439
     51          6           0       -0.416521   -2.683365    3.625471
     52          1           0        0.520891   -3.167871    3.927243
     53          1           0       -0.966992   -2.432879    4.539790
     54          1           0       -1.007879   -3.419237    3.067716
     55          6           0        0.634059   -0.381850    3.603439
     56          1           0        1.634452   -0.751312    3.864396
     57          1           0        0.111632   -0.162062    4.542227
     58          1           0        0.741652    0.561992    3.060609
     59          7           0        2.855523   -1.355009   -0.630774
     60          1           0        3.307967   -1.176269    0.263081
     61          6           0        3.726596   -1.992726   -1.604437
     62          1           0        3.219148   -2.886538   -1.989718
     63          6           0        4.979897   -2.427566   -0.815077
     64          6           0        4.040813   -1.077247   -2.824645
     65          1           0        3.072179   -0.825413   -3.269063
     66          1           0        4.573352   -1.677081   -3.573166
     67          8           0        5.106965   -2.143341    0.375807
     68          6           0        4.830410    0.173872   -2.510241
     69          6           0        4.194214    1.334576   -2.043108
     70          1           0        3.113030    1.341315   -1.930294
     71          6           0        6.220846    0.213235   -2.675706
     72          1           0        6.744861   -0.659943   -3.056930
     73          6           0        4.912011    2.485087   -1.733248
     74          1           0        4.415843    3.382232   -1.376410
     75          6           0        6.954815    1.359356   -2.371300
     76          1           0        8.034180    1.366963   -2.511993
     77          8           0        6.959696    3.654510   -1.576791
     78          1           0        7.908685    3.532976   -1.736261
     79          6           0        6.302043    2.499269   -1.893084
     80          7           0        5.889125   -3.142937   -1.514972
     81          1           0        5.793474   -3.255546   -2.518101
     82          6           0        7.197066   -3.504322   -0.987929
     83          1           0        7.401998   -2.875962   -0.119424
     84          6           0        8.242238   -3.245380   -2.063969
     85          6           0        7.238476   -5.009547   -0.563491
     86          1           0        6.717284   -5.074290    0.397701
     87          1           0        6.632222   -5.573189   -1.283887
     88          8           0        9.448572   -3.055077   -1.547400
     89          6           0        8.640067   -5.653805   -0.459265
     90          1           0        8.588534   -6.469003    0.271718
     91          1           0        9.346387   -4.923626   -0.053376
     92          6           0        9.169629   -6.231611   -1.803747
     93          1           0        8.939368   -7.303122   -1.834420
     94          1           0        8.622581   -5.795809   -2.649157
     95          6           0       10.678773   -6.059571   -2.073079
     96          1           0       11.053393   -6.922472   -2.640968
     97          1           0       11.234782   -6.033264   -1.129421
     98          7           0       10.975490   -4.794969   -2.798806
     99          1           0       11.983242   -4.662698   -2.877075
    100          1           0       10.616336   -4.856334   -3.752041
    101          1           0       10.149257   -3.514918   -2.147467
    102          8           0        7.983551   -3.316282   -3.257304
 ---------------------------------------------------------------------

 SCF Done:  E(RB3LYP) =  -2312.10671537     A.U. after    2 cycles

 Alpha  occ. eigenvalues --  -19.26807 -19.22175 -19.21992 -19.21733 -19.20882
 Alpha  occ. eigenvalues --  -19.20565 -19.18163 -19.18009 -19.17304 -14.60028
 Alpha  occ. eigenvalues --  -14.49603 -14.45028 -14.43555 -14.41790 -14.41329
 Alpha  occ. eigenvalues --  -14.40349 -10.43664 -10.40851 -10.38795 -10.37160
 Alpha  occ. eigenvalues --  -10.35774 -10.35114 -10.34859 -10.34437 -10.33828
 Alpha  occ. eigenvalues --  -10.32665 -10.32089 -10.31564 -10.30093 -10.30038
 Alpha  occ. eigenvalues --  -10.29199 -10.28876 -10.28107 -10.27432 -10.26611
 Alpha  occ. eigenvalues --  -10.24900 -10.24622 -10.24389 -10.24013 -10.23747
 Alpha  occ. eigenvalues --  -10.23245 -10.23232 -10.23152 -10.23080 -10.22873
 Alpha  occ. eigenvalues --  -10.22732 -10.22490 -10.22356  -1.19327  -1.14279
 Alpha  occ. eigenvalues --   -1.13709  -1.13150  -1.11884  -1.10098  -1.09766
 Alpha  occ. eigenvalues --   -1.09700  -1.09022  -1.06027  -1.04717  -1.01997
 Alpha  occ. eigenvalues --   -1.00201  -0.98530  -0.97878  -0.95739  -0.95402
 Alpha  occ. eigenvalues --   -0.89385  -0.88745  -0.87405  -0.85845  -0.85286
 Alpha  occ. eigenvalues --   -0.83926  -0.83517  -0.81710  -0.80805  -0.80193
 Alpha  occ. eigenvalues --   -0.78711  -0.77269  -0.75767  -0.75086  -0.74513
 Alpha  occ. eigenvalues --   -0.74070  -0.73687  -0.73429  -0.72131  -0.71251
 Alpha  occ. eigenvalues --   -0.70426  -0.69842  -0.68055  -0.67787  -0.66626
 Alpha  occ. eigenvalues --   -0.66306  -0.65755  -0.65425  -0.64463  -0.63976
 Alpha  occ. eigenvalues --   -0.63882  -0.63105  -0.62290  -0.61974  -0.61354
 Alpha  occ. eigenvalues --   -0.60993  -0.59270  -0.58538  -0.58264  -0.58243
 Alpha  occ. eigenvalues --   -0.57571  -0.56796  -0.56261  -0.55824  -0.55427
 Alpha  occ. eigenvalues --   -0.55010  -0.54548  -0.54102  -0.53629  -0.53398
 Alpha  occ. eigenvalues --   -0.53169  -0.52819  -0.52366  -0.52343  -0.52123
 Alpha  occ. eigenvalues --   -0.51332  -0.51160  -0.51048  -0.50779  -0.50637
 Alpha  occ. eigenvalues --   -0.50338  -0.49998  -0.49775  -0.49267  -0.48882
 Alpha  occ. eigenvalues --   -0.48740  -0.48393  -0.48128  -0.48017  -0.47634
 Alpha  occ. eigenvalues --   -0.47391  -0.47326  -0.47094  -0.46546  -0.46507
 Alpha  occ. eigenvalues --   -0.46371  -0.46091  -0.45813  -0.45465  -0.45019
 Alpha  occ. eigenvalues --   -0.44921  -0.44379  -0.44261  -0.43808  -0.43605
 Alpha  occ. eigenvalues --   -0.43476  -0.43188  -0.42065  -0.41614  -0.41524
 Alpha  occ. eigenvalues --   -0.41444  -0.41221  -0.41140  -0.40765  -0.40142
 Alpha  occ. eigenvalues --   -0.39258  -0.38658  -0.38403  -0.38342  -0.38129
 Alpha  occ. eigenvalues --   -0.38026  -0.37975  -0.37572  -0.36741  -0.36527
 Alpha  occ. eigenvalues --   -0.35976  -0.35005  -0.34540  -0.33770  -0.33556
 Alpha  occ. eigenvalues --   -0.32699  -0.32127  -0.32053  -0.31628  -0.31000
 Alpha  occ. eigenvalues --   -0.30009  -0.29081  -0.25719
 Alpha virt. eigenvalues --   -0.12679  -0.11136  -0.08011  -0.06674  -0.05998
 Alpha virt. eigenvalues --   -0.04580  -0.04440  -0.04072  -0.03889  -0.02995
 Alpha virt. eigenvalues --   -0.02382  -0.01894  -0.01166   0.00296   0.00889

 Mulliken charges:
               1
     1  N   -0.759389
     2  H    0.416374
     3  H    0.409178
     4  H    0.434025
     5  C   -0.102953
     6  H    0.205390
     7  C    0.648635
     8  C   -0.109316
     9  H    0.172262
    10  O   -0.541177
    11  C   -0.474861
    12  H    0.168944
    13  H    0.189618
    14  H    0.185227
    15  C   -0.475468
    16  H    0.177351
    17  H    0.140498
    18  H    0.203504
    19  N   -0.608400
    20  H    0.376608
    21  C   -0.086444
    22  H    0.202535
    23  C    0.613260
    24  C   -0.030968
    25  H    0.150510
    26  H    0.169824
    27  O   -0.541055
    28  O   -0.641871
    29  H    0.447220
    30  N   -0.583164
    31  H    0.350626
    32  C   -0.085649
    33  H    0.197521
    34  C    0.645432
    35  C   -0.468576
    36  H    0.185171
    37  H    0.168220
    38  H    0.180532
    39  O   -0.566032
    40  N   -0.587220
    41  H    0.360570
    42  C   -0.084104
    43  H    0.186908
    44  C    0.623924
    45  C   -0.256459
    46  H    0.145784
    47  H    0.151326
    48  O   -0.551549
    49  C   -0.068989
    50  H    0.131803
    51  C   -0.444543
    52  H    0.149001
    53  H    0.139467
    54  H    0.143334
    55  C   -0.460986
    56  H    0.144397
    57  H    0.136480
    58  H    0.167084
    59  N   -0.611451
    60  H    0.364613
    61  C   -0.042057
    62  H    0.181109
    63  C    0.623576
    64  C   -0.382068
    65  H    0.183527
    66  H    0.151909
    67  O   -0.537411
    68  C    0.172601
    69  C   -0.186198
    70  H    0.118830
    71  C   -0.202539
    72  H    0.145701
    73  C   -0.156291
    74  H    0.138388
    75  C   -0.192178
    76  H    0.127252
    77  O   -0.640385
    78  H    0.410480
    79  C    0.352494
    80  N   -0.614121
    81  H    0.347873
    82  C   -0.026923
    83  H    0.199152
    84  C    0.588278
    85  C   -0.277287
    86  H    0.164019
    87  H    0.147029
    88  O   -0.599676
    89  C   -0.283207
    90  H    0.145710
    91  H    0.170072
    92  C   -0.290452
    93  H    0.151190
    94  H    0.159997
    95  C   -0.143474
    96  H    0.148113
    97  H    0.164208
    98  N   -0.775442
    99  H    0.332559
   100  H    0.339124
   101  H    0.456397
   102  O   -0.512412
 Sum of Mulliken charges =   1.00000

 Dipole moment (field-independent basis, Debye):
    X=            -19.0938    Y=              4.6852    Z=             14.4000  Tot=             24.3697
 Quadrupole moment (field-independent basis, Debye-Ang):
   XX=             86.2851   YY=           -214.6287   ZZ=           -180.2455
   XY=           -157.8390   XZ=           -177.0330   YZ=             70.1466

 Normal termination of Gaussian 16 at Sat Jul  2 15:28:30 2022.
