 Gaussian 16, Revision C.01,
 Gaussian 16:  ES64L-G16RevC.01  3-Jul-2019

 -------------------------------------------------------------------
 # B3LYP/6-31G* guess=read geom=check nosymm integral(ultrafinegrid)
 -------------------------------------------------------------------

 ------------------------------------------------------
 Candidate Structure: Conf:234 Charge calc in gas phase
 ------------------------------------------------------
 Structure from the checkpoint file:  "conf-234.chk"
 Charge =  1 Multiplicity = 1

                          Input orientation:
 ---------------------------------------------------------------------
 Center     Atomic      Atomic             Coordinates (Angstroms)
 Number     Number       Type             X           Y           Z
 ---------------------------------------------------------------------
      1          7           0       -7.601129    3.332447    3.568403
      2          1           0       -7.657692    3.895163    4.422565
      3          1           0       -8.383599    3.583447    2.958349
      4          1           0       -6.666129    3.518792    3.105551
      5          6           0       -7.517380    1.838656    3.837240
      6          1           0       -7.984062    1.636953    4.805714
      7          6           0       -5.983446    1.614556    3.855570
      8          6           0       -8.245581    1.069545    2.703000
      9          1           0       -7.806378    1.416126    1.756153
     10          8           0       -5.287780    2.429609    3.233818
     11          6           0       -7.998560   -0.445101    2.802344
     12          1           0       -8.334323   -0.840976    3.770130
     13          1           0       -8.581390   -0.952184    2.027665
     14          1           0       -6.945926   -0.696368    2.649504
     15          6           0       -9.754212    1.375158    2.708571
     16          1           0      -10.223243    1.033085    3.638650
     17          1           0      -10.001640    2.438872    2.581764
     18          1           0      -10.237809    0.850477    1.879743
     19          7           0       -5.522972    0.564216    4.528175
     20          1           0       -6.134013    0.007840    5.115161
     21          6           0       -4.129534    0.133290    4.469329
     22          1           0       -3.499798    0.892112    4.947041
     23          6           0       -3.710948   -0.094256    2.993691
     24          6           0       -4.020901   -1.198217    5.227655
     25          1           0       -2.960433   -1.415992    5.406034
     26          1           0       -4.442590   -1.999797    4.604226
     27          8           0       -4.527851   -0.497589    2.167487
     28          8           0       -4.750497   -1.051673    6.441313
     29          1           0       -4.713822   -1.890240    6.926982
     30          7           0       -2.407582    0.114246    2.751481
     31          1           0       -1.758525    0.446076    3.463234
     32          6           0       -1.764160   -0.150060    1.471503
     33          1           0       -2.089652   -1.132906    1.111330
     34          6           0       -0.250156   -0.174489    1.773362
     35          6           0       -2.111326    0.916278    0.416642
     36          1           0       -1.618709    0.699109   -0.536723
     37          1           0       -1.788612    1.906190    0.755016
     38          1           0       -3.192105    0.929448    0.255711
     39          8           0        0.175618    0.262592    2.845745
     40          7           0        0.519757   -0.687288    0.794001
     41          1           0        0.117791   -0.869443   -0.123327
     42          6           0        1.972710   -0.557733    0.744392
     43          1           0        2.267137    0.228324    1.445477
     44          6           0        2.303829   -0.134150   -0.702544
     45          6           0        2.699997   -1.880056    1.083931
     46          1           0        2.364761   -2.636270    0.361169
     47          1           0        3.774885   -1.736186    0.905789
     48          8           0        1.489936   -0.330754   -1.612421
     49          6           0        2.497476   -2.411113    2.516395
     50          1           0        1.416062   -2.488932    2.697742
     51          6           0        3.097634   -3.821251    2.631093
     52          1           0        4.180706   -3.804078    2.454051
     53          1           0        2.933759   -4.236721    3.631974
     54          1           0        2.651908   -4.510237    1.903641
     55          6           0        3.092207   -1.474585    3.578808
     56          1           0        4.164638   -1.314100    3.405692
     57          1           0        2.983521   -1.910893    4.578689
     58          1           0        2.589223   -0.503086    3.590896
     59          7           0        3.513969    0.423003   -0.886560
     60          1           0        4.205314    0.474212   -0.140920
     61          6           0        4.052886    0.724657   -2.203440
     62          1           0        3.850824   -0.125413   -2.866174
     63          6           0        5.578329    0.856411   -2.000321
     64          6           0        3.396394    1.993849   -2.834639
     65          1           0        3.912416    2.891421   -2.475362
     66          1           0        2.374289    2.034052   -2.446606
     67          8           0        6.071135    0.745228   -0.874675
     68          6           0        3.347853    1.968828   -4.348695
     69          6           0        4.145764    2.807570   -5.139715
     70          1           0        4.835230    3.501869   -4.666808
     71          6           0        2.474051    1.084521   -5.000040
     72          1           0        1.839615    0.431075   -4.405047
     73          6           0        4.085534    2.767603   -6.531319
     74          1           0        4.713608    3.411981   -7.137284
     75          6           0        2.400951    1.036482   -6.389881
     76          1           0        1.713347    0.346673   -6.876754
     77          8           0        3.184701    1.880642   -8.528295
     78          1           0        2.540756    1.223196   -8.834327
     79          6           0        3.209351    1.880548   -7.161902
     80          7           0        6.308431    1.099032   -3.108928
     81          1           0        5.860658    1.236558   -4.010068
     82          6           0        7.749643    1.306056   -3.064598
     83          1           0        8.010112    1.694385   -2.078461
     84          6           0        8.147850    2.316486   -4.129144
     85          6           0        8.522719   -0.031937   -3.307046
     86          1           0        8.437116   -0.608276   -2.379737
     87          1           0        7.979152   -0.593439   -4.077245
     88          8           0        9.263498    2.958331   -3.798690
     89          6           0       10.006268    0.106232   -3.721604
     90          1           0       10.544333   -0.783017   -3.373350
     91          1           0       10.451767    0.956907   -3.197028
     92          6           0       10.222899    0.242817   -5.256718
     93          1           0       10.457670   -0.748306   -5.662715
     94          1           0        9.289177    0.542305   -5.748472
     95          6           0       11.331954    1.215880   -5.706102
     96          1           0       11.794754    0.844038   -6.631127
     97          1           0       12.124797    1.266810   -4.951464
     98          7           0       10.817098    2.597163   -5.903707
     99          1           0       11.585387    3.230162   -6.123112
    100          1           0       10.187898    2.614344   -6.706965
    101          1           0        9.832997    3.084757   -4.644642
    102          8           0        7.562016    2.418465   -5.195657
 ---------------------------------------------------------------------

 SCF Done:  E(RB3LYP) =  -2312.09542152     A.U. after    2 cycles

 Alpha  occ. eigenvalues --  -19.26483 -19.26065 -19.21709 -19.20487 -19.20200
 Alpha  occ. eigenvalues --  -19.19203 -19.17837 -19.17191 -19.16879 -14.60072
 Alpha  occ. eigenvalues --  -14.49589 -14.44459 -14.42609 -14.41340 -14.40765
 Alpha  occ. eigenvalues --  -14.39647 -10.43270 -10.40530 -10.38031 -10.36159
 Alpha  occ. eigenvalues --  -10.35036 -10.34763 -10.34670 -10.34590 -10.34127
 Alpha  occ. eigenvalues --  -10.34016 -10.31314 -10.30986 -10.29362 -10.28853
 Alpha  occ. eigenvalues --  -10.28839 -10.28723 -10.27505 -10.26835 -10.25404
 Alpha  occ. eigenvalues --  -10.24249 -10.24020 -10.23910 -10.23371 -10.23264
 Alpha  occ. eigenvalues --  -10.23125 -10.23082 -10.23021 -10.22935 -10.22678
 Alpha  occ. eigenvalues --  -10.22240 -10.21966 -10.21496  -1.19112  -1.14063
 Alpha  occ. eigenvalues --   -1.13346  -1.12419  -1.12345  -1.10944  -1.09745
 Alpha  occ. eigenvalues --   -1.09608  -1.08574  -1.05926  -1.03963  -1.01000
 Alpha  occ. eigenvalues --   -0.99322  -0.98061  -0.97244  -0.95074  -0.94904
 Alpha  occ. eigenvalues --   -0.89393  -0.89110  -0.86721  -0.85426  -0.84703
 Alpha  occ. eigenvalues --   -0.83875  -0.83163  -0.80877  -0.80171  -0.79661
 Alpha  occ. eigenvalues --   -0.78641  -0.76811  -0.75819  -0.74991  -0.74171
 Alpha  occ. eigenvalues --   -0.73967  -0.73660  -0.72686  -0.72351  -0.71259
 Alpha  occ. eigenvalues --   -0.70014  -0.69660  -0.67275  -0.66960  -0.66122
 Alpha  occ. eigenvalues --   -0.65701  -0.65139  -0.64576  -0.63982  -0.63951
 Alpha  occ. eigenvalues --   -0.63300  -0.63236  -0.62271  -0.62147  -0.61499
 Alpha  occ. eigenvalues --   -0.60905  -0.60127  -0.58514  -0.58199  -0.57766
 Alpha  occ. eigenvalues --   -0.56982  -0.56081  -0.55735  -0.55534  -0.54761
 Alpha  occ. eigenvalues --   -0.54510  -0.54177  -0.53875  -0.53531  -0.53006
 Alpha  occ. eigenvalues --   -0.52562  -0.52362  -0.51969  -0.51756  -0.51534
 Alpha  occ. eigenvalues --   -0.51016  -0.50772  -0.50581  -0.50387  -0.50121
 Alpha  occ. eigenvalues --   -0.49699  -0.49480  -0.49265  -0.48909  -0.48327
 Alpha  occ. eigenvalues --   -0.48028  -0.47832  -0.47573  -0.47554  -0.47249
 Alpha  occ. eigenvalues --   -0.46722  -0.46664  -0.46380  -0.45981  -0.45869
 Alpha  occ. eigenvalues --   -0.45782  -0.45643  -0.45547  -0.45048  -0.44972
 Alpha  occ. eigenvalues --   -0.44541  -0.44287  -0.43967  -0.43522  -0.43079
 Alpha  occ. eigenvalues --   -0.42847  -0.42712  -0.42576  -0.41359  -0.41124
 Alpha  occ. eigenvalues --   -0.40878  -0.40846  -0.40307  -0.40091  -0.39265
 Alpha  occ. eigenvalues --   -0.39227  -0.38466  -0.38084  -0.37913  -0.37729
 Alpha  occ. eigenvalues --   -0.37489  -0.37399  -0.37362  -0.37260  -0.36645
 Alpha  occ. eigenvalues --   -0.34649  -0.34283  -0.33814  -0.33248  -0.32730
 Alpha  occ. eigenvalues --   -0.31998  -0.31578  -0.31524  -0.31072  -0.30492
 Alpha  occ. eigenvalues --   -0.29505  -0.28951  -0.25698
 Alpha virt. eigenvalues --   -0.12496  -0.10880  -0.07360  -0.06476  -0.05003
 Alpha virt. eigenvalues --   -0.04646  -0.04464  -0.03788  -0.03257  -0.02675
 Alpha virt. eigenvalues --   -0.02599  -0.01846  -0.01576  -0.00905   0.00173

 Mulliken charges:
               1
     1  N   -0.755297
     2  H    0.415813
     3  H    0.410758
     4  H    0.432367
     5  C   -0.115606
     6  H    0.199441
     7  C    0.677439
     8  C   -0.102772
     9  H    0.174205
    10  O   -0.540754
    11  C   -0.493777
    12  H    0.145640
    13  H    0.183284
    14  H    0.223215
    15  C   -0.470485
    16  H    0.175099
    17  H    0.133608
    18  H    0.201411
    19  N   -0.594619
    20  H    0.365480
    21  C   -0.044287
    22  H    0.189293
    23  C    0.638328
    24  C   -0.072790
    25  H    0.174439
    26  H    0.167148
    27  O   -0.537636
    28  O   -0.630430
    29  H    0.421130
    30  N   -0.616247
    31  H    0.361452
    32  C   -0.043237
    33  H    0.182158
    34  C    0.616124
    35  C   -0.454223
    36  H    0.170963
    37  H    0.164512
    38  H    0.182076
    39  O   -0.541024
    40  N   -0.601117
    41  H    0.356743
    42  C   -0.080805
    43  H    0.184545
    44  C    0.624384
    45  C   -0.255464
    46  H    0.143636
    47  H    0.148123
    48  O   -0.555062
    49  C   -0.065683
    50  H    0.126364
    51  C   -0.445136
    52  H    0.147424
    53  H    0.144919
    54  H    0.141376
    55  C   -0.463165
    56  H    0.140389
    57  H    0.142313
    58  H    0.170571
    59  N   -0.622956
    60  H    0.362564
    61  C   -0.035946
    62  H    0.186801
    63  C    0.605383
    64  C   -0.355310
    65  H    0.156305
    66  H    0.178697
    67  O   -0.543820
    68  C    0.126121
    69  C   -0.201254
    70  H    0.143157
    71  C   -0.194982
    72  H    0.155960
    73  C   -0.149554
    74  H    0.151393
    75  C   -0.193161
    76  H    0.122125
    77  O   -0.638663
    78  H    0.408691
    79  C    0.349678
    80  N   -0.623456
    81  H    0.366131
    82  C   -0.017092
    83  H    0.193414
    84  C    0.573649
    85  C   -0.278510
    86  H    0.165407
    87  H    0.148032
    88  O   -0.600995
    89  C   -0.284172
    90  H    0.144466
    91  H    0.169361
    92  C   -0.289838
    93  H    0.149075
    94  H    0.163091
    95  C   -0.142651
    96  H    0.145495
    97  H    0.162403
    98  N   -0.773769
    99  H    0.330387
   100  H    0.338375
   101  H    0.455078
   102  O   -0.501668
 Sum of Mulliken charges =   1.00000

 Dipole moment (field-independent basis, Debye):
    X=            -22.2331    Y=              6.2073    Z=             11.2203  Tot=             25.6658
 Quadrupole moment (field-independent basis, Debye-Ang):
   XX=             64.9889   YY=           -243.9076   ZZ=           -162.7911
   XY=            -63.1921   XZ=           -183.4523   YZ=             19.0590

 Normal termination of Gaussian 16 at Sat Jul  2 15:28:00 2022.
