 Gaussian 16, Revision C.01,
 Gaussian 16:  ES64L-G16RevC.01  3-Jul-2019

 -------------------------------------------------------------------
 # B3LYP/6-31G* guess=read geom=check nosymm integral(ultrafinegrid)
 -------------------------------------------------------------------

 ------------------------------------------------------
 Candidate Structure: Conf:535 Charge calc in gas phase
 ------------------------------------------------------
 Structure from the checkpoint file:  "conf-535.chk"
 Charge =  1 Multiplicity = 1

                          Input orientation:
 ---------------------------------------------------------------------
 Center     Atomic      Atomic             Coordinates (Angstroms)
 Number     Number       Type             X           Y           Z
 ---------------------------------------------------------------------
      1          7           0       -7.702589   -1.004998    6.508463
      2          1           0       -7.444348   -1.885810    6.961111
      3          1           0       -8.706729   -0.852491    6.635371
      4          1           0       -7.133660   -0.208236    6.939259
      5          6           0       -7.267888   -0.928057    5.054333
      6          1           0       -6.973423   -1.932565    4.740285
      7          6           0       -6.033677    0.016509    5.144001
      8          6           0       -8.436335   -0.415036    4.170355
      9          1           0       -9.284670   -1.077245    4.403972
     10          8           0       -5.879127    0.646837    6.204223
     11          6           0       -8.837688    1.033048    4.495637
     12          1           0       -8.036013    1.735347    4.244649
     13          1           0       -9.718177    1.310221    3.908977
     14          1           0       -9.094902    1.188071    5.551218
     15          6           0       -8.133667   -0.595982    2.673594
     16          1           0       -7.349616    0.080419    2.319327
     17          1           0       -7.837674   -1.625037    2.438690
     18          1           0       -9.035794   -0.375567    2.095338
     19          7           0       -5.243863    0.084299    4.081998
     20          1           0       -5.453911   -0.404249    3.208640
     21          6           0       -4.129706    1.013734    3.924842
     22          1           0       -4.371467    1.963561    4.410915
     23          6           0       -3.966979    1.183183    2.405768
     24          6           0       -2.814383    0.460406    4.559074
     25          1           0       -2.602747   -0.525818    4.123166
     26          1           0       -2.992811    0.334478    5.632166
     27          8           0       -4.544258    0.413246    1.632878
     28          8           0       -1.747599    1.357941    4.387790
     29          1           0       -1.290110    1.126071    3.544866
     30          7           0       -3.146007    2.189455    2.033373
     31          1           0       -2.605587    2.597279    2.792130
     32          6           0       -2.504152    2.197049    0.724552
     33          1           0       -3.224090    1.780769    0.014416
     34          6           0       -1.259742    1.268093    0.767745
     35          6           0       -2.132973    3.631658    0.322831
     36          1           0       -1.676510    3.657154   -0.670343
     37          1           0       -1.415854    4.063863    1.030297
     38          1           0       -3.027628    4.260611    0.307790
     39          8           0       -0.834380    0.788808    1.830672
     40          7           0       -0.682492    1.049199   -0.418768
     41          1           0       -1.031457    1.472179   -1.277850
     42          6           0        0.589020    0.357119   -0.620068
     43          1           0        1.232034    0.571545    0.238033
     44          6           0        1.160429    0.988965   -1.910060
     45          6           0        0.370040   -1.168808   -0.756977
     46          1           0       -0.239309   -1.482613    0.100700
     47          1           0       -0.234509   -1.336261   -1.658066
     48          8           0        0.381308    1.464693   -2.745646
     49          6           0        1.640349   -2.042193   -0.814209
     50          1           0        2.283405   -1.676791   -1.626181
     51          6           0        2.448322   -1.987211    0.492475
     52          1           0        1.840472   -2.321028    1.343443
     53          1           0        3.327080   -2.639281    0.431226
     54          1           0        2.813462   -0.979990    0.721721
     55          6           0        1.251280   -3.491748   -1.144318
     56          1           0        0.600560   -3.912250   -0.366320
     57          1           0        2.139490   -4.131008   -1.213358
     58          1           0        0.715438   -3.556002   -2.098604
     59          7           0        2.493589    0.985469   -2.033578
     60          1           0        3.103494    0.527637   -1.358885
     61          6           0        3.214984    1.496058   -3.191679
     62          1           0        2.736600    1.107506   -4.099701
     63          6           0        4.641205    0.900227   -3.084292
     64          6           0        3.179758    3.050035   -3.278628
     65          1           0        2.121725    3.327348   -3.335187
     66          1           0        3.630420    3.346886   -4.231864
     67          8           0        4.921507    0.134472   -2.145666
     68          6           0        3.864021    3.780505   -2.142729
     69          6           0        3.200372    4.023749   -0.930564
     70          1           0        2.167374    3.703346   -0.813119
     71          6           0        5.180785    4.244317   -2.278781
     72          1           0        5.716479    4.091043   -3.214985
     73          6           0        3.824485    4.686412    0.123296
     74          1           0        3.306643    4.879400    1.058138
     75          6           0        5.815138    4.911279   -1.230786
     76          1           0        6.836023    5.268284   -1.358696
     77          8           0        5.715731    5.779524    1.036443
     78          1           0        6.610637    6.054105    0.782363
     79          6           0        5.142102    5.130247   -0.025744
     80          7           0        5.482060    1.257027   -4.061620
     81          1           0        5.272955    2.072071   -4.662521
     82          6           0        6.939501    1.190232   -3.980116
     83          1           0        7.245458    1.338020   -2.935697
     84          6           0        7.485280    2.432837   -4.819473
     85          6           0        7.561288   -0.102889   -4.504084
     86          1           0        7.095610   -0.364491   -5.464783
     87          1           0        8.610160    0.147173   -4.705066
     88          8           0        8.714487    2.453207   -4.983919
     89          6           0        7.478254   -1.293034   -3.541355
     90          1           0        6.435746   -1.571366   -3.351300
     91          1           0        7.898284   -1.000134   -2.569423
     92          6           0        8.268053   -2.494598   -4.091307
     93          1           0        7.827170   -2.823563   -5.043558
     94          1           0        9.299120   -2.175119   -4.302624
     95          6           0        8.283408   -3.647470   -3.105128
     96          1           0        7.291511   -4.068771   -2.924982
     97          1           0        8.736664   -3.375631   -2.148792
     98          7           0        9.137972   -4.805172   -3.654306
     99          1           0        9.182691   -5.608599   -3.016390
    100          1           0        8.763139   -5.131938   -4.552810
    101          1           0       10.097918   -4.484123   -3.829272
    102          8           0        6.583296    3.235455   -5.197607
 ---------------------------------------------------------------------

 SCF Done:  E(RB3LYP) =  -2312.01920510     A.U. after    2 cycles

 Alpha  occ. eigenvalues --  -19.26626 -19.21622 -19.21311 -19.19439 -19.19337
 Alpha  occ. eigenvalues --  -19.16256 -19.14020 -19.06250 -19.05246 -14.62012
 Alpha  occ. eigenvalues --  -14.59665 -14.49211 -14.44492 -14.42426 -14.39847
 Alpha  occ. eigenvalues --  -14.35632 -10.43355 -10.40467 -10.38383 -10.38285
 Alpha  occ. eigenvalues --  -10.36120 -10.34509 -10.33351 -10.33314 -10.32170
 Alpha  occ. eigenvalues --  -10.31278 -10.30609 -10.30341 -10.29784 -10.29713
 Alpha  occ. eigenvalues --  -10.28823 -10.26247 -10.26154 -10.25699 -10.24476
 Alpha  occ. eigenvalues --  -10.24216 -10.24161 -10.23958 -10.22716 -10.22447
 Alpha  occ. eigenvalues --  -10.21489 -10.21046 -10.20576 -10.20545 -10.20190
 Alpha  occ. eigenvalues --  -10.19958 -10.19851 -10.19331  -1.19073  -1.15825
 Alpha  occ. eigenvalues --   -1.13766  -1.13224  -1.10810  -1.09065  -1.08082
 Alpha  occ. eigenvalues --   -1.07254  -1.05690  -1.05206  -1.01415  -0.99228
 Alpha  occ. eigenvalues --   -0.98979  -0.96334  -0.94942  -0.92966  -0.91282
 Alpha  occ. eigenvalues --   -0.90391  -0.88104  -0.86734  -0.86328  -0.85282
 Alpha  occ. eigenvalues --   -0.83304  -0.82666  -0.81200  -0.81184  -0.79216
 Alpha  occ. eigenvalues --   -0.76810  -0.75756  -0.75402  -0.75091  -0.75047
 Alpha  occ. eigenvalues --   -0.74472  -0.73584  -0.73524  -0.73378  -0.73141
 Alpha  occ. eigenvalues --   -0.71482  -0.69738  -0.68939  -0.68899  -0.68277
 Alpha  occ. eigenvalues --   -0.67004  -0.65671  -0.65108  -0.64467  -0.63394
 Alpha  occ. eigenvalues --   -0.62666  -0.62304  -0.61750  -0.61583  -0.61358
 Alpha  occ. eigenvalues --   -0.60658  -0.59699  -0.59575  -0.58927  -0.57973
 Alpha  occ. eigenvalues --   -0.57585  -0.56957  -0.56393  -0.55683  -0.55428
 Alpha  occ. eigenvalues --   -0.55084  -0.54565  -0.53644  -0.53249  -0.52489
 Alpha  occ. eigenvalues --   -0.52337  -0.52101  -0.51797  -0.51719  -0.50992
 Alpha  occ. eigenvalues --   -0.50824  -0.50306  -0.50296  -0.50082  -0.49478
 Alpha  occ. eigenvalues --   -0.49230  -0.48558  -0.48293  -0.48163  -0.47515
 Alpha  occ. eigenvalues --   -0.47423  -0.47314  -0.47033  -0.46984  -0.46967
 Alpha  occ. eigenvalues --   -0.46363  -0.46184  -0.45989  -0.45594  -0.45380
 Alpha  occ. eigenvalues --   -0.44753  -0.44372  -0.43932  -0.43611  -0.43191
 Alpha  occ. eigenvalues --   -0.43050  -0.42629  -0.42396  -0.41781  -0.41627
 Alpha  occ. eigenvalues --   -0.41582  -0.41228  -0.41109  -0.40670  -0.40567
 Alpha  occ. eigenvalues --   -0.39757  -0.39578  -0.38655  -0.38605  -0.37909
 Alpha  occ. eigenvalues --   -0.37819  -0.37599  -0.37449  -0.36367  -0.35945
 Alpha  occ. eigenvalues --   -0.35851  -0.35506  -0.35297  -0.34692  -0.34319
 Alpha  occ. eigenvalues --   -0.33952  -0.33356  -0.32708  -0.32315  -0.30222
 Alpha  occ. eigenvalues --   -0.29635  -0.28195  -0.26860  -0.26198  -0.23020
 Alpha  occ. eigenvalues --   -0.21412  -0.20989  -0.19544
 Alpha virt. eigenvalues --   -0.12708  -0.12141  -0.11064  -0.07414  -0.06688
 Alpha virt. eigenvalues --   -0.06077  -0.05830  -0.05014  -0.04579  -0.03006
 Alpha virt. eigenvalues --   -0.02336  -0.01431  -0.00857  -0.00454  -0.00197

 Mulliken charges:
               1
     1  N   -0.763361
     2  H    0.415510
     3  H    0.410884
     4  H    0.436988
     5  C   -0.104920
     6  H    0.209834
     7  C    0.651281
     8  C   -0.111308
     9  H    0.157866
    10  O   -0.544620
    11  C   -0.469498
    12  H    0.187335
    13  H    0.194804
    14  H    0.141910
    15  C   -0.479818
    16  H    0.190840
    17  H    0.165303
    18  H    0.189859
    19  N   -0.608580
    20  H    0.380170
    21  C   -0.089002
    22  H    0.201055
    23  C    0.611786
    24  C   -0.028303
    25  H    0.148078
    26  H    0.167060
    27  O   -0.543194
    28  O   -0.642712
    29  H    0.449382
    30  N   -0.579521
    31  H    0.350355
    32  C   -0.090822
    33  H    0.200273
    34  C    0.647328
    35  C   -0.462600
    36  H    0.184262
    37  H    0.168761
    38  H    0.176773
    39  O   -0.573874
    40  N   -0.605987
    41  H    0.364109
    42  C   -0.058642
    43  H    0.179210
    44  C    0.620727
    45  C   -0.251559
    46  H    0.149709
    47  H    0.146113
    48  O   -0.557901
    49  C   -0.090184
    50  H    0.145936
    51  C   -0.445072
    52  H    0.141631
    53  H    0.140151
    54  H    0.153501
    55  C   -0.441954
    56  H    0.138597
    57  H    0.133353
    58  H    0.146465
    59  N   -0.613039
    60  H    0.364409
    61  C   -0.036099
    62  H    0.175121
    63  C    0.605672
    64  C   -0.392411
    65  H    0.171734
    66  H    0.181569
    67  O   -0.585987
    68  C    0.156147
    69  C   -0.189660
    70  H    0.103818
    71  C   -0.213261
    72  H    0.201889
    73  C   -0.160665
    74  H    0.122037
    75  C   -0.206841
    76  H    0.129137
    77  O   -0.649604
    78  H    0.407352
    79  C    0.349381
    80  N   -0.615445
    81  H    0.365160
    82  C   -0.070476
    83  H    0.144865
    84  C    0.584568
    85  C   -0.260790
    86  H    0.127515
    87  H    0.171596
    88  O   -0.580935
    89  C   -0.266387
    90  H    0.170007
    91  H    0.148716
    92  C   -0.291166
    93  H    0.159317
    94  H    0.164063
    95  C   -0.205693
    96  H    0.222512
    97  H    0.225052
    98  N   -0.731117
    99  H    0.421455
   100  H    0.422611
   101  H    0.424783
   102  O   -0.604677
 Sum of Mulliken charges =   1.00000

 Dipole moment (field-independent basis, Debye):
    X=            -14.0844    Y=            -29.8969    Z=             18.4981  Tot=             37.8731
 Quadrupole moment (field-independent basis, Debye-Ang):
   XX=            125.6015   YY=           -200.6865   ZZ=           -190.1992
   XY=           -199.9440   XZ=           -193.4840   YZ=             79.8646

 Normal termination of Gaussian 16 at Sat Jul  2 15:28:06 2022.
