 Gaussian 16, Revision C.01,
 Gaussian 16:  ES64L-G16RevC.01  3-Jul-2019

 -------------------------------------------------------------------
 # B3LYP/6-31G* guess=read geom=check nosymm integral(ultrafinegrid)
 -------------------------------------------------------------------

 ------------------------------------------------------
 Candidate Structure: Conf:879 Charge calc in gas phase
 ------------------------------------------------------
 Structure from the checkpoint file:  "conf-879.chk"
 Charge =  1 Multiplicity = 1

                          Input orientation:
 ---------------------------------------------------------------------
 Center     Atomic      Atomic             Coordinates (Angstroms)
 Number     Number       Type             X           Y           Z
 ---------------------------------------------------------------------
      1          7           0       -7.559323    2.288199    5.569139
      2          1           0       -7.452584    2.202701    6.582639
      3          1           0       -8.544457    2.469915    5.358676
      4          1           0       -6.948453    3.086013    5.200446
      5          6           0       -7.002152    1.105880    4.796995
      6          1           0       -6.624908    0.387089    5.529633
      7          6           0       -5.815066    1.748049    4.021384
      8          6           0       -8.072480    0.436329    3.904672
      9          1           0       -7.531034   -0.352247    3.366399
     10          8           0       -5.667130    2.978176    4.115431
     11          6           0       -9.161311   -0.243041    4.750961
     12          1           0       -9.771581    0.481801    5.307193
     13          1           0       -9.847039   -0.796836    4.103252
     14          1           0       -8.736297   -0.951869    5.470199
     15          6           0       -8.664771    1.395909    2.859292
     16          1           0       -9.268326    2.195089    3.312051
     17          1           0       -7.893744    1.864553    2.239861
     18          1           0       -9.336056    0.844555    2.194922
     19          7           0       -5.053523    0.927089    3.312760
     20          1           0       -5.215365   -0.082069    3.255825
     21          6           0       -3.919483    1.329688    2.484773
     22          1           0       -4.155142    2.257874    1.956012
     23          6           0       -3.695377    0.147374    1.526767
     24          6           0       -2.649581    1.541269    3.366211
     25          1           0       -2.467222    0.621352    3.937404
     26          1           0       -2.853944    2.355116    4.067857
     27          8           0       -4.107946   -0.969487    1.856323
     28          8           0       -1.518693    1.905641    2.608237
     29          1           0       -1.137565    1.098499    2.174879
     30          7           0       -3.002783    0.425186    0.407622
     31          1           0       -2.689717    1.386281    0.247474
     32          6           0       -2.330483   -0.620612   -0.354322
     33          1           0       -2.762033   -1.566393   -0.010208
     34          6           0       -0.835553   -0.629602    0.077163
     35          6           0       -2.581443   -0.457994   -1.858938
     36          1           0       -2.240145   -1.335185   -2.417785
     37          1           0       -2.073920    0.425064   -2.261400
     38          1           0       -3.655272   -0.357480   -2.038934
     39          8           0       -0.495949   -0.230345    1.200444
     40          7           0        0.026732   -1.144615   -0.817070
     41          1           0       -0.269102   -1.224437   -1.785538
     42          6           0        1.483873   -1.040593   -0.705596
     43          1           0        1.699061   -0.486795    0.210340
     44          6           0        1.910146   -0.227856   -1.949218
     45          6           0        2.124716   -2.446664   -0.663197
     46          1           0        1.617928   -3.008100    0.132991
     47          1           0        1.884160   -2.953329   -1.607554
     48          8           0        1.215101   -0.260793   -2.967149
     49          6           0        3.648608   -2.500203   -0.426912
     50          1           0        4.147035   -1.902192   -1.202311
     51          6           0        4.049456   -1.935191    0.945523
     52          1           0        3.569243   -2.498833    1.755800
     53          1           0        5.133324   -2.000526    1.088622
     54          1           0        3.771335   -0.881468    1.070828
     55          6           0        4.141284   -3.948177   -0.574315
     56          1           0        3.677201   -4.600747    0.176446
     57          1           0        5.227069   -4.007182   -0.440701
     58          1           0        3.902085   -4.353693   -1.564244
     59          7           0        3.034782    0.510845   -1.835175
     60          1           0        3.645261    0.423783   -1.031234
     61          6           0        3.485326    1.420994   -2.872115
     62          1           0        2.952715    1.146448   -3.785345
     63          6           0        5.004021    1.238112   -3.017063
     64          6           0        3.178463    2.918152   -2.509697
     65          1           0        3.230486    3.507340   -3.432724
     66          1           0        3.980683    3.279763   -1.855997
     67          8           0        5.680124    0.884784   -2.049964
     68          6           0        1.850665    3.101401   -1.810000
     69          6           0        0.635295    3.147784   -2.506216
     70          1           0        0.636208    3.123844   -3.593101
     71          6           0        1.804426    3.147930   -0.410874
     72          1           0        2.733139    3.136414    0.155008
     73          6           0       -0.585141    3.200320   -1.832721
     74          1           0       -1.523459    3.237478   -2.378529
     75          6           0        0.596018    3.193817    0.280267
     76          1           0        0.583069    3.212909    1.366799
     77          8           0       -1.824938    3.178946    0.207222
     78          1           0       -1.664819    3.023238    1.166942
     79          6           0       -0.604834    3.196197   -0.434950
     80          7           0        5.520005    1.549820   -4.224776
     81          1           0        4.925977    1.804310   -5.006712
     82          6           0        6.947318    1.549493   -4.510252
     83          1           0        7.482888    1.940946   -3.642238
     84          6           0        7.189646    2.451516   -5.710965
     85          6           0        7.471851    0.109506   -4.826159
     86          1           0        7.541412   -0.408102   -3.864358
     87          1           0        6.694010   -0.404188   -5.404955
     88          8           0        8.422225    2.940944   -5.718181
     89          6           0        8.816421    0.029098   -5.585492
     90          1           0        9.310296   -0.910113   -5.310665
     91          1           0        9.476049    0.831879   -5.242376
     92          6           0        8.670183    0.073374   -7.134417
     93          1           0        8.673003   -0.956097   -7.511722
     94          1           0        7.689956    0.479576   -7.413414
     95          6           0        9.749997    0.865329   -7.900452
     96          1           0        9.937268    0.388819   -8.872843
     97          1           0       10.697460    0.850126   -7.350476
     98          7           0        9.368515    2.291015   -8.088244
     99          1           0       10.137376    2.807710   -8.513741
    100          1           0        8.583744    2.351699   -8.737681
    101          1           0        8.774410    2.951967   -6.685837
    102          8           0        6.360965    2.593658   -6.597622
 ---------------------------------------------------------------------

 SCF Done:  E(RB3LYP) =  -2312.11677410     A.U. after    1 cycles

 Alpha  occ. eigenvalues --  -19.27293 -19.23848 -19.23664 -19.21698 -19.20604
 Alpha  occ. eigenvalues --  -19.20210 -19.17769 -19.17685 -19.16777 -14.60006
 Alpha  occ. eigenvalues --  -14.49875 -14.44821 -14.43313 -14.42047 -14.41298
 Alpha  occ. eigenvalues --  -14.40068 -10.43966 -10.40932 -10.38670 -10.37077
 Alpha  occ. eigenvalues --  -10.35520 -10.35004 -10.34965 -10.34307 -10.34054
 Alpha  occ. eigenvalues --  -10.33593 -10.31781 -10.31264 -10.31168 -10.30601
 Alpha  occ. eigenvalues --  -10.29666 -10.29129 -10.27984 -10.27178 -10.26163
 Alpha  occ. eigenvalues --  -10.25164 -10.24684 -10.24610 -10.24601 -10.24590
 Alpha  occ. eigenvalues --  -10.24447 -10.24388 -10.24326 -10.23603 -10.23471
 Alpha  occ. eigenvalues --  -10.22978 -10.22668 -10.22235  -1.19659  -1.14157
 Alpha  occ. eigenvalues --   -1.13606  -1.12877  -1.11968  -1.11465  -1.10596
 Alpha  occ. eigenvalues --   -1.09784  -1.08566  -1.06345  -1.04470  -1.01671
 Alpha  occ. eigenvalues --   -0.99941  -0.98544  -0.97666  -0.95695  -0.95467
 Alpha  occ. eigenvalues --   -0.90857  -0.88982  -0.87284  -0.85815  -0.85086
 Alpha  occ. eigenvalues --   -0.84021  -0.83847  -0.82313  -0.80726  -0.80277
 Alpha  occ. eigenvalues --   -0.80172  -0.77884  -0.76422  -0.74561  -0.74445
 Alpha  occ. eigenvalues --   -0.74182  -0.73982  -0.73396  -0.72236  -0.71833
 Alpha  occ. eigenvalues --   -0.71075  -0.69999  -0.68091  -0.67638  -0.67545
 Alpha  occ. eigenvalues --   -0.66814  -0.65938  -0.65311  -0.64465  -0.64334
 Alpha  occ. eigenvalues --   -0.63854  -0.62857  -0.62341  -0.62048  -0.61636
 Alpha  occ. eigenvalues --   -0.61512  -0.59934  -0.59625  -0.59099  -0.58076
 Alpha  occ. eigenvalues --   -0.57980  -0.57127  -0.56112  -0.55987  -0.55605
 Alpha  occ. eigenvalues --   -0.55028  -0.54623  -0.54397  -0.54135  -0.53633
 Alpha  occ. eigenvalues --   -0.53368  -0.52883  -0.52725  -0.52434  -0.52228
 Alpha  occ. eigenvalues --   -0.51668  -0.51440  -0.51360  -0.51023  -0.50508
 Alpha  occ. eigenvalues --   -0.50150  -0.50004  -0.49552  -0.49359  -0.49208
 Alpha  occ. eigenvalues --   -0.49057  -0.48659  -0.48600  -0.47976  -0.47864
 Alpha  occ. eigenvalues --   -0.47811  -0.47737  -0.47613  -0.47122  -0.46749
 Alpha  occ. eigenvalues --   -0.46624  -0.46419  -0.46181  -0.45997  -0.45912
 Alpha  occ. eigenvalues --   -0.45509  -0.44901  -0.44267  -0.44102  -0.43271
 Alpha  occ. eigenvalues --   -0.43050  -0.42765  -0.42402  -0.41969  -0.41898
 Alpha  occ. eigenvalues --   -0.41700  -0.41313  -0.41270  -0.40616  -0.40532
 Alpha  occ. eigenvalues --   -0.40029  -0.39043  -0.38705  -0.38535  -0.38282
 Alpha  occ. eigenvalues --   -0.38043  -0.38010  -0.37817  -0.37727  -0.36670
 Alpha  occ. eigenvalues --   -0.35673  -0.35308  -0.34175  -0.33900  -0.33458
 Alpha  occ. eigenvalues --   -0.32395  -0.32225  -0.31633  -0.31445  -0.30646
 Alpha  occ. eigenvalues --   -0.30203  -0.29823  -0.27593
 Alpha virt. eigenvalues --   -0.12727  -0.11552  -0.07929  -0.07097  -0.06269
 Alpha virt. eigenvalues --   -0.05522  -0.05305  -0.04508  -0.03670  -0.03505
 Alpha virt. eigenvalues --   -0.02652  -0.02008  -0.01084  -0.00055   0.01362

 Mulliken charges:
               1
     1  N   -0.764235
     2  H    0.416481
     3  H    0.410148
     4  H    0.437443
     5  C   -0.100392
     6  H    0.215854
     7  C    0.655393
     8  C   -0.124808
     9  H    0.190464
    10  O   -0.545935
    11  C   -0.462332
    12  H    0.140222
    13  H    0.200188
    14  H    0.173381
    15  C   -0.478033
    16  H    0.143435
    17  H    0.188121
    18  H    0.200849
    19  N   -0.614328
    20  H    0.376307
    21  C   -0.087449
    22  H    0.200371
    23  C    0.604241
    24  C   -0.029456
    25  H    0.159231
    26  H    0.175975
    27  O   -0.543015
    28  O   -0.668184
    29  H    0.466266
    30  N   -0.614308
    31  H    0.384364
    32  C   -0.081351
    33  H    0.216172
    34  C    0.639312
    35  C   -0.488823
    36  H    0.171934
    37  H    0.186638
    38  H    0.174481
    39  O   -0.564607
    40  N   -0.593758
    41  H    0.365572
    42  C   -0.090402
    43  H    0.187787
    44  C    0.637047
    45  C   -0.248433
    46  H    0.149950
    47  H    0.145759
    48  O   -0.547400
    49  C   -0.095544
    50  H    0.145355
    51  C   -0.450757
    52  H    0.146752
    53  H    0.161415
    54  H    0.133930
    55  C   -0.445018
    56  H    0.143462
    57  H    0.153092
    58  H    0.146729
    59  N   -0.602361
    60  H    0.355529
    61  C   -0.052034
    62  H    0.184919
    63  C    0.626853
    64  C   -0.377107
    65  H    0.162628
    66  H    0.167093
    67  O   -0.545333
    68  C    0.184158
    69  C   -0.173370
    70  H    0.138125
    71  C   -0.197202
    72  H    0.134744
    73  C   -0.170373
    74  H    0.138133
    75  C   -0.187529
    76  H    0.147721
    77  O   -0.708901
    78  H    0.445144
    79  C    0.333573
    80  N   -0.617241
    81  H    0.348310
    82  C   -0.006516
    83  H    0.188535
    84  C    0.573717
    85  C   -0.280884
    86  H    0.172272
    87  H    0.146514
    88  O   -0.601471
    89  C   -0.283832
    90  H    0.145175
    91  H    0.169309
    92  C   -0.289972
    93  H    0.149942
    94  H    0.160941
    95  C   -0.143166
    96  H    0.146876
    97  H    0.163850
    98  N   -0.774827
    99  H    0.332106
   100  H    0.338458
   101  H    0.456605
   102  O   -0.504668
 Sum of Mulliken charges =   1.00000

 Dipole moment (field-independent basis, Debye):
    X=            -21.0917    Y=              4.3306    Z=             11.5686  Tot=             24.4427
 Quadrupole moment (field-independent basis, Debye-Ang):
   XX=             33.7900   YY=           -278.0602   ZZ=           -107.7871
   XY=            -40.3753   XZ=           -226.3563   YZ=             26.3087

 Normal termination of Gaussian 16 at Sat Jul  2 15:27:54 2022.
