 Gaussian 16, Revision C.01,
 Gaussian 16:  ES64L-G16RevC.01  3-Jul-2019

 -------------------------------------------------------------------
 # B3LYP/6-31G* guess=read geom=check nosymm integral(ultrafinegrid)
 -------------------------------------------------------------------

 ------------------------------------------------------
 Candidate Structure: Conf:123 Charge calc in gas phase
 ------------------------------------------------------
 Structure from the checkpoint file:  "conf-123.chk"
 Charge =  1 Multiplicity = 1

                          Input orientation:
 ---------------------------------------------------------------------
 Center     Atomic      Atomic             Coordinates (Angstroms)
 Number     Number       Type             X           Y           Z
 ---------------------------------------------------------------------
      1          7           0       -2.106411    4.637464    0.649723
      2          1           0       -2.187264    5.609953    0.953521
      3          1           0       -1.442255    4.590358   -0.156523
      4          1           0       -1.683876    4.054449    1.415154
      5          6           0       -3.451271    3.977549    0.399771
      6          1           0       -4.226468    4.708394    0.653946
      7          6           0       -3.462732    2.820705    1.441643
      8          6           0       -3.592183    3.573005   -1.092136
      9          1           0       -2.757878    2.897833   -1.326169
     10          8           0       -2.397759    2.550062    2.019933
     11          6           0       -4.906949    2.826856   -1.371065
     12          1           0       -5.780424    3.426823   -1.082593
     13          1           0       -4.989732    2.635821   -2.444931
     14          1           0       -4.956744    1.861644   -0.862565
     15          6           0       -3.495212    4.817915   -1.993044
     16          1           0       -4.300840    5.529629   -1.773970
     17          1           0       -2.537141    5.340767   -1.902241
     18          1           0       -3.592659    4.521432   -3.041497
     19          7           0       -4.616197    2.192729    1.672536
     20          1           0       -5.478059    2.607559    1.336730
     21          6           0       -4.779945    1.199566    2.753269
     22          1           0       -4.150396    1.528125    3.587285
     23          6           0       -4.347926   -0.225772    2.302078
     24          6           0       -6.253588    1.182778    3.164546
     25          1           0       -6.340347    0.661413    4.125360
     26          1           0       -6.829478    0.614319    2.424683
     27          8           0       -5.180576   -1.117371    2.166403
     28          8           0       -6.684906    2.540875    3.245271
     29          1           0       -7.620876    2.541661    3.497538
     30          7           0       -3.025012   -0.380000    2.084328
     31          1           0       -2.364920    0.382569    2.227734
     32          6           0       -2.446412   -1.630653    1.611360
     33          1           0       -2.780707   -2.447722    2.262334
     34          6           0       -0.920285   -1.466646    1.714378
     35          6           0       -2.858643   -1.947371    0.158563
     36          1           0       -2.387466   -2.867635   -0.200667
     37          1           0       -2.554486   -1.131667   -0.506319
     38          1           0       -3.943218   -2.065717    0.109160
     39          8           0       -0.413017   -0.353148    1.859597
     40          7           0       -0.196395   -2.611926    1.610074
     41          1           0       -0.679226   -3.437408    1.273569
     42          6           0        1.234727   -2.579780    1.303533
     43          1           0        1.623343   -1.658270    1.740400
     44          6           0        1.385473   -2.544868   -0.232300
     45          6           0        1.957351   -3.809380    1.882216
     46          1           0        1.549072   -4.705610    1.394744
     47          1           0        3.011922   -3.751161    1.578086
     48          8           0        0.648343   -3.223915   -0.948091
     49          6           0        1.876276   -3.967452    3.413531
     50          1           0        0.813423   -4.013560    3.689700
     51          6           0        2.532523   -5.291499    3.833259
     52          1           0        3.601808   -5.297560    3.585654
     53          1           0        2.441921   -5.448597    4.913831
     54          1           0        2.068840   -6.147971    3.329763
     55          6           0        2.508003   -2.783138    4.160362
     56          1           0        3.563284   -2.660360    3.882617
     57          1           0        2.469593   -2.945961    5.243281
     58          1           0        1.991859   -1.838530    3.955113
     59          7           0        2.347749   -1.722417   -0.709076
     60          1           0        2.947476   -1.182101   -0.091819
     61          6           0        2.636187   -1.548338   -2.120717
     62          1           0        2.810991   -2.531395   -2.577129
     63          6           0        3.935624   -0.721352   -2.193211
     64          6           0        1.458132   -0.889843   -2.904194
     65          1           0        0.604426   -1.561801   -2.777595
     66          1           0        1.701477   -0.895104   -3.972776
     67          8           0        4.482040   -0.297087   -1.175457
     68          6           0        1.095807    0.512484   -2.465948
     69          6           0        0.343436    0.718262   -1.301352
     70          1           0        0.024075   -0.126400   -0.704257
     71          6           0        1.497376    1.638282   -3.198867
     72          1           0        2.097600    1.518192   -4.097659
     73          6           0        0.000821    1.996530   -0.867012
     74          1           0       -0.542925    2.116330    0.065341
     75          6           0        1.141232    2.926638   -2.791946
     76          1           0        1.447540    3.787581   -3.383519
     77          8           0        0.002922    4.364906   -1.189375
     78          1           0        0.422900    5.038634   -1.747882
     79          6           0        0.393902    3.094079   -1.629286
     80          7           0        4.424027   -0.505415   -3.438920
     81          1           0        3.818283   -0.659112   -4.236573
     82          6           0        5.487058    0.470244   -3.667165
     83          1           0        5.321582    1.303047   -2.967270
     84          6           0        5.245643    1.046669   -5.082365
     85          6           0        6.896529   -0.091524   -3.394252
     86          1           0        6.802292   -0.872660   -2.634972
     87          1           0        7.280246   -0.584487   -4.294702
     88          8           0        6.260200    1.564865   -5.754627
     89          6           0        7.872157    0.990982   -2.879450
     90          1           0        7.731877    1.079878   -1.796205
     91          1           0        7.600738    1.971902   -3.293813
     92          6           0        9.353270    0.718221   -3.204207
     93          1           0        9.997620    1.110862   -2.408617
     94          1           0        9.540262   -0.364626   -3.235505
     95          6           0        9.801609    1.368138   -4.517027
     96          1           0       10.851743    1.117364   -4.725040
     97          1           0        9.744351    2.458091   -4.414547
     98          7           0        8.911142    0.999917   -5.641754
     99          1           0        9.169370    1.528312   -6.475473
    100          1           0        9.048179    0.018026   -5.884867
    101          1           0        7.205946    1.315303   -5.482326
    102          8           0        4.114852    1.063637   -5.540631
 ---------------------------------------------------------------------

 SCF Done:  E(RB3LYP) =  -2312.10760666     A.U. after    1 cycles

 Alpha  occ. eigenvalues --  -19.30204 -19.26341 -19.24700 -19.23214 -19.20005
 Alpha  occ. eigenvalues --  -19.19665 -19.19294 -19.19126 -19.18172 -14.56951
 Alpha  occ. eigenvalues --  -14.49401 -14.43647 -14.43466 -14.42891 -14.42647
 Alpha  occ. eigenvalues --  -14.41836 -10.42994 -10.39510 -10.37859 -10.37187
 Alpha  occ. eigenvalues --  -10.36853 -10.36098 -10.35243 -10.34263 -10.33719
 Alpha  occ. eigenvalues --  -10.33299 -10.32870 -10.31323 -10.30913 -10.30453
 Alpha  occ. eigenvalues --  -10.30004 -10.29883 -10.29327 -10.28782 -10.27678
 Alpha  occ. eigenvalues --  -10.27386 -10.27136 -10.26881 -10.26831 -10.26501
 Alpha  occ. eigenvalues --  -10.25482 -10.25470 -10.25408 -10.25190 -10.25171
 Alpha  occ. eigenvalues --  -10.24786 -10.22800 -10.22580  -1.18473  -1.16917
 Alpha  occ. eigenvalues --   -1.14809  -1.12350  -1.11934  -1.11509  -1.11284
 Alpha  occ. eigenvalues --   -1.11161  -1.09828  -1.06592  -1.05443  -1.00221
 Alpha  occ. eigenvalues --   -1.00018  -0.99608  -0.99183  -0.97436  -0.93991
 Alpha  occ. eigenvalues --   -0.93712  -0.88161  -0.87608  -0.87062  -0.86030
 Alpha  occ. eigenvalues --   -0.84668  -0.83641  -0.83148  -0.82727  -0.81389
 Alpha  occ. eigenvalues --   -0.80558  -0.79573  -0.76132  -0.75049  -0.74121
 Alpha  occ. eigenvalues --   -0.73652  -0.73386  -0.72842  -0.72417  -0.71872
 Alpha  occ. eigenvalues --   -0.70753  -0.70250  -0.69387  -0.68194  -0.67703
 Alpha  occ. eigenvalues --   -0.67596  -0.66647  -0.65383  -0.65205  -0.65014
 Alpha  occ. eigenvalues --   -0.64614  -0.63999  -0.63553  -0.63166  -0.62625
 Alpha  occ. eigenvalues --   -0.62073  -0.61962  -0.59797  -0.59420  -0.58272
 Alpha  occ. eigenvalues --   -0.57940  -0.57368  -0.56991  -0.56550  -0.56148
 Alpha  occ. eigenvalues --   -0.55951  -0.55463  -0.55052  -0.54301  -0.54113
 Alpha  occ. eigenvalues --   -0.53850  -0.53704  -0.52978  -0.52825  -0.52600
 Alpha  occ. eigenvalues --   -0.52085  -0.51879  -0.51783  -0.51364  -0.51292
 Alpha  occ. eigenvalues --   -0.50779  -0.50595  -0.50510  -0.50362  -0.50113
 Alpha  occ. eigenvalues --   -0.49914  -0.49748  -0.49399  -0.49272  -0.49075
 Alpha  occ. eigenvalues --   -0.48828  -0.48480  -0.47851  -0.47641  -0.47105
 Alpha  occ. eigenvalues --   -0.47080  -0.46439  -0.46160  -0.46087  -0.45930
 Alpha  occ. eigenvalues --   -0.45477  -0.45270  -0.45175  -0.44981  -0.44407
 Alpha  occ. eigenvalues --   -0.44149  -0.44034  -0.43811  -0.43588  -0.43046
 Alpha  occ. eigenvalues --   -0.42912  -0.42398  -0.42129  -0.41892  -0.41589
 Alpha  occ. eigenvalues --   -0.41198  -0.40612  -0.40587  -0.40287  -0.39934
 Alpha  occ. eigenvalues --   -0.39526  -0.38487  -0.38197  -0.38187  -0.37061
 Alpha  occ. eigenvalues --   -0.36331  -0.34733  -0.34518  -0.33984  -0.33734
 Alpha  occ. eigenvalues --   -0.33259  -0.33129  -0.32967  -0.32845  -0.32589
 Alpha  occ. eigenvalues --   -0.32040  -0.31374  -0.30734
 Alpha virt. eigenvalues --   -0.12109  -0.08968  -0.08640  -0.07669  -0.07061
 Alpha virt. eigenvalues --   -0.05932  -0.05372  -0.05033  -0.04785  -0.04017
 Alpha virt. eigenvalues --   -0.03550  -0.01920  -0.01262  -0.00729   0.00101

 Mulliken charges:
               1
     1  N   -0.812539
     2  H    0.401705
     3  H    0.465162
     4  H    0.432288
     5  C   -0.087391
     6  H    0.199520
     7  C    0.641514
     8  C   -0.110249
     9  H    0.182068
    10  O   -0.540236
    11  C   -0.480259
    12  H    0.154819
    13  H    0.187942
    14  H    0.183156
    15  C   -0.463840
    16  H    0.163475
    17  H    0.137975
    18  H    0.192281
    19  N   -0.581825
    20  H    0.365020
    21  C   -0.080575
    22  H    0.200282
    23  C    0.634830
    24  C   -0.071708
    25  H    0.174377
    26  H    0.177055
    27  O   -0.517821
    28  O   -0.641280
    29  H    0.417812
    30  N   -0.645819
    31  H    0.390713
    32  C   -0.032954
    33  H    0.184685
    34  C    0.618447
    35  C   -0.463765
    36  H    0.173240
    37  H    0.148770
    38  H    0.195446
    39  O   -0.541692
    40  N   -0.583098
    41  H    0.345077
    42  C   -0.088463
    43  H    0.182896
    44  C    0.630523
    45  C   -0.275016
    46  H    0.151355
    47  H    0.148176
    48  O   -0.548031
    49  C   -0.066756
    50  H    0.132231
    51  C   -0.445153
    52  H    0.145496
    53  H    0.151575
    54  H    0.145822
    55  C   -0.457741
    56  H    0.142919
    57  H    0.153083
    58  H    0.152169
    59  N   -0.622689
    60  H    0.362231
    61  C   -0.026556
    62  H    0.188669
    63  C    0.613547
    64  C   -0.397657
    65  H    0.202158
    66  H    0.159389
    67  O   -0.536884
    68  C    0.170369
    69  C   -0.190579
    70  H    0.163708
    71  C   -0.211111
    72  H    0.188996
    73  C   -0.194986
    74  H    0.144479
    75  C   -0.189490
    76  H    0.139721
    77  O   -0.712556
    78  H    0.430541
    79  C    0.351458
    80  N   -0.620737
    81  H    0.353242
    82  C   -0.041063
    83  H    0.192680
    84  C    0.570480
    85  C   -0.283641
    86  H    0.177365
    87  H    0.137130
    88  O   -0.613511
    89  C   -0.280361
    90  H    0.164996
    91  H    0.139677
    92  C   -0.272517
    93  H    0.156556
    94  H    0.145522
    95  C   -0.144774
    96  H    0.149964
    97  H    0.161690
    98  N   -0.771798
    99  H    0.339211
   100  H    0.327868
   101  H    0.488861
   102  O   -0.477293
 Sum of Mulliken charges =   1.00000

 Dipole moment (field-independent basis, Debye):
    X=             -1.1969    Y=             15.2917    Z=             -2.2023  Tot=             15.4958
 Quadrupole moment (field-independent basis, Debye-Ang):
   XX=           -103.8904   YY=           -189.3085   ZZ=           -252.1933
   XY=            -50.6162   XZ=            -69.3350   YZ=             -4.9477

 Normal termination of Gaussian 16 at Sat Jul  2 15:28:15 2022.
