 Gaussian 16, Revision C.01,
 Gaussian 16:  ES64L-G16RevC.01  3-Jul-2019

 -------------------------------------------------------------------
 # B3LYP/6-31G* guess=read geom=check nosymm integral(ultrafinegrid)
 -------------------------------------------------------------------

 ------------------------------------------------------
 Candidate Structure: Conf:669 Charge calc in gas phase
 ------------------------------------------------------
 Structure from the checkpoint file:  "conf-669.chk"
 Charge =  1 Multiplicity = 1

                          Input orientation:
 ---------------------------------------------------------------------
 Center     Atomic      Atomic             Coordinates (Angstroms)
 Number     Number       Type             X           Y           Z
 ---------------------------------------------------------------------
      1          7           0       -8.762106    3.634120    4.228625
      2          1           0       -9.251723    3.362970    5.085724
      3          1           0       -9.349072    4.290301    3.706752
      4          1           0       -7.823936    4.072389    4.491711
      5          6           0       -8.311830    2.443407    3.399921
      6          1           0       -8.858636    1.565362    3.751984
      7          6           0       -6.803248    2.355670    3.775563
      8          6           0       -8.609973    2.692485    1.897442
      9          1           0       -9.682811    2.937395    1.853922
     10          8           0       -6.300137    3.351011    4.316540
     11          6           0       -7.812018    3.871851    1.317627
     12          1           0       -6.737637    3.661387    1.308926
     13          1           0       -8.124503    4.052843    0.285190
     14          1           0       -7.960691    4.810641    1.866050
     15          6           0       -8.412099    1.414140    1.065744
     16          1           0       -7.358724    1.128669    0.980172
     17          1           0       -8.971113    0.567203    1.480818
     18          1           0       -8.784518    1.583834    0.051167
     19          7           0       -6.177908    1.221190    3.481202
     20          1           0       -6.614327    0.508348    2.897654
     21          6           0       -4.750800    0.985880    3.671078
     22          1           0       -4.244010    1.953010    3.727206
     23          6           0       -4.303113    0.164963    2.438841
     24          6           0       -4.486955    0.201617    4.967816
     25          1           0       -3.400332    0.077619    5.082523
     26          1           0       -4.933362   -0.801572    4.876692
     27          8           0       -5.157309   -0.383733    1.733586
     28          8           0       -5.055993    0.936172    6.034512
     29          1           0       -4.810256    0.502595    6.866174
     30          7           0       -2.981718    0.078647    2.247027
     31          1           0       -2.303411    0.518577    2.868732
     32          6           0       -2.355237   -0.736958    1.212299
     33          1           0       -2.846180   -1.716660    1.193513
     34          6           0       -0.884569   -0.894491    1.658701
     35          6           0       -2.459995   -0.089537   -0.179959
     36          1           0       -1.977996   -0.713483   -0.939346
     37          1           0       -1.974900    0.892003   -0.182729
     38          1           0       -3.512535    0.030621   -0.449134
     39          8           0       -0.431988   -0.183980    2.560698
     40          7           0       -0.184465   -1.832246    0.993817
     41          1           0       -0.574052   -2.254431    0.152748
     42          6           0        1.268243   -1.964713    1.048631
     43          1           0        1.678730   -1.036957    1.458204
     44          6           0        1.717318   -2.146701   -0.418668
     45          6           0        1.723763   -3.174333    1.897763
     46          1           0        1.278682   -4.075208    1.454222
     47          1           0        2.811873   -3.280097    1.786605
     48          8           0        0.905441   -2.495689   -1.280985
     49          6           0        1.377312   -3.113515    3.398185
     50          1           0        0.295136   -2.943270    3.488319
     51          6           0        1.698486   -4.465415    4.054652
     52          1           0        2.770885   -4.690156    3.989565
     53          1           0        1.426705   -4.460096    5.116379
     54          1           0        1.155993   -5.287405    3.572575
     55          6           0        2.100914   -1.967714    4.121396
     56          1           0        3.189772   -2.058016    4.010412
     57          1           0        1.878522   -1.990317    5.194651
     58          1           0        1.789480   -0.988786    3.745002
     59          7           0        3.024588   -1.939259   -0.662545
     60          1           0        3.668105   -1.630901    0.060267
     61          6           0        3.637205   -2.124046   -1.971676
     62          1           0        3.186589   -3.003087   -2.442027
     63          6           0        5.133747   -2.353055   -1.705461
     64          6           0        3.393080   -0.882853   -2.880086
     65          1           0        3.806563   -0.007104   -2.366931
     66          1           0        2.306068   -0.752417   -2.930386
     67          8           0        5.674317   -1.809682   -0.735984
     68          6           0        3.984524   -1.006856   -4.265704
     69          6           0        5.122369   -0.275064   -4.635525
     70          1           0        5.565483    0.417292   -3.922803
     71          6           0        3.431769   -1.880601   -5.211757
     72          1           0        2.536319   -2.447731   -4.964511
     73          6           0        5.699230   -0.412180   -5.893964
     74          1           0        6.579874    0.155444   -6.177267
     75          6           0        4.002821   -2.035974   -6.473697
     76          1           0        3.560445   -2.723454   -7.192003
     77          8           0        5.752802   -1.407010   -8.033825
     78          1           0        5.336855   -2.121993   -8.540168
     79          6           0        5.145990   -1.305953   -6.816976
     80          7           0        5.769288   -3.161926   -2.576013
     81          1           0        5.305496   -3.455889   -3.433125
     82          6           0        7.217263   -3.323194   -2.618722
     83          1           0        7.673105   -2.376926   -2.312363
     84          6           0        7.593026   -3.603993   -4.083888
     85          6           0        7.736595   -4.474840   -1.705698
     86          1           0        6.933196   -5.217778   -1.652786
     87          1           0        8.581519   -4.974452   -2.194620
     88          8           0        8.890381   -3.512118   -4.355400
     89          6           0        8.149416   -4.045303   -0.284228
     90          1           0        8.007211   -4.902744    0.386172
     91          1           0        7.469781   -3.260590    0.066374
     92          6           0        9.608547   -3.583444   -0.105782
     93          1           0        9.763000   -3.393921    0.964145
     94          1           0       10.291947   -4.408326   -0.360585
     95          6           0       10.063291   -2.320996   -0.854565
     96          1           0       10.912129   -1.876280   -0.315075
     97          1           0        9.263066   -1.572136   -0.857266
     98          7           0       10.438330   -2.593398   -2.266906
     99          1           0       10.799098   -1.735667   -2.687391
    100          1           0       11.222174   -3.248185   -2.276728
    101          1           0        9.405339   -3.193833   -3.545835
    102          8           0        6.763949   -3.921898   -4.912443
 ---------------------------------------------------------------------

 SCF Done:  E(RB3LYP) =  -2312.09949380     A.U. after    2 cycles

 Alpha  occ. eigenvalues --  -19.26421 -19.24485 -19.21906 -19.21211 -19.20810
 Alpha  occ. eigenvalues --  -19.19775 -19.18054 -19.17153 -19.16659 -14.59633
 Alpha  occ. eigenvalues --  -14.49241 -14.45410 -14.43082 -14.42024 -14.40873
 Alpha  occ. eigenvalues --  -14.40421 -10.43277 -10.40349 -10.39095 -10.36719
 Alpha  occ. eigenvalues --  -10.35102 -10.34992 -10.34505 -10.34499 -10.34149
 Alpha  occ. eigenvalues --  -10.34097 -10.31984 -10.30368 -10.29874 -10.29729
 Alpha  occ. eigenvalues --  -10.28943 -10.28559 -10.28145 -10.27351 -10.25993
 Alpha  occ. eigenvalues --  -10.24699 -10.24353 -10.24122 -10.23871 -10.23638
 Alpha  occ. eigenvalues --  -10.23142 -10.23086 -10.22930 -10.22761 -10.22754
 Alpha  occ. eigenvalues --  -10.22384 -10.22169 -10.21997  -1.18993  -1.14018
 Alpha  occ. eigenvalues --   -1.13311  -1.12432  -1.11965  -1.11543  -1.09943
 Alpha  occ. eigenvalues --   -1.09328  -1.08726  -1.05794  -1.04482  -1.01959
 Alpha  occ. eigenvalues --   -0.99837  -0.98498  -0.97491  -0.95866  -0.94955
 Alpha  occ. eigenvalues --   -0.89299  -0.89051  -0.87118  -0.85525  -0.85026
 Alpha  occ. eigenvalues --   -0.84003  -0.83446  -0.81211  -0.80510  -0.80139
 Alpha  occ. eigenvalues --   -0.78551  -0.76985  -0.76167  -0.75214  -0.74558
 Alpha  occ. eigenvalues --   -0.74310  -0.73376  -0.73117  -0.71964  -0.71000
 Alpha  occ. eigenvalues --   -0.70231  -0.68985  -0.68280  -0.67323  -0.66654
 Alpha  occ. eigenvalues --   -0.65998  -0.65579  -0.64580  -0.64173  -0.63447
 Alpha  occ. eigenvalues --   -0.63143  -0.62575  -0.62318  -0.62227  -0.61623
 Alpha  occ. eigenvalues --   -0.60693  -0.60247  -0.59712  -0.58658  -0.58042
 Alpha  occ. eigenvalues --   -0.56895  -0.56582  -0.56482  -0.55802  -0.55624
 Alpha  occ. eigenvalues --   -0.54668  -0.54449  -0.54141  -0.53747  -0.53372
 Alpha  occ. eigenvalues --   -0.53037  -0.52524  -0.52146  -0.51997  -0.51615
 Alpha  occ. eigenvalues --   -0.51585  -0.51227  -0.50860  -0.50497  -0.50286
 Alpha  occ. eigenvalues --   -0.50187  -0.49411  -0.49066  -0.48916  -0.48608
 Alpha  occ. eigenvalues --   -0.48487  -0.48111  -0.47630  -0.47523  -0.47236
 Alpha  occ. eigenvalues --   -0.47068  -0.46986  -0.46958  -0.46874  -0.46110
 Alpha  occ. eigenvalues --   -0.46052  -0.45762  -0.45460  -0.44883  -0.44591
 Alpha  occ. eigenvalues --   -0.44566  -0.44164  -0.44013  -0.43976  -0.43234
 Alpha  occ. eigenvalues --   -0.43186  -0.43172  -0.42683  -0.42471  -0.41509
 Alpha  occ. eigenvalues --   -0.41253  -0.41029  -0.40818  -0.40101  -0.39514
 Alpha  occ. eigenvalues --   -0.38947  -0.38437  -0.38332  -0.38123  -0.37830
 Alpha  occ. eigenvalues --   -0.37727  -0.37629  -0.37372  -0.37041  -0.36525
 Alpha  occ. eigenvalues --   -0.36109  -0.35194  -0.33953  -0.33816  -0.33157
 Alpha  occ. eigenvalues --   -0.32563  -0.32342  -0.31420  -0.31255  -0.30353
 Alpha  occ. eigenvalues --   -0.29979  -0.28978  -0.25331
 Alpha virt. eigenvalues --   -0.12000  -0.10979  -0.07874  -0.06603  -0.05335
 Alpha virt. eigenvalues --   -0.04482  -0.04363  -0.04254  -0.02884  -0.02520
 Alpha virt. eigenvalues --   -0.01829  -0.01655  -0.00659  -0.00479   0.00320

 Mulliken charges:
               1
     1  N   -0.761652
     2  H    0.416751
     3  H    0.409972
     4  H    0.436685
     5  C   -0.108403
     6  H    0.209485
     7  C    0.668011
     8  C   -0.110564
     9  H    0.157722
    10  O   -0.536334
    11  C   -0.468437
    12  H    0.186240
    13  H    0.193362
    14  H    0.141484
    15  C   -0.484499
    16  H    0.193877
    17  H    0.163951
    18  H    0.189075
    19  N   -0.589174
    20  H    0.374975
    21  C   -0.096499
    22  H    0.207240
    23  C    0.630520
    24  C   -0.020190
    25  H    0.157633
    26  H    0.144755
    27  O   -0.548388
    28  O   -0.614655
    29  H    0.412705
    30  N   -0.617259
    31  H    0.366139
    32  C   -0.046083
    33  H    0.186742
    34  C    0.616786
    35  C   -0.457103
    36  H    0.177053
    37  H    0.165199
    38  H    0.181383
    39  O   -0.541977
    40  N   -0.600851
    41  H    0.359306
    42  C   -0.081481
    43  H    0.182054
    44  C    0.628490
    45  C   -0.251932
    46  H    0.145598
    47  H    0.144275
    48  O   -0.552067
    49  C   -0.066043
    50  H    0.127268
    51  C   -0.445024
    52  H    0.145925
    53  H    0.145561
    54  H    0.143052
    55  C   -0.462417
    56  H    0.137726
    57  H    0.143206
    58  H    0.170231
    59  N   -0.617297
    60  H    0.354734
    61  C   -0.037650
    62  H    0.177224
    63  C    0.618028
    64  C   -0.352503
    65  H    0.152859
    66  H    0.173819
    67  O   -0.555764
    68  C    0.154220
    69  C   -0.194544
    70  H    0.127179
    71  C   -0.207529
    72  H    0.135217
    73  C   -0.154184
    74  H    0.143683
    75  C   -0.176343
    76  H    0.126608
    77  O   -0.637243
    78  H    0.412256
    79  C    0.367247
    80  N   -0.612715
    81  H    0.366310
    82  C   -0.065781
    83  H    0.176453
    84  C    0.597867
    85  C   -0.268938
    86  H    0.158165
    87  H    0.150567
    88  O   -0.615279
    89  C   -0.284099
    90  H    0.138557
    91  H    0.181331
    92  C   -0.265936
    93  H    0.149707
    94  H    0.134265
    95  C   -0.147417
    96  H    0.143015
    97  H    0.169528
    98  N   -0.773079
    99  H    0.332222
   100  H    0.328864
   101  H    0.472544
   102  O   -0.475573
 Sum of Mulliken charges =   1.00000

 Dipole moment (field-independent basis, Debye):
    X=            -24.4399    Y=              7.3964    Z=             15.7620  Tot=             30.0076
 Quadrupole moment (field-independent basis, Debye-Ang):
   XX=            106.3657   YY=           -240.3010   ZZ=           -218.7112
   XY=           -118.5682   XZ=           -117.5522   YZ=             27.5456

 Normal termination of Gaussian 16 at Sat Jul  2 15:28:02 2022.
