 Gaussian 16, Revision C.01,
 Gaussian 16:  ES64L-G16RevC.01  3-Jul-2019

 -------------------------------------------------------------------
 # B3LYP/6-31G* guess=read geom=check nosymm integral(ultrafinegrid)
 -------------------------------------------------------------------

 ------------------------------------------------------
 Candidate Structure: Conf:549 Charge calc in gas phase
 ------------------------------------------------------
 Structure from the checkpoint file:  "conf-549.chk"
 Charge =  1 Multiplicity = 1

                          Input orientation:
 ---------------------------------------------------------------------
 Center     Atomic      Atomic             Coordinates (Angstroms)
 Number     Number       Type             X           Y           Z
 ---------------------------------------------------------------------
      1          7           0       -7.078464    4.781826    4.279889
      2          1           0       -7.650231    4.954641    5.109716
      3          1           0       -7.458668    5.323674    3.499657
      4          1           0       -6.059136    5.059414    4.473591
      5          6           0       -6.914308    3.309524    3.954388
      6          1           0       -7.538346    2.745963    4.652887
      7          6           0       -5.406893    3.074476    4.266440
      8          6           0       -7.321440    2.988410    2.497358
      9          1           0       -7.088341    1.923300    2.369903
     10          8           0       -4.720422    4.072490    4.531097
     11          6           0       -8.834530    3.160401    2.287644
     12          1           0       -9.151793    4.208986    2.372889
     13          1           0       -9.112689    2.830743    1.282404
     14          1           0       -9.415687    2.571028    3.005552
     15          6           0       -6.499935    3.772748    1.460436
     16          1           0       -6.710721    4.851137    1.482210
     17          1           0       -5.422244    3.637483    1.593312
     18          1           0       -6.756419    3.429836    0.454180
     19          7           0       -4.984877    1.817969    4.207553
     20          1           0       -5.572390    1.066501    3.843557
     21          6           0       -3.595970    1.392320    4.355336
     22          1           0       -2.946619    2.247052    4.148903
     23          6           0       -3.420756    0.252942    3.323814
     24          6           0       -3.320623    0.874573    5.775651
     25          1           0       -2.260310    0.588500    5.836524
     26          1           0       -3.926411   -0.028917    5.948942
     27          8           0       -4.420722   -0.370494    2.950451
     28          8           0       -3.648656    1.911707    6.680559
     29          1           0       -3.393180    1.628479    7.571816
     30          7           0       -2.165423    0.012517    2.932091
     31          1           0       -1.374589    0.573295    3.250670
     32          6           0       -1.772714   -1.016187    1.974407
     33          1           0       -2.150087   -1.987648    2.315767
     34          6           0       -0.227090   -1.013253    2.000039
     35          6           0       -2.308965   -0.725292    0.559594
     36          1           0       -1.977412   -1.486186   -0.153750
     37          1           0       -1.948343    0.246669    0.207522
     38          1           0       -3.401150   -0.718266    0.577676
     39          8           0        0.381107   -0.116500    2.587244
     40          7           0        0.363394   -2.033467    1.336356
     41          1           0       -0.216543   -2.587663    0.712218
     42          6           0        1.753678   -1.963874    0.867090
     43          1           0        2.221624   -1.128797    1.391178
     44          6           0        1.646276   -1.693959   -0.650522
     45          6           0        2.480378   -3.289063    1.161410
     46          1           0        2.373298   -3.500359    2.233861
     47          1           0        1.948157   -4.085251    0.624065
     48          8           0        0.797989   -2.308793   -1.307058
     49          6           0        3.972807   -3.329352    0.775906
     50          1           0        4.060395   -3.055834   -0.285369
     51          6           0        4.816864   -2.338490    1.593377
     52          1           0        4.734001   -2.547249    2.667963
     53          1           0        5.875956   -2.415793    1.321094
     54          1           0        4.518283   -1.296735    1.431903
     55          6           0        4.512216   -4.758797    0.936864
     56          1           0        4.445234   -5.089546    1.981455
     57          1           0        5.565229   -4.818852    0.637665
     58          1           0        3.947776   -5.471034    0.324028
     59          7           0        2.468036   -0.759940   -1.155649
     60          1           0        3.195542   -0.313288   -0.601791
     61          6           0        2.448242   -0.318286   -2.542455
     62          1           0        2.444516   -1.201989   -3.192373
     63          6           0        3.763185    0.467618   -2.758931
     64          6           0        1.173323    0.511011   -2.879630
     65          1           0        0.320226   -0.129017   -2.629749
     66          1           0        1.142708    0.659264   -3.964306
     67          8           0        4.557065    0.619996   -1.816686
     68          6           0        1.062668    1.854909   -2.188117
     69          6           0        0.642768    1.963724   -0.853209
     70          1           0        0.399312    1.067283   -0.289382
     71          6           0        1.374954    3.036219   -2.877239
     72          1           0        1.714119    2.987495   -3.911652
     73          6           0        0.538960    3.198978   -0.217596
     74          1           0        0.223872    3.274004    0.819035
     75          6           0        1.269990    4.279096   -2.252164
     76          1           0        1.516006    5.183095   -2.807582
     77          8           0        0.724867    5.561522   -0.260648
     78          1           0        1.005002    6.271289   -0.859555
     79          6           0        0.851960    4.365124   -0.921877
     80          7           0        3.947398    0.929640   -4.003521
     81          1           0        3.151111    0.986701   -4.659270
     82          6           0        4.834642    2.035756   -4.358206
     83          1           0        4.921246    2.713064   -3.498288
     84          6           0        4.108217    2.833724   -5.530980
     85          6           0        6.233765    1.613389   -4.803968
     86          1           0        6.145234    0.813411   -5.552893
     87          1           0        6.656459    2.489400   -5.310097
     88          8           0        4.784726    3.737303   -6.045114
     89          6           0        7.152196    1.158554   -3.664217
     90          1           0        6.728783    0.288666   -3.149908
     91          1           0        7.217441    1.954986   -2.910611
     92          6           0        8.563848    0.835264   -4.185904
     93          1           0        8.507160    0.018136   -4.919802
     94          1           0        8.966103    1.715701   -4.708041
     95          6           0        9.491130    0.443452   -3.050477
     96          1           0        9.175402   -0.469952   -2.540763
     97          1           0        9.613795    1.240568   -2.313298
     98          7           0       10.904713    0.155142   -3.589237
     99          1           0       11.567587   -0.110806   -2.851411
    100          1           0       10.876225   -0.604039   -4.280233
    101          1           0       11.277952    0.983231   -4.068750
    102          8           0        2.930614    2.438107   -5.775566
 ---------------------------------------------------------------------

 SCF Done:  E(RB3LYP) =  -2312.00938218     A.U. after    2 cycles

 Alpha  occ. eigenvalues --  -19.25605 -19.23409 -19.20644 -19.20231 -19.18744
 Alpha  occ. eigenvalues --  -19.15547 -19.13932 -19.06379 -19.05349 -14.61945
 Alpha  occ. eigenvalues --  -14.58454 -14.48252 -14.44215 -14.41962 -14.39628
 Alpha  occ. eigenvalues --  -14.35635 -10.42306 -10.39381 -10.38304 -10.37858
 Alpha  occ. eigenvalues --  -10.35615 -10.33626 -10.33371 -10.32949 -10.32675
 Alpha  occ. eigenvalues --  -10.30855 -10.30568 -10.30053 -10.29771 -10.29700
 Alpha  occ. eigenvalues --  -10.28099 -10.26890 -10.26205 -10.24479 -10.24464
 Alpha  occ. eigenvalues --  -10.24284 -10.23874 -10.23444 -10.22198 -10.22000
 Alpha  occ. eigenvalues --  -10.21533 -10.21365 -10.21158 -10.20813 -10.20726
 Alpha  occ. eigenvalues --  -10.20669 -10.20540 -10.19890  -1.18094  -1.15756
 Alpha  occ. eigenvalues --   -1.12846  -1.12199  -1.10877  -1.10476  -1.08081
 Alpha  occ. eigenvalues --   -1.07425  -1.05154  -1.04836  -1.00768  -0.99313
 Alpha  occ. eigenvalues --   -0.98564  -0.95967  -0.94272  -0.92985  -0.91244
 Alpha  occ. eigenvalues --   -0.90463  -0.88105  -0.87034  -0.86220  -0.84747
 Alpha  occ. eigenvalues --   -0.82995  -0.82645  -0.81061  -0.80966  -0.78903
 Alpha  occ. eigenvalues --   -0.76881  -0.76416  -0.75277  -0.74919  -0.74409
 Alpha  occ. eigenvalues --   -0.73587  -0.73485  -0.73130  -0.72946  -0.72604
 Alpha  occ. eigenvalues --   -0.70841  -0.70240  -0.69194  -0.68920  -0.68048
 Alpha  occ. eigenvalues --   -0.66106  -0.65347  -0.64541  -0.64087  -0.63638
 Alpha  occ. eigenvalues --   -0.62460  -0.61936  -0.61767  -0.61000  -0.60557
 Alpha  occ. eigenvalues --   -0.59973  -0.59592  -0.58892  -0.58862  -0.57940
 Alpha  occ. eigenvalues --   -0.57710  -0.56963  -0.56285  -0.56101  -0.55570
 Alpha  occ. eigenvalues --   -0.54804  -0.53992  -0.53714  -0.52595  -0.52219
 Alpha  occ. eigenvalues --   -0.52006  -0.51790  -0.51637  -0.51289  -0.51095
 Alpha  occ. eigenvalues --   -0.50907  -0.50540  -0.50097  -0.49796  -0.49617
 Alpha  occ. eigenvalues --   -0.48525  -0.48283  -0.48059  -0.47733  -0.47517
 Alpha  occ. eigenvalues --   -0.47304  -0.47174  -0.46883  -0.46585  -0.46425
 Alpha  occ. eigenvalues --   -0.46158  -0.45886  -0.45805  -0.45046  -0.44899
 Alpha  occ. eigenvalues --   -0.44756  -0.44064  -0.43624  -0.43442  -0.43261
 Alpha  occ. eigenvalues --   -0.42971  -0.42847  -0.42552  -0.42496  -0.42398
 Alpha  occ. eigenvalues --   -0.41604  -0.41385  -0.40892  -0.40463  -0.40235
 Alpha  occ. eigenvalues --   -0.39562  -0.39015  -0.38096  -0.38002  -0.37919
 Alpha  occ. eigenvalues --   -0.37494  -0.37319  -0.37200  -0.36551  -0.36140
 Alpha  occ. eigenvalues --   -0.35996  -0.35724  -0.35205  -0.34845  -0.34640
 Alpha  occ. eigenvalues --   -0.33945  -0.33445  -0.32657  -0.32159  -0.29610
 Alpha  occ. eigenvalues --   -0.29074  -0.28101  -0.26935  -0.26803  -0.23728
 Alpha  occ. eigenvalues --   -0.21541  -0.21130  -0.19621
 Alpha virt. eigenvalues --   -0.12639  -0.10945  -0.10205  -0.06747  -0.05991
 Alpha virt. eigenvalues --   -0.05771  -0.05716  -0.04500  -0.03107  -0.02906
 Alpha virt. eigenvalues --   -0.02466  -0.01806  -0.01259  -0.00874  -0.00532

 Mulliken charges:
               1
     1  N   -0.764677
     2  H    0.413898
     3  H    0.407805
     4  H    0.437657
     5  C   -0.101719
     6  H    0.212342
     7  C    0.668392
     8  C   -0.127257
     9  H    0.190627
    10  O   -0.536698
    11  C   -0.461003
    12  H    0.138597
    13  H    0.198564
    14  H    0.170518
    15  C   -0.476981
    16  H    0.141903
    17  H    0.191382
    18  H    0.200193
    19  N   -0.591842
    20  H    0.370229
    21  C   -0.091631
    22  H    0.205044
    23  C    0.630880
    24  C   -0.018644
    25  H    0.155923
    26  H    0.145249
    27  O   -0.550846
    28  O   -0.614096
    29  H    0.411055
    30  N   -0.622937
    31  H    0.367423
    32  C   -0.041611
    33  H    0.184062
    34  C    0.620153
    35  C   -0.472527
    36  H    0.180334
    37  H    0.175176
    38  H    0.184086
    39  O   -0.537964
    40  N   -0.596014
    41  H    0.349469
    42  C   -0.087136
    43  H    0.183131
    44  C    0.628276
    45  C   -0.253597
    46  H    0.143460
    47  H    0.148337
    48  O   -0.560516
    49  C   -0.084123
    50  H    0.139512
    51  C   -0.447918
    52  H    0.144058
    53  H    0.136981
    54  H    0.150814
    55  C   -0.442959
    56  H    0.143070
    57  H    0.137207
    58  H    0.149517
    59  N   -0.611386
    60  H    0.360132
    61  C   -0.034802
    62  H    0.175649
    63  C    0.604366
    64  C   -0.390902
    65  H    0.169407
    66  H    0.179433
    67  O   -0.581620
    68  C    0.154281
    69  C   -0.197892
    70  H    0.116213
    71  C   -0.215112
    72  H    0.207410
    73  C   -0.165797
    74  H    0.115545
    75  C   -0.206762
    76  H    0.130019
    77  O   -0.655063
    78  H    0.406710
    79  C    0.347447
    80  N   -0.613730
    81  H    0.361432
    82  C   -0.072306
    83  H    0.145416
    84  C    0.583202
    85  C   -0.258670
    86  H    0.127342
    87  H    0.169684
    88  O   -0.581172
    89  C   -0.265633
    90  H    0.170247
    91  H    0.149709
    92  C   -0.290964
    93  H    0.159208
    94  H    0.163168
    95  C   -0.205705
    96  H    0.224418
    97  H    0.224924
    98  N   -0.731283
    99  H    0.422104
   100  H    0.422930
   101  H    0.424122
   102  O   -0.608349
 Sum of Mulliken charges =   1.00000

 Dipole moment (field-independent basis, Debye):
    X=              5.3351    Y=              5.0125    Z=             17.4147  Tot=             18.8907
 Quadrupole moment (field-independent basis, Debye-Ang):
   XX=            341.4104   YY=           -241.0027   ZZ=           -251.2059
   XY=           -142.3198   XZ=           -200.2082   YZ=             94.9523

 Normal termination of Gaussian 16 at Sat Jul  2 15:28:07 2022.
