 Gaussian 16, Revision C.01,
 Gaussian 16:  ES64L-G16RevC.01  3-Jul-2019

 -------------------------------------------------------------------
 # B3LYP/6-31G* guess=read geom=check nosymm integral(ultrafinegrid)
 -------------------------------------------------------------------

 ------------------------------------------------------
 Candidate Structure: Conf:156 Charge calc in gas phase
 ------------------------------------------------------
 Structure from the checkpoint file:  "conf-156.chk"
 Charge =  1 Multiplicity = 1

                          Input orientation:
 ---------------------------------------------------------------------
 Center     Atomic      Atomic             Coordinates (Angstroms)
 Number     Number       Type             X           Y           Z
 ---------------------------------------------------------------------
      1          7           0       -8.556021    4.745001    3.299378
      2          1           0       -8.911225    5.079388    4.199358
      3          1           0       -9.204439    5.038192    2.564453
      4          1           0       -7.580830    5.143468    3.146654
      5          6           0       -8.279640    3.249743    3.279382
      6          1           0       -8.820820    2.794768    4.114091
      7          6           0       -6.741718    3.220972    3.513891
      8          6           0       -8.753921    2.635812    1.935352
      9          1           0       -8.198270    3.143321    1.134254
     10          8           0       -6.118852    4.272820    3.314614
     11          6           0       -8.419699    1.136239    1.861498
     12          1           0       -8.848315    0.588068    2.711495
     13          1           0       -8.863194    0.715753    0.954047
     14          1           0       -7.342162    0.966896    1.808352
     15          6           0      -10.264780    2.854032    1.730322
     16          1           0      -10.847422    2.369478    2.522985
     17          1           0      -10.571930    3.908552    1.685062
     18          1           0      -10.569800    2.412127    0.777585
     19          7           0       -6.201457    2.091373    3.975779
     20          1           0       -6.749383    1.236652    3.979172
     21          6           0       -4.761402    1.865354    3.925401
     22          1           0       -4.255705    2.748706    4.327117
     23          6           0       -4.330528    1.676270    2.437182
     24          6           0       -4.450210    0.650634    4.804543
     25          1           0       -4.639834    0.904364    5.857633
     26          1           0       -3.392097    0.378413    4.702055
     27          8           0       -5.158057    1.692779    1.527695
     28          8           0       -5.311134   -0.389886    4.357535
     29          1           0       -5.146822   -1.186693    4.884304
     30          7           0       -3.008257    1.526511    2.260821
     31          1           0       -2.346437    1.477580    3.033686
     32          6           0       -2.380795    1.261265    0.972828
     33          1           0       -2.981341    0.516647    0.437664
     34          6           0       -0.995141    0.668509    1.312219
     35          6           0       -2.263119    2.531620    0.112067
     36          1           0       -1.790081    2.313268   -0.850918
     37          1           0       -1.662659    3.288611    0.626916
     38          1           0       -3.260870    2.936485   -0.075823
     39          8           0       -0.561738    0.725597    2.466869
     40          7           0       -0.338960    0.115038    0.274828
     41          1           0       -0.681449    0.252588   -0.673863
     42          6           0        1.071519   -0.259411    0.303388
     43          1           0        1.537555    0.237663    1.158861
     44          6           0        1.669833    0.274616   -1.015654
     45          6           0        1.279531   -1.789731    0.391871
     46          1           0        0.786341   -2.240547   -0.479977
     47          1           0        2.353222   -1.997030    0.282125
     48          8           0        0.933617    0.534793   -1.974409
     49          6           0        0.769012   -2.465905    1.679143
     50          1           0       -0.288649   -2.194642    1.806151
     51          6           0        0.849481   -3.992733    1.523831
     52          1           0        1.888043   -4.320696    1.387905
     53          1           0        0.457933   -4.498592    2.413854
     54          1           0        0.273858   -4.341425    0.658037
     55          6           0        1.533061   -2.001350    2.928099
     56          1           0        2.609192   -2.194013    2.825324
     57          1           0        1.186293   -2.545515    3.814518
     58          1           0        1.384338   -0.934838    3.121282
     59          7           0        3.008000    0.404909   -1.040333
     60          1           0        3.597481    0.080043   -0.276408
     61          6           0        3.748024    0.732314   -2.249084
     62          1           0        3.345487    0.135956   -3.076747
     63          6           0        5.201883    0.291857   -1.969611
     64          6           0        3.616073    2.240632   -2.633914
     65          1           0        4.363625    2.826293   -2.087000
     66          1           0        2.633013    2.562301   -2.277565
     67          8           0        5.510373   -0.187958   -0.875614
     68          6           0        3.709814    2.502215   -4.123343
     69          6           0        4.813871    3.140618   -4.705923
     70          1           0        5.645651    3.459297   -4.083412
     71          6           0        2.659648    2.103384   -4.964724
     72          1           0        1.789579    1.614315   -4.531969
     73          6           0        4.879268    3.370821   -6.078770
     74          1           0        5.741172    3.856373   -6.524058
     75          6           0        2.710197    2.330384   -6.337723
     76          1           0        1.883263    2.017772   -6.973453
     77          8           0        3.933662    3.217100   -8.239462
     78          1           0        3.139442    2.890009   -8.689776
     79          6           0        3.823932    2.966746   -6.900438
     80          7           0        6.081884    0.468596   -2.977417
     81          1           0        5.800272    0.919753   -3.842674
     82          6           0        7.498566    0.158358   -2.841065
     83          1           0        7.762574    0.223438   -1.784194
     84          6           0        8.316808    1.167891   -3.631309
     85          6           0        7.815405   -1.282943   -3.359723
     86          1           0        7.449177   -1.973151   -2.592246
     87          1           0        7.203763   -1.455005   -4.254324
     88          8           0        9.538059    1.307048   -3.126414
     89          6           0        9.298290   -1.577098   -3.686120
     90          1           0        9.476802   -2.648175   -3.536070
     91          1           0        9.938010   -1.057668   -2.966240
     92          6           0        9.709800   -1.208750   -5.141127
     93          1           0        9.649483   -2.113568   -5.757526
     94          1           0        8.983395   -0.512725   -5.578320
     95          6           0       11.117181   -0.603849   -5.320180
     96          1           0       11.528805   -0.911502   -6.291798
     97          1           0       11.797922   -0.985080   -4.550801
     98          7           0       11.106144    0.879196   -5.208542
     99          1           0       12.057916    1.241628   -5.251798
    100          1           0       10.607198    1.276915   -6.004964
    101          1           0       10.205375    1.402887   -3.901875
    102          8           0        7.915457    1.680785   -4.664258
 ---------------------------------------------------------------------

 SCF Done:  E(RB3LYP) =  -2312.09827060     A.U. after    1 cycles

 Alpha  occ. eigenvalues --  -19.26596 -19.25987 -19.21669 -19.20638 -19.20186
 Alpha  occ. eigenvalues --  -19.19300 -19.17858 -19.17173 -19.16878 -14.59483
 Alpha  occ. eigenvalues --  -14.49204 -14.44246 -14.42666 -14.41355 -14.40760
 Alpha  occ. eigenvalues --  -14.39626 -10.43312 -10.40277 -10.37975 -10.36221
 Alpha  occ. eigenvalues --  -10.35019 -10.34859 -10.34693 -10.34527 -10.34017
 Alpha  occ. eigenvalues --  -10.33845 -10.31288 -10.30831 -10.29419 -10.28811
 Alpha  occ. eigenvalues --  -10.28715 -10.28585 -10.27491 -10.26819 -10.25391
 Alpha  occ. eigenvalues --  -10.24319 -10.24011 -10.23986 -10.23382 -10.23222
 Alpha  occ. eigenvalues --  -10.23112 -10.23040 -10.22977 -10.22877 -10.22675
 Alpha  occ. eigenvalues --  -10.22194 -10.22078 -10.21623  -1.19128  -1.13813
 Alpha  occ. eigenvalues --   -1.13218  -1.12403  -1.12313  -1.11005  -1.09704
 Alpha  occ. eigenvalues --   -1.09630  -1.08577  -1.05740  -1.03944  -1.00927
 Alpha  occ. eigenvalues --   -0.99375  -0.98075  -0.97242  -0.95053  -0.94599
 Alpha  occ. eigenvalues --   -0.89349  -0.88896  -0.86754  -0.85301  -0.84703
 Alpha  occ. eigenvalues --   -0.83766  -0.83134  -0.80670  -0.80197  -0.79648
 Alpha  occ. eigenvalues --   -0.78595  -0.76803  -0.75735  -0.74584  -0.73955
 Alpha  occ. eigenvalues --   -0.73882  -0.73454  -0.72776  -0.72088  -0.71248
 Alpha  occ. eigenvalues --   -0.70107  -0.69422  -0.67279  -0.67020  -0.66080
 Alpha  occ. eigenvalues --   -0.65793  -0.65254  -0.64594  -0.63978  -0.63806
 Alpha  occ. eigenvalues --   -0.63270  -0.62628  -0.62313  -0.62224  -0.61583
 Alpha  occ. eigenvalues --   -0.61144  -0.59294  -0.58486  -0.58172  -0.57251
 Alpha  occ. eigenvalues --   -0.56491  -0.56396  -0.55662  -0.55566  -0.54760
 Alpha  occ. eigenvalues --   -0.54675  -0.54159  -0.54028  -0.53418  -0.52931
 Alpha  occ. eigenvalues --   -0.52489  -0.52170  -0.51964  -0.51833  -0.51440
 Alpha  occ. eigenvalues --   -0.50999  -0.50889  -0.50649  -0.50402  -0.50131
 Alpha  occ. eigenvalues --   -0.49713  -0.49546  -0.49302  -0.48989  -0.48329
 Alpha  occ. eigenvalues --   -0.48051  -0.47804  -0.47532  -0.47398  -0.47230
 Alpha  occ. eigenvalues --   -0.46669  -0.46439  -0.46100  -0.45928  -0.45866
 Alpha  occ. eigenvalues --   -0.45785  -0.45544  -0.45531  -0.45036  -0.44960
 Alpha  occ. eigenvalues --   -0.44557  -0.44264  -0.44012  -0.43601  -0.43088
 Alpha  occ. eigenvalues --   -0.42833  -0.42753  -0.42564  -0.41337  -0.41185
 Alpha  occ. eigenvalues --   -0.41150  -0.40837  -0.40321  -0.40102  -0.39451
 Alpha  occ. eigenvalues --   -0.39222  -0.38562  -0.38075  -0.37988  -0.37724
 Alpha  occ. eigenvalues --   -0.37504  -0.37452  -0.37388  -0.37337  -0.36607
 Alpha  occ. eigenvalues --   -0.34658  -0.34217  -0.33803  -0.33329  -0.32786
 Alpha  occ. eigenvalues --   -0.31985  -0.31585  -0.31534  -0.31088  -0.30493
 Alpha  occ. eigenvalues --   -0.29484  -0.28916  -0.25658
 Alpha virt. eigenvalues --   -0.12275  -0.10744  -0.06823  -0.06208  -0.04858
 Alpha virt. eigenvalues --   -0.04584  -0.04563  -0.03772  -0.03253  -0.02842
 Alpha virt. eigenvalues --   -0.02656  -0.01837  -0.00807  -0.00440   0.00239

 Mulliken charges:
               1
     1  N   -0.760890
     2  H    0.413810
     3  H    0.409422
     4  H    0.434364
     5  C   -0.112756
     6  H    0.202086
     7  C    0.672468
     8  C   -0.100324
     9  H    0.179856
    10  O   -0.539099
    11  C   -0.501887
    12  H    0.147407
    13  H    0.183122
    14  H    0.226825
    15  C   -0.473660
    16  H    0.173122
    17  H    0.134637
    18  H    0.201759
    19  N   -0.588425
    20  H    0.374372
    21  C   -0.101226
    22  H    0.207926
    23  C    0.657421
    24  C   -0.057626
    25  H    0.158658
    26  H    0.172201
    27  O   -0.535775
    28  O   -0.628081
    29  H    0.422482
    30  N   -0.618559
    31  H    0.361477
    32  C   -0.043602
    33  H    0.183958
    34  C    0.617631
    35  C   -0.454618
    36  H    0.171006
    37  H    0.164955
    38  H    0.181279
    39  O   -0.544672
    40  N   -0.601395
    41  H    0.357379
    42  C   -0.080326
    43  H    0.184478
    44  C    0.624477
    45  C   -0.255549
    46  H    0.143801
    47  H    0.148470
    48  O   -0.554822
    49  C   -0.065783
    50  H    0.126426
    51  C   -0.445001
    52  H    0.147807
    53  H    0.143932
    54  H    0.141559
    55  C   -0.462857
    56  H    0.141114
    57  H    0.140804
    58  H    0.170283
    59  N   -0.622923
    60  H    0.362505
    61  C   -0.035958
    62  H    0.187005
    63  C    0.604946
    64  C   -0.355883
    65  H    0.156912
    66  H    0.179144
    67  O   -0.543635
    68  C    0.126131
    69  C   -0.201717
    70  H    0.144532
    71  C   -0.194742
    72  H    0.155953
    73  C   -0.150569
    74  H    0.151436
    75  C   -0.193085
    76  H    0.121887
    77  O   -0.638674
    78  H    0.408633
    79  C    0.349806
    80  N   -0.622763
    81  H    0.366016
    82  C   -0.018652
    83  H    0.194097
    84  C    0.574350
    85  C   -0.278247
    86  H    0.164662
    87  H    0.148060
    88  O   -0.600657
    89  C   -0.284154
    90  H    0.144324
    91  H    0.169462
    92  C   -0.289866
    93  H    0.148956
    94  H    0.163281
    95  C   -0.142631
    96  H    0.145475
    97  H    0.162341
    98  N   -0.773728
    99  H    0.330415
   100  H    0.338396
   101  H    0.455105
   102  O   -0.501788
 Sum of Mulliken charges =   1.00000

 Dipole moment (field-independent basis, Debye):
    X=            -25.4449    Y=             11.0523    Z=              9.3328  Tot=             29.2694
 Quadrupole moment (field-independent basis, Debye-Ang):
   XX=            107.8621   YY=           -222.3621   ZZ=           -177.0587
   XY=           -130.5743   XZ=           -173.8506   YZ=             46.9422

 Normal termination of Gaussian 16 at Sat Jul  2 15:27:39 2022.
