 Gaussian 16, Revision C.01,
 Gaussian 16:  ES64L-G16RevC.01  3-Jul-2019

 -------------------------------------------------------------------
 # B3LYP/6-31G* guess=read geom=check nosymm integral(ultrafinegrid)
 -------------------------------------------------------------------

 ------------------------------------------------------
 Candidate Structure: Conf:961 Charge calc in gas phase
 ------------------------------------------------------
 Structure from the checkpoint file:  "conf-961.chk"
 Charge =  1 Multiplicity = 1

                          Input orientation:
 ---------------------------------------------------------------------
 Center     Atomic      Atomic             Coordinates (Angstroms)
 Number     Number       Type             X           Y           Z
 ---------------------------------------------------------------------
      1          7           0       -6.571958    3.512667    3.494589
      2          1           0       -7.236358    3.338190    4.254940
      3          1           0       -6.883913    4.335595    2.970293
      4          1           0       -5.616999    3.674101    3.914451
      5          6           0       -6.351260    2.296786    2.608507
      6          1           0       -7.200582    1.623414    2.748340
      7          6           0       -5.044180    1.699315    3.187165
      8          6           0       -6.251724    2.734563    1.119705
      9          1           0       -7.200443    3.252889    0.911273
     10          8           0       -4.321345    2.441341    3.870484
     11          6           0       -5.086130    3.700851    0.855560
     12          1           0       -4.119026    3.234763    1.067985
     13          1           0       -5.069531    3.999525   -0.195242
     14          1           0       -5.145529    4.625002    1.445475
     15          6           0       -6.191237    1.514720    0.185294
     16          1           0       -5.225099    1.002744    0.242169
     17          1           0       -6.989357    0.792258    0.394434
     18          1           0       -6.318412    1.849272   -0.848096
     19          7           0       -4.778046    0.426255    2.900514
     20          1           0       -5.375086   -0.130741    2.290633
     21          6           0       -3.503128   -0.235682    3.207804
     22          1           0       -3.182381    0.061563    4.210219
     23          6           0       -2.478814    0.186301    2.133502
     24          6           0       -3.771313   -1.752853    3.126928
     25          1           0       -4.391782   -2.062941    3.972206
     26          1           0       -2.819084   -2.295627    3.179656
     27          8           0       -2.482557   -0.372716    1.024337
     28          8           0       -4.497687   -2.052006    1.948011
     29          1           0       -3.892442   -1.839463    1.209780
     30          7           0       -1.651902    1.194664    2.453166
     31          1           0       -1.745324    1.617636    3.368947
     32          6           0       -0.806961    1.909853    1.475929
     33          1           0       -1.361390    1.921055    0.529181
     34          6           0        0.537718    1.200449    1.179881
     35          6           0       -0.576221    3.338467    1.959431
     36          1           0       -0.007158    3.890600    1.210703
     37          1           0        0.000894    3.352465    2.889761
     38          1           0       -1.534744    3.843893    2.118330
     39          8           0        1.599097    1.819724    1.235373
     40          7           0        0.450464   -0.099049    0.802367
     41          1           0       -0.472195   -0.486186    0.618933
     42          6           0        1.636285   -0.855053    0.375499
     43          1           0        2.477024   -0.404520    0.910526
     44          6           0        1.861741   -0.633975   -1.148195
     45          6           0        1.497591   -2.337847    0.736464
     46          1           0        1.016329   -2.407777    1.720863
     47          1           0        0.828528   -2.809249    0.007146
     48          8           0        1.727352   -1.552172   -1.972190
     49          6           0        2.833324   -3.111210    0.783902
     50          1           0        3.400007   -2.858666   -0.124933
     51          6           0        3.691840   -2.717602    1.995901
     52          1           0        3.177974   -2.968473    2.932690
     53          1           0        4.646474   -3.255215    1.988929
     54          1           0        3.922170   -1.646710    2.017056
     55          6           0        2.571111   -4.624621    0.775480
     56          1           0        1.987591   -4.924436    1.655161
     57          1           0        3.509209   -5.190953    0.797767
     58          1           0        2.007802   -4.931923   -0.114074
     59          7           0        2.130074    0.643601   -1.473003
     60          1           0        2.269567    1.295579   -0.705095
     61          6           0        2.277312    1.145871   -2.832967
     62          1           0        1.478725    0.698748   -3.436807
     63          6           0        3.608993    0.655866   -3.477988
     64          6           0        2.144797    2.679911   -2.838920
     65          1           0        2.352990    3.044061   -3.852219
     66          1           0        2.947345    3.098050   -2.215942
     67          8           0        4.340920   -0.136639   -2.838393
     68          6           0        0.809858    3.247847   -2.380055
     69          6           0       -0.400120    2.545376   -2.459650
     70          1           0       -0.413830    1.521703   -2.821584
     71          6           0        0.759132    4.571332   -1.919411
     72          1           0        1.678393    5.147852   -1.852001
     73          6           0       -1.614097    3.134806   -2.099868
     74          1           0       -2.547732    2.587769   -2.193870
     75          6           0       -0.443858    5.177393   -1.560231
     76          1           0       -0.451064    6.209879   -1.215064
     77          8           0       -2.855606    4.999759   -1.302884
     78          1           0       -2.743882    5.957777   -1.197728
     79          6           0       -1.638001    4.457120   -1.652783
     80          7           0        3.776973    1.076793   -4.725068
     81          1           0        3.211207    1.850930   -5.163508
     82          6           0        4.900330    0.942760   -5.668454
     83          1           0        5.846130    1.047190   -5.125379
     84          6           0        4.708443    2.163043   -6.668358
     85          6           0        4.905224   -0.406889   -6.439218
     86          1           0        4.122830   -0.404763   -7.208681
     87          1           0        5.867054   -0.494763   -6.951808
     88          8           0        3.655992    2.841087   -6.443148
     89          6           0        4.643068   -1.488576   -5.397534
     90          1           0        3.678569   -1.185647   -4.980079
     91          1           0        5.382767   -1.339454   -4.605186
     92          6           0        4.505939   -2.996401   -5.628531
     93          1           0        4.016811   -3.239964   -6.579413
     94          1           0        5.473685   -3.511796   -5.625134
     95          6           0        3.585480   -3.524151   -4.507821
     96          1           0        3.625198   -4.608093   -4.372844
     97          1           0        2.552179   -3.238413   -4.717901
     98          7           0        3.883903   -2.898084   -3.147831
     99          1           0        3.044304   -2.884093   -2.544376
    100          1           0        4.647578   -3.376623   -2.664368
    101          1           0        4.131854   -1.868197   -3.190939
    102          8           0        5.575732    2.267174   -7.540428
 ---------------------------------------------------------------------

 SCF Done:  E(RB3LYP) =  -2312.02352928     A.U. after    1 cycles

 Alpha  occ. eigenvalues --  -19.29644 -19.26518 -19.26306 -19.25582 -19.21127
 Alpha  occ. eigenvalues --  -19.20230 -19.16413 -19.07260 -19.05678 -14.62636
 Alpha  occ. eigenvalues --  -14.52715 -14.51780 -14.49623 -14.45031 -14.43322
 Alpha  occ. eigenvalues --  -14.38089 -10.46425 -10.43017 -10.42452 -10.38256
 Alpha  occ. eigenvalues --  -10.37675 -10.36915 -10.36481 -10.36181 -10.34296
 Alpha  occ. eigenvalues --  -10.33391 -10.33105 -10.32656 -10.31813 -10.31683
 Alpha  occ. eigenvalues --  -10.31550 -10.29867 -10.27857 -10.27225 -10.26613
 Alpha  occ. eigenvalues --  -10.26613 -10.26591 -10.26517 -10.26459 -10.26387
 Alpha  occ. eigenvalues --  -10.26309 -10.25906 -10.25066 -10.24874 -10.24702
 Alpha  occ. eigenvalues --  -10.23042 -10.22862 -10.21232  -1.21960  -1.17445
 Alpha  occ. eigenvalues --   -1.16448  -1.14075  -1.13909  -1.13035  -1.11325
 Alpha  occ. eigenvalues --   -1.08890  -1.07445  -1.06382  -1.05481  -1.01534
 Alpha  occ. eigenvalues --   -1.00178  -0.99657  -0.97226  -0.94980  -0.92733
 Alpha  occ. eigenvalues --   -0.91423  -0.91296  -0.89279  -0.88010  -0.86945
 Alpha  occ. eigenvalues --   -0.86608  -0.85738  -0.82985  -0.82882  -0.82233
 Alpha  occ. eigenvalues --   -0.81242  -0.79535  -0.78404  -0.77432  -0.76731
 Alpha  occ. eigenvalues --   -0.75860  -0.75751  -0.75050  -0.74664  -0.73616
 Alpha  occ. eigenvalues --   -0.72045  -0.71428  -0.71379  -0.69523  -0.69146
 Alpha  occ. eigenvalues --   -0.68507  -0.67630  -0.67149  -0.66404  -0.65782
 Alpha  occ. eigenvalues --   -0.65134  -0.64991  -0.64790  -0.63856  -0.63565
 Alpha  occ. eigenvalues --   -0.62782  -0.62078  -0.62055  -0.61541  -0.60202
 Alpha  occ. eigenvalues --   -0.59514  -0.59310  -0.58995  -0.58204  -0.57543
 Alpha  occ. eigenvalues --   -0.56949  -0.56661  -0.56362  -0.55954  -0.55837
 Alpha  occ. eigenvalues --   -0.55036  -0.54910  -0.54549  -0.54378  -0.53825
 Alpha  occ. eigenvalues --   -0.53691  -0.53297  -0.52918  -0.51944  -0.51651
 Alpha  occ. eigenvalues --   -0.51371  -0.51045  -0.50940  -0.50553  -0.50007
 Alpha  occ. eigenvalues --   -0.49806  -0.49651  -0.49465  -0.49244  -0.49110
 Alpha  occ. eigenvalues --   -0.48943  -0.48724  -0.48350  -0.48240  -0.47902
 Alpha  occ. eigenvalues --   -0.47802  -0.47582  -0.47119  -0.46884  -0.46224
 Alpha  occ. eigenvalues --   -0.46121  -0.45872  -0.45698  -0.45624  -0.44982
 Alpha  occ. eigenvalues --   -0.44459  -0.44100  -0.43760  -0.43733  -0.43423
 Alpha  occ. eigenvalues --   -0.42764  -0.42399  -0.41647  -0.40958  -0.40849
 Alpha  occ. eigenvalues --   -0.40430  -0.40320  -0.40099  -0.39984  -0.39897
 Alpha  occ. eigenvalues --   -0.39788  -0.38456  -0.38255  -0.37340  -0.36806
 Alpha  occ. eigenvalues --   -0.36536  -0.36048  -0.34324  -0.34187  -0.33834
 Alpha  occ. eigenvalues --   -0.32676  -0.32518  -0.30242  -0.29488  -0.29208
 Alpha  occ. eigenvalues --   -0.22388  -0.22035  -0.19907
 Alpha virt. eigenvalues --   -0.15495  -0.13409  -0.11853  -0.08988  -0.08784
 Alpha virt. eigenvalues --   -0.07540  -0.06813  -0.06484  -0.05883  -0.04830
 Alpha virt. eigenvalues --   -0.04320  -0.03358  -0.03106  -0.02916  -0.02393

 Mulliken charges:
               1
     1  N   -0.755941
     2  H    0.422173
     3  H    0.418089
     4  H    0.435442
     5  C   -0.110825
     6  H    0.214644
     7  C    0.662175
     8  C   -0.114181
     9  H    0.165841
    10  O   -0.548476
    11  C   -0.480141
    12  H    0.185939
    13  H    0.220863
    14  H    0.131776
    15  C   -0.483150
    16  H    0.180344
    17  H    0.166491
    18  H    0.201399
    19  N   -0.591210
    20  H    0.376236
    21  C   -0.101128
    22  H    0.191122
    23  C    0.646261
    24  C   -0.059242
    25  H    0.179795
    26  H    0.173616
    27  O   -0.564439
    28  O   -0.626297
    29  H    0.429967
    30  N   -0.584262
    31  H    0.359507
    32  C   -0.081551
    33  H    0.203101
    34  C    0.636045
    35  C   -0.477034
    36  H    0.210082
    37  H    0.172826
    38  H    0.142293
    39  O   -0.525512
    40  N   -0.622567
    41  H    0.368969
    42  C   -0.079014
    43  H    0.196091
    44  C    0.646474
    45  C   -0.266919
    46  H    0.132618
    47  H    0.152769
    48  O   -0.592695
    49  C   -0.075885
    50  H    0.105176
    51  C   -0.451551
    52  H    0.145933
    53  H    0.156186
    54  H    0.156353
    55  C   -0.450234
    56  H    0.150633
    57  H    0.150854
    58  H    0.139982
    59  N   -0.591727
    60  H    0.376159
    61  C   -0.061310
    62  H    0.178693
    63  C    0.624117
    64  C   -0.409414
    65  H    0.230105
    66  H    0.166708
    67  O   -0.605229
    68  C    0.166543
    69  C   -0.185581
    70  H    0.138731
    71  C   -0.182571
    72  H    0.153496
    73  C   -0.179627
    74  H    0.129654
    75  C   -0.197033
    76  H    0.133123
    77  O   -0.666221
    78  H    0.412640
    79  C    0.349551
    80  N   -0.609346
    81  H    0.382418
    82  C   -0.076701
    83  H    0.155351
    84  C    0.592409
    85  C   -0.262879
    86  H    0.146225
    87  H    0.170935
    88  O   -0.628067
    89  C   -0.304739
    90  H    0.139594
    91  H    0.156364
    92  C   -0.264029
    93  H    0.174855
    94  H    0.159322
    95  C   -0.192807
    96  H    0.182943
    97  H    0.207890
    98  N   -0.802263
    99  H    0.430767
   100  H    0.385011
   101  H    0.458291
   102  O   -0.568165
 Sum of Mulliken charges =   1.00000

 Dipole moment (field-independent basis, Debye):
    X=            -31.0189    Y=              0.5490    Z=             24.4732  Tot=             39.5146
 Quadrupole moment (field-independent basis, Debye-Ang):
   XX=           -128.5576   YY=           -204.3316   ZZ=           -335.6513
   XY=           -153.3718   XZ=            -27.3245   YZ=            108.1230

 Normal termination of Gaussian 16 at Sat Jul  2 15:28:01 2022.
