 Gaussian 16, Revision C.01,
 Gaussian 16:  ES64L-G16RevC.01  3-Jul-2019

 -------------------------------------------------------------------
 # B3LYP/6-31G* guess=read geom=check nosymm integral(ultrafinegrid)
 -------------------------------------------------------------------

 ------------------------------------------------------
 Candidate Structure: Conf:126 Charge calc in gas phase
 ------------------------------------------------------
 Structure from the checkpoint file:  "conf-126.chk"
 Charge =  1 Multiplicity = 1

                          Input orientation:
 ---------------------------------------------------------------------
 Center     Atomic      Atomic             Coordinates (Angstroms)
 Number     Number       Type             X           Y           Z
 ---------------------------------------------------------------------
      1          7           0       -7.815435    1.670146    3.817274
      2          1           0       -7.667427    1.798268    4.821702
      3          1           0       -8.819800    1.594400    3.641427
      4          1           0       -7.441424    2.500745    3.337071
      5          6           0       -7.059745    0.492804    3.287900
      6          1           0       -7.244629   -0.371999    3.934700
      7          6           0       -5.592631    0.923798    3.353151
      8          6           0       -7.509740    0.131511    1.854286
      9          1           0       -7.381316    1.035566    1.247411
     10          8           0       -5.312452    2.093209    3.106910
     11          6           0       -6.660329   -0.998643    1.257488
     12          1           0       -6.750459   -1.906426    1.869021
     13          1           0       -7.028583   -1.244993    0.258929
     14          1           0       -5.594885   -0.770371    1.159213
     15          6           0       -8.986366   -0.285617    1.818677
     16          1           0       -9.144155   -1.181847    2.426978
     17          1           0       -9.675618    0.488240    2.172151
     18          1           0       -9.278673   -0.521546    0.792691
     19          7           0       -4.678329   -0.016816    3.722123
     20          1           0       -4.952561   -0.980480    3.563037
     21          6           0       -3.249428    0.247032    3.490084
     22          1           0       -3.062810    1.279236    3.789131
     23          6           0       -2.925962    0.044810    2.002847
     24          6           0       -2.422963   -0.688638    4.369393
     25          1           0       -1.357796   -0.540288    4.172247
     26          1           0       -2.667643   -1.728463    4.099762
     27          8           0       -3.138812   -1.062971    1.469139
     28          8           0       -2.627221   -0.435469    5.744570
     29          1           0       -3.581713   -0.427981    5.892870
     30          7           0       -2.459007    1.131561    1.352211
     31          1           0       -2.309857    1.980194    1.874778
     32          6           0       -2.120683    1.134407   -0.074267
     33          1           0       -2.796375    0.405943   -0.534294
     34          6           0       -0.672007    0.644770   -0.247480
     35          6           0       -2.322953    2.520179   -0.660439
     36          1           0       -2.100893    2.514665   -1.730018
     37          1           0       -1.652098    3.240615   -0.186319
     38          1           0       -3.358339    2.840350   -0.517410
     39          8           0        0.272433    1.423371   -0.378495
     40          7           0       -0.519448   -0.697857   -0.234095
     41          1           0       -1.329888   -1.256534    0.007505
     42          6           0        0.790897   -1.322517   -0.085255
     43          1           0        1.442656   -0.585013    0.398666
     44          6           0        1.417634   -1.616518   -1.466995
     45          6           0        0.698398   -2.585479    0.763593
     46          1           0       -0.027459   -3.263011    0.303256
     47          1           0        1.666864   -3.090285    0.709567
     48          8           0        1.872771   -2.719482   -1.754793
     49          6           0        0.320338   -2.357845    2.236030
     50          1           0       -0.725392   -2.019338    2.266967
     51          6           0        0.424296   -3.682861    2.996902
     52          1           0        1.465524   -4.016382    3.044867
     53          1           0        0.057135   -3.575501    4.023252
     54          1           0       -0.158148   -4.471842    2.511728
     55          6           0        1.202776   -1.291005    2.895182
     56          1           0        2.255364   -1.454832    2.638734
     57          1           0        1.121414   -1.331480    3.987140
     58          1           0        0.932129   -0.278454    2.577091
     59          7           0        1.412554   -0.568237   -2.324904
     60          1           0        1.227059    0.353885   -1.945954
     61          6           0        1.959253   -0.682453   -3.668883
     62          1           0        1.467292   -1.525231   -4.164491
     63          6           0        3.467197   -0.971001   -3.637736
     64          6           0        1.679042    0.622982   -4.440021
     65          1           0        2.202118    1.428116   -3.914446
     66          1           0        0.604126    0.821017   -4.382863
     67          8           0        4.234036   -0.325583   -2.925571
     68          6           0        2.127300    0.566207   -5.879455
     69          6           0        3.447842    0.884224   -6.220299
     70          1           0        4.134029    1.192843   -5.435585
     71          6           0        1.269662    0.147375   -6.898487
     72          1           0        0.235432   -0.090871   -6.668855
     73          6           0        3.907445    0.772565   -7.527988
     74          1           0        4.933226    1.008201   -7.787822
     75          6           0        1.716846    0.025566   -8.213534
     76          1           0        1.033969   -0.308965   -8.989885
     77          8           0        3.545646    0.226706   -9.791242
     78          1           0        2.859935   -0.112041  -10.380020
     79          6           0        3.040740    0.330226   -8.527873
     80          7           0        3.853253   -1.958353   -4.471923
     81          1           0        3.312303   -2.225891   -5.299006
     82          6           0        5.237729   -2.268241   -4.717065
     83          1           0        5.854942   -1.371020   -4.569521
     84          6           0        5.321142   -2.735935   -6.218142
     85          6           0        5.790330   -3.392373   -3.839365
     86          1           0        5.229942   -4.317070   -4.021928
     87          1           0        6.818003   -3.560292   -4.177164
     88          8           0        6.461346   -3.006095   -6.624088
     89          6           0        5.769081   -3.065654   -2.346429
     90          1           0        4.740906   -2.984690   -1.988071
     91          1           0        6.235135   -2.087606   -2.185647
     92          6           0        6.523124   -4.122422   -1.541028
     93          1           0        6.079601   -5.110287   -1.714597
     94          1           0        7.561904   -4.167659   -1.890526
     95          6           0        6.514408   -3.819466   -0.056985
     96          1           0        5.492562   -3.821174    0.332524
     97          1           0        6.939812   -2.831101    0.132177
     98          7           0        7.303989   -4.836210    0.722030
     99          1           0        7.306320   -4.649261    1.728741
    100          1           0        6.924914   -5.775935    0.579244
    101          1           0        8.277954   -4.851934    0.407454
    102          8           0        4.216386   -2.791515   -6.818738
 ---------------------------------------------------------------------

 SCF Done:  E(RB3LYP) =  -2311.95224511     A.U. after    3 cycles

 Alpha  occ. eigenvalues --  -19.28575 -19.25273 -19.23625 -19.19421 -19.17478
 Alpha  occ. eigenvalues --  -19.15027 -19.10345 -19.03120 -19.02746 -14.64278
 Alpha  occ. eigenvalues --  -14.61468 -14.51905 -14.48310 -14.43488 -14.38373
 Alpha  occ. eigenvalues --  -14.32472 -10.45340 -10.42869 -10.40869 -10.36741
 Alpha  occ. eigenvalues --  -10.36415 -10.36295 -10.36028 -10.34744 -10.32978
 Alpha  occ. eigenvalues --  -10.32859 -10.32019 -10.31370 -10.28854 -10.27994
 Alpha  occ. eigenvalues --  -10.27132 -10.26815 -10.26090 -10.24749 -10.24734
 Alpha  occ. eigenvalues --  -10.24588 -10.24446 -10.24188 -10.22146 -10.21170
 Alpha  occ. eigenvalues --  -10.20963 -10.19434 -10.19202 -10.18921 -10.18677
 Alpha  occ. eigenvalues --  -10.18628 -10.18539 -10.18016  -1.21621  -1.18118
 Alpha  occ. eigenvalues --   -1.15845  -1.14939  -1.13127  -1.11375  -1.07831
 Alpha  occ. eigenvalues --   -1.06870  -1.05697  -1.04197  -1.02190  -1.00028
 Alpha  occ. eigenvalues --   -0.97769  -0.96707  -0.94876  -0.90867  -0.90306
 Alpha  occ. eigenvalues --   -0.89948  -0.88545  -0.87791  -0.87551  -0.85833
 Alpha  occ. eigenvalues --   -0.85543  -0.83203  -0.81836  -0.81086  -0.79530
 Alpha  occ. eigenvalues --   -0.78405  -0.77799  -0.76712  -0.75680  -0.75621
 Alpha  occ. eigenvalues --   -0.75126  -0.74681  -0.74225  -0.74203  -0.73693
 Alpha  occ. eigenvalues --   -0.72768  -0.72604  -0.71384  -0.70281  -0.68605
 Alpha  occ. eigenvalues --   -0.67640  -0.66866  -0.66312  -0.65286  -0.63904
 Alpha  occ. eigenvalues --   -0.63650  -0.63230  -0.62415  -0.62280  -0.61977
 Alpha  occ. eigenvalues --   -0.61612  -0.60178  -0.59507  -0.59379  -0.58792
 Alpha  occ. eigenvalues --   -0.58579  -0.58135  -0.57472  -0.56674  -0.56069
 Alpha  occ. eigenvalues --   -0.55673  -0.55358  -0.55280  -0.54374  -0.53942
 Alpha  occ. eigenvalues --   -0.53574  -0.52962  -0.52582  -0.52547  -0.52353
 Alpha  occ. eigenvalues --   -0.51575  -0.50787  -0.50615  -0.50331  -0.50059
 Alpha  occ. eigenvalues --   -0.49820  -0.49614  -0.49389  -0.48981  -0.48743
 Alpha  occ. eigenvalues --   -0.48120  -0.47890  -0.47620  -0.47108  -0.46947
 Alpha  occ. eigenvalues --   -0.46491  -0.46186  -0.45896  -0.45372  -0.45050
 Alpha  occ. eigenvalues --   -0.44837  -0.44529  -0.44328  -0.43778  -0.43667
 Alpha  occ. eigenvalues --   -0.43149  -0.43024  -0.42281  -0.42140  -0.41793
 Alpha  occ. eigenvalues --   -0.41445  -0.40928  -0.40610  -0.40096  -0.39887
 Alpha  occ. eigenvalues --   -0.39528  -0.39368  -0.39156  -0.38623  -0.38548
 Alpha  occ. eigenvalues --   -0.37979  -0.37163  -0.36956  -0.36533  -0.36070
 Alpha  occ. eigenvalues --   -0.35628  -0.34968  -0.34209  -0.34047  -0.33626
 Alpha  occ. eigenvalues --   -0.32862  -0.32765  -0.32393  -0.30867  -0.29053
 Alpha  occ. eigenvalues --   -0.28047  -0.25064  -0.24292  -0.23715  -0.21586
 Alpha  occ. eigenvalues --   -0.18511  -0.18061  -0.16678
 Alpha virt. eigenvalues --   -0.16012  -0.13523  -0.11913  -0.10735  -0.08773
 Alpha virt. eigenvalues --   -0.07858  -0.06177  -0.05981  -0.05506  -0.05170
 Alpha virt. eigenvalues --   -0.03626  -0.02942  -0.02457  -0.01729  -0.01472

 Mulliken charges:
               1
     1  N   -0.722251
     2  H    0.424707
     3  H    0.417295
     4  H    0.429112
     5  C   -0.134463
     6  H    0.202865
     7  C    0.630307
     8  C   -0.099698
     9  H    0.172360
    10  O   -0.514482
    11  C   -0.495607
    12  H    0.158316
    13  H    0.197126
    14  H    0.205149
    15  C   -0.474662
    16  H    0.177489
    17  H    0.136974
    18  H    0.209517
    19  N   -0.610663
    20  H    0.356418
    21  C   -0.103778
    22  H    0.191960
    23  C    0.641509
    24  C   -0.046107
    25  H    0.193694
    26  H    0.153838
    27  O   -0.563139
    28  O   -0.598249
    29  H    0.393003
    30  N   -0.577361
    31  H    0.353689
    32  C   -0.071306
    33  H    0.182174
    34  C    0.625683
    35  C   -0.464802
    36  H    0.193427
    37  H    0.183179
    38  H    0.148793
    39  O   -0.526987
    40  N   -0.591997
    41  H    0.355982
    42  C   -0.090788
    43  H    0.190470
    44  C    0.642175
    45  C   -0.280772
    46  H    0.149501
    47  H    0.153557
    48  O   -0.535908
    49  C   -0.085291
    50  H    0.120957
    51  C   -0.441339
    52  H    0.134444
    53  H    0.139711
    54  H    0.150144
    55  C   -0.462699
    56  H    0.143790
    57  H    0.145615
    58  H    0.150043
    59  N   -0.628438
    60  H    0.362881
    61  C   -0.008911
    62  H    0.159589
    63  C    0.627191
    64  C   -0.392401
    65  H    0.160660
    66  H    0.127530
    67  O   -0.591603
    68  C    0.157455
    69  C   -0.184547
    70  H    0.142915
    71  C   -0.186023
    72  H    0.103355
    73  C   -0.138661
    74  H    0.146068
    75  C   -0.181565
    76  H    0.109359
    77  O   -0.638667
    78  H    0.404989
    79  C    0.373136
    80  N   -0.589648
    81  H    0.356086
    82  C   -0.069604
    83  H    0.139713
    84  C    0.581215
    85  C   -0.254048
    86  H    0.132290
    87  H    0.153651
    88  O   -0.585451
    89  C   -0.276791
    90  H    0.179176
    91  H    0.159466
    92  C   -0.286597
    93  H    0.156178
    94  H    0.155604
    95  C   -0.223791
    96  H    0.221609
    97  H    0.225320
    98  N   -0.718089
    99  H    0.418154
   100  H    0.422890
   101  H    0.424372
   102  O   -0.608641
 Sum of Mulliken charges =   1.00000

 Dipole moment (field-independent basis, Debye):
    X=            -27.1148    Y=             -5.1325    Z=             38.2841  Tot=             47.1935
 Quadrupole moment (field-independent basis, Debye-Ang):
   XX=             85.1858   YY=           -215.9145   ZZ=           -346.0082
   XY=           -122.7587   XZ=             29.8342   YZ=            -56.9596

 Normal termination of Gaussian 16 at Sat Jul  2 15:28:36 2022.
