 Gaussian 16, Revision C.01,
 Gaussian 16:  ES64L-G16RevC.01  3-Jul-2019

 -------------------------------------------------------------------
 # B3LYP/6-31G* guess=read geom=check nosymm integral(ultrafinegrid)
 -------------------------------------------------------------------

 ------------------------------------------------------
 Candidate Structure: Conf:746 Charge calc in gas phase
 ------------------------------------------------------
 Structure from the checkpoint file:  "conf-746.chk"
 Charge =  1 Multiplicity = 1

                          Input orientation:
 ---------------------------------------------------------------------
 Center     Atomic      Atomic             Coordinates (Angstroms)
 Number     Number       Type             X           Y           Z
 ---------------------------------------------------------------------
      1          7           0       -9.197566    2.633671    3.564549
      2          1           0       -9.584617    2.822458    4.493115
      3          1           0       -9.947682    2.706400    2.871858
      4          1           0       -8.423241    3.334949    3.364110
      5          6           0       -8.447124    1.313913    3.484216
      6          1           0       -8.731562    0.714441    4.352950
      7          6           0       -6.969936    1.780486    3.582110
      8          6           0       -8.827575    0.568520    2.176278
      9          1           0       -9.920462    0.442559    2.233634
     10          8           0       -6.735967    2.979359    3.376107
     11          6           0       -8.475910    1.363870    0.907550
     12          1           0       -7.392338    1.467977    0.801459
     13          1           0       -8.852202    0.826992    0.031630
     14          1           0       -8.927067    2.365016    0.879708
     15          6           0       -8.203401   -0.835959    2.136449
     16          1           0       -7.126961   -0.781715    1.949296
     17          1           0       -8.392766   -1.397868    3.059860
     18          1           0       -8.650879   -1.404023    1.315457
     19          7           0       -6.058519    0.869493    3.928643
     20          1           0       -6.313769   -0.112561    3.955630
     21          6           0       -4.631183    1.100449    3.740544
     22          1           0       -4.396540    2.114278    4.078101
     23          6           0       -4.297719    0.984518    2.220605
     24          6           0       -3.876086    0.082153    4.599849
     25          1           0       -4.045163    0.305802    5.663210
     26          1           0       -2.799206    0.152737    4.400611
     27          8           0       -5.166838    0.692695    1.399134
     28          8           0       -4.398079   -1.193165    4.246986
     29          1           0       -3.942513   -1.876599    4.761417
     30          7           0       -3.018439    1.245611    1.915799
     31          1           0       -2.308071    1.444199    2.619417
     32          6           0       -2.450928    1.130356    0.578041
     33          1           0       -2.834501    0.214666    0.113200
     34          6           0       -0.926914    1.008474    0.802425
     35          6           0       -2.804921    2.338318   -0.306619
     36          1           0       -2.367926    2.240899   -1.305265
     37          1           0       -2.428966    3.263411    0.142044
     38          1           0       -3.890944    2.409819   -0.408758
     39          8           0       -0.437825    1.261552    1.908843
     40          7           0       -0.211130    0.642062   -0.272211
     41          1           0       -0.643652    0.464379   -1.174826
     42          6           0        1.248720    0.602376   -0.302632
     43          1           0        1.620392    1.415892    0.326698
     44          6           0        1.615656    0.836103   -1.779775
     45          6           0        1.776041   -0.756777    0.220813
     46          1           0        1.292331   -0.928850    1.190929
     47          1           0        1.413561   -1.535959   -0.462454
     48          8           0        0.852516    0.459473   -2.669778
     49          6           0        3.303562   -0.886231    0.394598
     50          1           0        3.792504   -0.653984   -0.561370
     51          6           0        3.857967    0.076676    1.457058
     52          1           0        3.389988   -0.105849    2.432890
     53          1           0        4.939211   -0.055914    1.570974
     54          1           0        3.689202    1.130466    1.205318
     55          6           0        3.657251   -2.338304    0.752360
     56          1           0        3.196951   -2.632173    1.704726
     57          1           0        4.740966   -2.463547    0.854722
     58          1           0        3.308848   -3.037150   -0.017233
     59          7           0        2.788529    1.470161   -2.006060
     60          1           0        3.457544    1.602610   -1.253300
     61          6           0        3.351037    1.652068   -3.332677
     62          1           0        2.842145    0.959259   -4.009448
     63          6           0        4.852405    1.321681   -3.226809
     64          6           0        3.163638    3.110441   -3.851449
     65          1           0        3.629208    3.179397   -4.842411
     66          1           0        3.730885    3.776772   -3.190221
     67          8           0        5.422862    1.339329   -2.133784
     68          6           0        1.719378    3.550952   -3.920352
     69          6           0        1.126578    4.255756   -2.863780
     70          1           0        1.726540    4.521477   -1.996803
     71          6           0        0.923397    3.244880   -5.030265
     72          1           0        1.354827    2.706565   -5.871297
     73          6           0       -0.213775    4.632057   -2.900201
     74          1           0       -0.665752    5.188373   -2.084798
     75          6           0       -0.418727    3.614707   -5.084859
     76          1           0       -1.018074    3.366518   -5.959118
     77          8           0       -2.309280    4.687429   -3.999268
     78          1           0       -2.713604    4.447431   -4.847597
     79          6           0       -0.993762    4.305463   -4.013484
     80          7           0        5.477326    1.056960   -4.393362
     81          1           0        4.990758    1.125728   -5.281750
     82          6           0        6.921662    0.907384   -4.507689
     83          1           0        7.410458    1.666631   -3.887079
     84          6           0        7.278558    1.116555   -5.972057
     85          6           0        7.432274   -0.483543   -4.039684
     86          1           0        8.516858   -0.409529   -3.904948
     87          1           0        7.001501   -0.637464   -3.045231
     88          8           0        8.583901    1.076046   -6.185007
     89          6           0        7.103641   -1.700148   -4.938717
     90          1           0        6.090739   -1.597560   -5.351717
     91          1           0        7.055161   -2.570367   -4.274256
     92          6           0        8.114622   -2.043492   -6.076074
     93          1           0        9.087173   -1.595700   -5.838115
     94          1           0        8.276048   -3.126974   -6.058460
     95          6           0        7.723077   -1.651608   -7.527409
     96          1           0        6.741956   -1.172063   -7.547768
     97          1           0        7.653621   -2.555273   -8.148168
     98          7           0        8.674556   -0.678653   -8.130428
     99          1           0        8.345014   -0.402481   -9.054746
    100          1           0        8.724940    0.616392   -7.099115
    101          1           0        9.586355   -1.116109   -8.264158
    102          8           0        6.424255    1.187466   -6.845403
 ---------------------------------------------------------------------

 SCF Done:  E(RB3LYP) =  -2312.09609731     A.U. after    2 cycles

 Alpha  occ. eigenvalues --  -19.26460 -19.25800 -19.22655 -19.20790 -19.20565
 Alpha  occ. eigenvalues --  -19.18743 -19.18036 -19.17345 -19.17133 -14.59549
 Alpha  occ. eigenvalues --  -14.49107 -14.44085 -14.42424 -14.41532 -14.41092
 Alpha  occ. eigenvalues --  -14.40010 -10.43155 -10.40058 -10.37876 -10.35780
 Alpha  occ. eigenvalues --  -10.35764 -10.34685 -10.34505 -10.34383 -10.34139
 Alpha  occ. eigenvalues --  -10.33610 -10.30995 -10.29587 -10.29172 -10.28862
 Alpha  occ. eigenvalues --  -10.28758 -10.28700 -10.28119 -10.26709 -10.24975
 Alpha  occ. eigenvalues --  -10.24720 -10.23933 -10.23912 -10.23787 -10.23719
 Alpha  occ. eigenvalues --  -10.23643 -10.23616 -10.23555 -10.23403 -10.23325
 Alpha  occ. eigenvalues --  -10.23159 -10.22047 -10.21979  -1.18951  -1.13705
 Alpha  occ. eigenvalues --   -1.13281  -1.13125  -1.12154  -1.10588  -1.10580
 Alpha  occ. eigenvalues --   -1.09473  -1.08648  -1.05633  -1.04727  -1.00764
 Alpha  occ. eigenvalues --   -0.99004  -0.98143  -0.97611  -0.95294  -0.94248
 Alpha  occ. eigenvalues --   -0.89962  -0.88610  -0.86585  -0.84995  -0.84921
 Alpha  occ. eigenvalues --   -0.83629  -0.83362  -0.80301  -0.80022  -0.79894
 Alpha  occ. eigenvalues --   -0.79358  -0.77322  -0.75780  -0.74548  -0.74250
 Alpha  occ. eigenvalues --   -0.73820  -0.73173  -0.72901  -0.72041  -0.71414
 Alpha  occ. eigenvalues --   -0.70090  -0.68314  -0.68077  -0.66947  -0.66779
 Alpha  occ. eigenvalues --   -0.65752  -0.65355  -0.64594  -0.64274  -0.63853
 Alpha  occ. eigenvalues --   -0.63330  -0.63244  -0.62281  -0.61509  -0.61396
 Alpha  occ. eigenvalues --   -0.61034  -0.59458  -0.59044  -0.58919  -0.57274
 Alpha  occ. eigenvalues --   -0.56681  -0.55768  -0.55529  -0.55363  -0.54820
 Alpha  occ. eigenvalues --   -0.54439  -0.54141  -0.53841  -0.53277  -0.53146
 Alpha  occ. eigenvalues --   -0.52446  -0.52371  -0.51992  -0.51855  -0.51511
 Alpha  occ. eigenvalues --   -0.51392  -0.50919  -0.50697  -0.50504  -0.50458
 Alpha  occ. eigenvalues --   -0.49732  -0.49441  -0.49152  -0.49060  -0.48754
 Alpha  occ. eigenvalues --   -0.48099  -0.47910  -0.47634  -0.46944  -0.46907
 Alpha  occ. eigenvalues --   -0.46709  -0.46656  -0.46241  -0.46115  -0.46089
 Alpha  occ. eigenvalues --   -0.45951  -0.45804  -0.45264  -0.45171  -0.44973
 Alpha  occ. eigenvalues --   -0.44664  -0.44480  -0.43734  -0.43341  -0.43215
 Alpha  occ. eigenvalues --   -0.42842  -0.42636  -0.42399  -0.42147  -0.41611
 Alpha  occ. eigenvalues --   -0.41181  -0.40881  -0.40706  -0.40329  -0.39899
 Alpha  occ. eigenvalues --   -0.39238  -0.38418  -0.38363  -0.38287  -0.38073
 Alpha  occ. eigenvalues --   -0.37988  -0.37529  -0.37482  -0.37318  -0.37120
 Alpha  occ. eigenvalues --   -0.34822  -0.34548  -0.34035  -0.32913  -0.32264
 Alpha  occ. eigenvalues --   -0.32200  -0.31899  -0.31580  -0.30942  -0.30482
 Alpha  occ. eigenvalues --   -0.30306  -0.29633  -0.26307
 Alpha virt. eigenvalues --   -0.12086  -0.10762  -0.06790  -0.06255  -0.04954
 Alpha virt. eigenvalues --   -0.04593  -0.04562  -0.04206  -0.03614  -0.02951
 Alpha virt. eigenvalues --   -0.02721  -0.02118  -0.00338   0.00102   0.00497

 Mulliken charges:
               1
     1  N   -0.760121
     2  H    0.414544
     3  H    0.412355
     4  H    0.435498
     5  C   -0.117623
     6  H    0.205329
     7  C    0.673424
     8  C   -0.100273
     9  H    0.152146
    10  O   -0.540689
    11  C   -0.489962
    12  H    0.231293
    13  H    0.186554
    14  H    0.125375
    15  C   -0.494272
    16  H    0.214702
    17  H    0.149191
    18  H    0.185831
    19  N   -0.585753
    20  H    0.375042
    21  C   -0.104117
    22  H    0.209040
    23  C    0.655129
    24  C   -0.055280
    25  H    0.157777
    26  H    0.171795
    27  O   -0.537566
    28  O   -0.628162
    29  H    0.422021
    30  N   -0.616112
    31  H    0.361813
    32  C   -0.044304
    33  H    0.181206
    34  C    0.625009
    35  C   -0.449699
    36  H    0.175463
    37  H    0.163822
    38  H    0.176411
    39  O   -0.554215
    40  N   -0.619897
    41  H    0.359188
    42  C   -0.051960
    43  H    0.175583
    44  C    0.621443
    45  C   -0.252661
    46  H    0.153633
    47  H    0.144848
    48  O   -0.541802
    49  C   -0.094299
    50  H    0.141551
    51  C   -0.446522
    52  H    0.146019
    53  H    0.158262
    54  H    0.136911
    55  C   -0.444411
    56  H    0.139898
    57  H    0.150941
    58  H    0.143561
    59  N   -0.609592
    60  H    0.360593
    61  C   -0.064860
    62  H    0.184973
    63  C    0.631619
    64  C   -0.366981
    65  H    0.158696
    66  H    0.159998
    67  O   -0.545638
    68  C    0.188897
    69  C   -0.188316
    70  H    0.126940
    71  C   -0.172585
    72  H    0.129046
    73  C   -0.163723
    74  H    0.135968
    75  C   -0.189601
    76  H    0.123674
    77  O   -0.648050
    78  H    0.408620
    79  C    0.347880
    80  N   -0.618071
    81  H    0.353358
    82  C   -0.033552
    83  H    0.188859
    84  C    0.602756
    85  C   -0.267773
    86  H    0.160524
    87  H    0.171404
    88  O   -0.606668
    89  C   -0.286498
    90  H    0.144088
    91  H    0.147524
    92  C   -0.281885
    93  H    0.157842
    94  H    0.147516
    95  C   -0.158707
    96  H    0.183643
    97  H    0.145619
    98  N   -0.773078
    99  H    0.336118
   100  H    0.457747
   101  H    0.327777
   102  O   -0.509014
 Sum of Mulliken charges =   1.00000

 Dipole moment (field-independent basis, Debye):
    X=            -26.3267    Y=              2.6999    Z=              7.8549  Tot=             27.6058
 Quadrupole moment (field-independent basis, Debye-Ang):
   XX=             76.6963   YY=           -265.6382   ZZ=           -142.9482
   XY=            -82.8517   XZ=           -179.2484   YZ=             30.8780

 Normal termination of Gaussian 16 at Sat Jul  2 15:28:05 2022.
