 Gaussian 16, Revision C.01,
 Gaussian 16:  ES64L-G16RevC.01  3-Jul-2019

 -------------------------------------------------------------------
 # B3LYP/6-31G* guess=read geom=check nosymm integral(ultrafinegrid)
 -------------------------------------------------------------------

 ------------------------------------------------------
 Candidate Structure: Conf:608 Charge calc in gas phase
 ------------------------------------------------------
 Structure from the checkpoint file:  "conf-608.chk"
 Charge =  1 Multiplicity = 1

                          Input orientation:
 ---------------------------------------------------------------------
 Center     Atomic      Atomic             Coordinates (Angstroms)
 Number     Number       Type             X           Y           Z
 ---------------------------------------------------------------------
      1          7           0       -8.773346    3.684159    5.516063
      2          1           0       -9.260769    2.955772    6.046041
      3          1           0       -9.335395    4.538540    5.538218
      4          1           0       -7.812914    3.823499    5.949902
      5          6           0       -8.407732    3.244778    4.108571
      6          1           0       -9.098389    2.451653    3.809660
      7          6           0       -6.962537    2.707899    4.332837
      8          6           0       -8.498585    4.445274    3.130503
      9          1           0       -7.777470    5.199192    3.477906
     10          8           0       -6.353590    3.147309    5.318048
     11          6           0       -8.108659    4.022575    1.703003
     12          1           0       -8.786167    3.248907    1.320165
     13          1           0       -8.192884    4.885564    1.036272
     14          1           0       -7.084635    3.650130    1.627114
     15          6           0       -9.908885    5.064497    3.120228
     16          1           0      -10.665262    4.328656    2.822580
     17          1           0      -10.219076    5.501565    4.079707
     18          1           0       -9.942028    5.884246    2.396906
     19          7           0       -6.504613    1.815033    3.460923
     20          1           0       -6.988878    1.631372    2.582406
     21          6           0       -5.149031    1.275315    3.470960
     22          1           0       -4.511620    1.951151    4.047285
     23          6           0       -4.723120    1.201462    1.985882
     24          6           0       -5.117182   -0.121087    4.115128
     25          1           0       -4.074698   -0.470138    4.134344
     26          1           0       -5.695138   -0.818806    3.488145
     27          8           0       -5.584093    1.295987    1.104036
     28          8           0       -5.665009   -0.005566    5.414915
     29          1           0       -5.542876   -0.852438    5.870875
     30          7           0       -3.418900    1.000042    1.765052
     31          1           0       -2.740023    0.898670    2.519379
     32          6           0       -2.831413    0.799690    0.444906
     33          1           0       -3.457292    0.094682   -0.114165
     34          6           0       -1.444521    0.173411    0.712280
     35          6           0       -2.717661    2.115473   -0.345333
     36          1           0       -2.267834    1.944598   -1.328579
     37          1           0       -2.095260    2.834587    0.197069
     38          1           0       -3.713439    2.542077   -0.490562
     39          8           0       -0.975938    0.171864    1.853963
     40          7           0       -0.830337   -0.337116   -0.371450
     41          1           0       -1.201548   -0.146658   -1.300331
     42          6           0        0.579436   -0.714780   -0.411849
     43          1           0        1.075165   -0.268449    0.454810
     44          6           0        1.132695   -0.103693   -1.717789
     45          6           0        0.784608   -2.247605   -0.418641
     46          1           0        0.264155   -2.646762   -1.299746
     47          1           0        1.853927   -2.449477   -0.572670
     48          8           0        0.361760    0.215553   -2.630322
     49          6           0        0.310725   -2.995954    0.842444
     50          1           0       -0.742864   -2.733546    1.014218
     51          6           0        0.385507   -4.511493    0.599099
     52          1           0        1.419739   -4.830590    0.416658
     53          1           0        0.017809   -5.066850    1.469476
     54          1           0       -0.213788   -4.811152   -0.268944
     55          6           0        1.109580   -2.601747    2.093823
     56          1           0        2.182398   -2.787101    1.950221
     57          1           0        0.787467   -3.195528    2.957297
     58          1           0        0.966998   -1.548056    2.351497
     59          7           0        2.469064    0.026090   -1.784048
     60          1           0        3.084654   -0.340096   -1.060896
     61          6           0        3.165540    0.442919   -2.992296
     62          1           0        2.740039   -0.098583   -3.845283
     63          6           0        4.629866   -0.002376   -2.792565
     64          6           0        3.011027    1.974231   -3.267030
     65          1           0        3.797141    2.525223   -2.738154
     66          1           0        2.057813    2.270356   -2.819137
     67          8           0        4.981366   -0.548288   -1.741198
     68          6           0        2.998395    2.335202   -4.738568
     69          6           0        4.051291    3.031758   -5.347809
     70          1           0        4.923542    3.314979   -4.765805
     71          6           0        1.896762    1.977178   -5.531089
     72          1           0        1.064918    1.444569   -5.075299
     73          6           0        4.018306    3.356888   -6.702572
     74          1           0        4.842121    3.885387   -7.170532
     75          6           0        1.849190    2.299812   -6.884794
     76          1           0        0.983994    2.018145   -7.483061
     77          8           0        2.925434    3.338029   -8.798317
     78          1           0        2.108898    3.023193   -9.216219
     79          6           0        2.913292    2.992999   -7.476193
     80          7           0        5.478454    0.224937   -3.816702
     81          1           0        5.219079    0.841713   -4.582461
     82          6           0        6.905906   -0.042503   -3.668215
     83          1           0        7.217844    0.349055   -2.688862
     84          6           0        7.633712    0.803625   -4.736252
     85          6           0        7.246315   -1.553023   -3.699766
     86          1           0        6.344991   -2.112399   -3.438135
     87          1           0        7.504557   -1.843437   -4.724589
     88          8           0        8.902461    0.527767   -5.016241
     89          6           0        8.369966   -1.909823   -2.706372
     90          1           0        7.924235   -2.047026   -1.714151
     91          1           0        9.054861   -1.059088   -2.604119
     92          6           0        9.196724   -3.149926   -3.075911
     93          1           0        9.966297   -3.297022   -2.305563
     94          1           0        8.573667   -4.053519   -3.059217
     95          6           0        9.869529   -3.054652   -4.453821
     96          1           0        9.133731   -3.213369   -5.249370
     97          1           0       10.617848   -3.854414   -4.553238
     98          7           0       10.447921   -1.710908   -4.669749
     99          1           0       10.881874   -1.660243   -5.591219
    100          1           0        9.301013   -0.340924   -4.695519
    101          1           0       11.196673   -1.539560   -3.997549
    102          8           0        7.064658    1.732411   -5.276257
 ---------------------------------------------------------------------

 SCF Done:  E(RB3LYP) =  -2312.09533648     A.U. after    1 cycles

 Alpha  occ. eigenvalues --  -19.26214 -19.24473 -19.21775 -19.21288 -19.21036
 Alpha  occ. eigenvalues --  -19.19670 -19.18076 -19.17365 -19.16662 -14.59633
 Alpha  occ. eigenvalues --  -14.49150 -14.45284 -14.42989 -14.41597 -14.40797
 Alpha  occ. eigenvalues --  -14.39929 -10.43167 -10.40365 -10.38970 -10.36617
 Alpha  occ. eigenvalues --  -10.35469 -10.34920 -10.34470 -10.34378 -10.34215
 Alpha  occ. eigenvalues --  -10.34047 -10.31888 -10.31299 -10.29692 -10.29692
 Alpha  occ. eigenvalues --  -10.28852 -10.28450 -10.28433 -10.27183 -10.25885
 Alpha  occ. eigenvalues --  -10.24576 -10.24239 -10.23981 -10.23921 -10.23678
 Alpha  occ. eigenvalues --  -10.23439 -10.22891 -10.22689 -10.22630 -10.22393
 Alpha  occ. eigenvalues --  -10.22282 -10.21847 -10.21743  -1.18865  -1.13938
 Alpha  occ. eigenvalues --   -1.13293  -1.12506  -1.11930  -1.11440  -1.09898
 Alpha  occ. eigenvalues --   -1.09330  -1.08944  -1.05652  -1.04350  -1.01843
 Alpha  occ. eigenvalues --   -0.99722  -0.98293  -0.97329  -0.95652  -0.95039
 Alpha  occ. eigenvalues --   -0.89092  -0.88996  -0.87033  -0.85604  -0.85326
 Alpha  occ. eigenvalues --   -0.83951  -0.83336  -0.81366  -0.80395  -0.80049
 Alpha  occ. eigenvalues --   -0.78204  -0.76866  -0.75974  -0.74817  -0.74329
 Alpha  occ. eigenvalues --   -0.73997  -0.73484  -0.72989  -0.71818  -0.70915
 Alpha  occ. eigenvalues --   -0.70259  -0.69973  -0.68777  -0.67376  -0.66548
 Alpha  occ. eigenvalues --   -0.65806  -0.65611  -0.65018  -0.64052  -0.63682
 Alpha  occ. eigenvalues --   -0.62799  -0.62644  -0.62342  -0.62100  -0.61762
 Alpha  occ. eigenvalues --   -0.60715  -0.59799  -0.59242  -0.58305  -0.57765
 Alpha  occ. eigenvalues --   -0.57035  -0.56641  -0.56537  -0.56443  -0.55314
 Alpha  occ. eigenvalues --   -0.54655  -0.54428  -0.54264  -0.53980  -0.53349
 Alpha  occ. eigenvalues --   -0.52967  -0.52395  -0.52083  -0.52029  -0.51767
 Alpha  occ. eigenvalues --   -0.51097  -0.51003  -0.50772  -0.50680  -0.50540
 Alpha  occ. eigenvalues --   -0.49985  -0.49358  -0.49016  -0.48918  -0.48659
 Alpha  occ. eigenvalues --   -0.48477  -0.48217  -0.47788  -0.47419  -0.47256
 Alpha  occ. eigenvalues --   -0.47192  -0.47095  -0.46955  -0.46651  -0.45970
 Alpha  occ. eigenvalues --   -0.45898  -0.45648  -0.45308  -0.45032  -0.44654
 Alpha  occ. eigenvalues --   -0.44396  -0.44118  -0.43864  -0.43596  -0.43367
 Alpha  occ. eigenvalues --   -0.43067  -0.43042  -0.42712  -0.42322  -0.41395
 Alpha  occ. eigenvalues --   -0.41139  -0.40874  -0.40588  -0.39785  -0.39027
 Alpha  occ. eigenvalues --   -0.38831  -0.38786  -0.38176  -0.38011  -0.37828
 Alpha  occ. eigenvalues --   -0.37701  -0.37608  -0.37085  -0.36998  -0.36288
 Alpha  occ. eigenvalues --   -0.35979  -0.35080  -0.34081  -0.33720  -0.33161
 Alpha  occ. eigenvalues --   -0.32778  -0.31952  -0.31577  -0.31299  -0.30479
 Alpha  occ. eigenvalues --   -0.30058  -0.28602  -0.25309
 Alpha virt. eigenvalues --   -0.12202  -0.10617  -0.07720  -0.06261  -0.05235
 Alpha virt. eigenvalues --   -0.04473  -0.04153  -0.03678  -0.02960  -0.02614
 Alpha virt. eigenvalues --   -0.01946  -0.01812  -0.01207  -0.00830   0.00351

 Mulliken charges:
               1
     1  N   -0.757873
     2  H    0.416851
     3  H    0.407411
     4  H    0.433211
     5  C   -0.106201
     6  H    0.203594
     7  C    0.661139
     8  C   -0.107004
     9  H    0.172098
    10  O   -0.532849
    11  C   -0.479822
    12  H    0.165753
    13  H    0.187719
    14  H    0.190139
    15  C   -0.476747
    16  H    0.176119
    17  H    0.140797
    18  H    0.202626
    19  N   -0.585330
    20  H    0.371935
    21  C   -0.097456
    22  H    0.209028
    23  C    0.632113
    24  C   -0.020904
    25  H    0.158108
    26  H    0.144563
    27  O   -0.549126
    28  O   -0.616081
    29  H    0.412539
    30  N   -0.617767
    31  H    0.366231
    32  C   -0.045861
    33  H    0.186092
    34  C    0.617091
    35  C   -0.457310
    36  H    0.176069
    37  H    0.165887
    38  H    0.181857
    39  O   -0.541299
    40  N   -0.600745
    41  H    0.358212
    42  C   -0.082133
    43  H    0.184620
    44  C    0.626130
    45  C   -0.255115
    46  H    0.144693
    47  H    0.146865
    48  O   -0.553210
    49  C   -0.065865
    50  H    0.126656
    51  C   -0.444978
    52  H    0.146386
    53  H    0.145340
    54  H    0.142315
    55  C   -0.463080
    56  H    0.139369
    57  H    0.142580
    58  H    0.170710
    59  N   -0.624284
    60  H    0.361207
    61  C   -0.032465
    62  H    0.190365
    63  C    0.604258
    64  C   -0.361160
    65  H    0.156885
    66  H    0.177738
    67  O   -0.550710
    68  C    0.127447
    69  C   -0.200395
    70  H    0.152282
    71  C   -0.195635
    72  H    0.155158
    73  C   -0.155956
    74  H    0.155344
    75  C   -0.193667
    76  H    0.120368
    77  O   -0.637688
    78  H    0.408046
    79  C    0.350484
    80  N   -0.633740
    81  H    0.377056
    82  C   -0.042661
    83  H    0.190478
    84  C    0.580086
    85  C   -0.284937
    86  H    0.172263
    87  H    0.145826
    88  O   -0.618195
    89  C   -0.275780
    90  H    0.164418
    91  H    0.136579
    92  C   -0.277976
    93  H    0.142969
    94  H    0.150721
    95  C   -0.140470
    96  H    0.159941
    97  H    0.146031
    98  N   -0.769484
    99  H    0.335755
   100  H    0.482529
   101  H    0.325678
   102  O   -0.470801
 Sum of Mulliken charges =   1.00000

 Dipole moment (field-independent basis, Debye):
    X=            -26.5866    Y=              6.5682    Z=             14.7373  Tot=             31.0995
 Quadrupole moment (field-independent basis, Debye-Ang):
   XX=            111.3060   YY=           -223.7405   ZZ=           -182.1110
   XY=           -161.4575   XZ=           -181.1600   YZ=             77.0059

 Normal termination of Gaussian 16 at Sat Jul  2 15:27:39 2022.
