 Gaussian 16, Revision C.01,
 Gaussian 16:  ES64L-G16RevC.01  3-Jul-2019

 -------------------------------------------------------------------
 # B3LYP/6-31G* guess=read geom=check nosymm integral(ultrafinegrid)
 -------------------------------------------------------------------

 ------------------------------------------------------
 Candidate Structure: Conf:883 Charge calc in gas phase
 ------------------------------------------------------
 Structure from the checkpoint file:  "conf-883.chk"
 Charge =  1 Multiplicity = 1

                          Input orientation:
 ---------------------------------------------------------------------
 Center     Atomic      Atomic             Coordinates (Angstroms)
 Number     Number       Type             X           Y           Z
 ---------------------------------------------------------------------
      1          7           0       -7.331541    3.148614    5.897557
      2          1           0       -6.975331    2.785439    6.785816
      3          1           0       -8.340843    3.295580    5.984548
      4          1           0       -6.828052    4.061634    5.666113
      5          6           0       -6.956285    2.285604    4.704115
      6          1           0       -6.585906    1.331099    5.086391
      7          6           0       -5.807383    3.116390    4.061829
      8          6           0       -8.195594    2.051331    3.799194
      9          1           0       -8.972502    1.657794    4.473113
     10          8           0       -5.673275    4.290641    4.445339
     11          6           0       -8.714330    3.345871    3.152036
     12          1           0       -7.988518    3.756197    2.442250
     13          1           0       -9.636050    3.136811    2.601609
     14          1           0       -8.947989    4.133974    3.879113
     15          6           0       -7.927963    0.960661    2.748830
     16          1           0       -7.218893    1.284448    1.980571
     17          1           0       -7.549935    0.038380    3.205102
     18          1           0       -8.864484    0.713376    2.240404
     19          7           0       -5.059850    2.512304    3.148277
     20          1           0       -5.246927    1.560664    2.825724
     21          6           0       -4.019377    3.160556    2.356758
     22          1           0       -4.324194    4.182605    2.112840
     23          6           0       -3.883545    2.297326    1.093161
     24          6           0       -2.661449    3.221588    3.126838
     25          1           0       -2.398966    2.206018    3.453138
     26          1           0       -2.812571    3.844305    4.014434
     27          8           0       -4.404193    1.180107    1.046522
     28          8           0       -1.650591    3.803938    2.342473
     29          1           0       -1.199082    3.077795    1.853105
     30          7           0       -3.141778    2.847807    0.104336
     31          1           0       -2.615794    3.673070    0.381218
     32          6           0       -2.513915    2.006606   -0.907165
     33          1           0       -3.251657    1.258578   -1.209795
     34          6           0       -1.298457    1.275663   -0.278633
     35          6           0       -2.089709    2.853571   -2.115223
     36          1           0       -1.624636    2.230977   -2.884846
     37          1           0       -1.361749    3.618104   -1.819692
     38          1           0       -2.960420    3.351991   -2.550640
     39          8           0       -0.799828    1.643719    0.794951
     40          7           0       -0.838899    0.237638   -0.994399
     41          1           0       -1.192275    0.072516   -1.935710
     42          6           0        0.431939   -0.442654   -0.763021
     43          1           0        1.058462    0.207215   -0.145378
     44          6           0        1.057106   -0.617955   -2.165978
     45          6           0        0.250482   -1.821167   -0.086237
     46          1           0       -0.389371   -2.427753   -0.741135
     47          1           0        1.229028   -2.320375   -0.060784
     48          8           0        0.348193   -0.545477   -3.174743
     49          6           0       -0.340954   -1.801280    1.336815
     50          1           0       -1.282528   -1.235197    1.303940
     51          6           0       -0.668503   -3.236892    1.776769
     52          1           0        0.238735   -3.853217    1.818932
     53          1           0       -1.120604   -3.247783    2.775338
     54          1           0       -1.368430   -3.720767    1.085273
     55          6           0        0.592036   -1.118983    2.348535
     56          1           0        1.569645   -1.617889    2.381284
     57          1           0        0.166538   -1.167887    3.357986
     58          1           0        0.747138   -0.062457    2.110313
     59          7           0        2.374975   -0.882236   -2.191632
     60          1           0        2.938881   -0.924524   -1.346887
     61          6           0        3.122843   -1.139750   -3.415188
     62          1           0        2.507133   -1.756450   -4.076973
     63          6           0        4.383928   -1.903873   -2.976650
     64          6           0        3.470766    0.191757   -4.145131
     65          1           0        4.063200    0.806544   -3.457765
     66          1           0        2.517086    0.706417   -4.307912
     67          8           0        4.841905   -1.740228   -1.840582
     68          6           0        4.207358    0.006342   -5.452388
     69          6           0        5.570273    0.317220   -5.567922
     70          1           0        6.098711    0.725927   -4.709255
     71          6           0        3.554674   -0.507234   -6.581315
     72          1           0        2.492532   -0.739365   -6.531709
     73          6           0        6.264592    0.116894   -6.756391
     74          1           0        7.319111    0.358737   -6.842340
     75          6           0        4.237958   -0.720809   -7.777465
     76          1           0        3.712621   -1.122919   -8.641605
     77          8           0        6.327685   -0.595074   -9.006105
     78          1           0        5.775781   -1.033975   -9.671969
     79          6           0        5.600158   -0.414342   -7.866980
     80          7           0        4.918595   -2.738091   -3.889808
     81          1           0        4.617281   -2.707880   -4.861757
     82          6           0        6.215386   -3.373700   -3.696490
     83          1           0        6.948131   -2.594705   -3.438555
     84          6           0        6.619893   -3.941271   -5.076258
     85          6           0        6.222271   -4.435687   -2.564377
     86          1           0        5.338706   -4.280075   -1.942190
     87          1           0        6.118754   -5.433011   -3.006679
     88          8           0        7.687971   -4.727513   -5.146320
     89          6           0        7.486347   -4.337651   -1.685882
     90          1           0        7.303971   -3.601760   -0.894222
     91          1           0        8.314368   -3.930161   -2.278787
     92          6           0        7.953906   -5.661289   -1.064110
     93          1           0        8.851358   -5.463829   -0.461537
     94          1           0        7.201475   -6.054174   -0.367994
     95          6           0        8.269359   -6.753686   -2.097740
     96          1           0        7.343608   -7.182317   -2.496476
     97          1           0        8.810695   -7.575615   -1.606835
     98          7           0        9.012493   -6.199435   -3.250359
     99          1           0        9.232528   -6.943218   -3.912656
    100          1           0        8.092914   -5.071051   -4.289417
    101          1           0        9.909959   -5.824352   -2.941169
    102          8           0        5.987891   -3.652154   -6.073745
 ---------------------------------------------------------------------

 SCF Done:  E(RB3LYP) =  -2312.10661830     A.U. after    1 cycles

 Alpha  occ. eigenvalues --  -19.27102 -19.22410 -19.22192 -19.21269 -19.21159
 Alpha  occ. eigenvalues --  -19.20784 -19.18287 -19.17126 -19.16856 -14.60131
 Alpha  occ. eigenvalues --  -14.49782 -14.45272 -14.43744 -14.42168 -14.40683
 Alpha  occ. eigenvalues --  -14.40063 -10.43866 -10.40919 -10.39028 -10.37372
 Alpha  occ. eigenvalues --  -10.35518 -10.35351 -10.34938 -10.34046 -10.34024
 Alpha  occ. eigenvalues --  -10.32858 -10.32292 -10.30760 -10.30318 -10.30179
 Alpha  occ. eigenvalues --  -10.28994 -10.28597 -10.28524 -10.27326 -10.26782
 Alpha  occ. eigenvalues --  -10.25179 -10.24903 -10.24173 -10.24066 -10.23774
 Alpha  occ. eigenvalues --  -10.23492 -10.23178 -10.23124 -10.23019 -10.22932
 Alpha  occ. eigenvalues --  -10.22796 -10.22681 -10.22169  -1.19551  -1.14455
 Alpha  occ. eigenvalues --   -1.13830  -1.12641  -1.12095  -1.10205  -1.09883
 Alpha  occ. eigenvalues --   -1.09379  -1.08762  -1.06257  -1.04539  -1.02227
 Alpha  occ. eigenvalues --   -1.00409  -0.98677  -0.97369  -0.95776  -0.95399
 Alpha  occ. eigenvalues --   -0.89332  -0.88794  -0.87581  -0.85947  -0.85402
 Alpha  occ. eigenvalues --   -0.84086  -0.83609  -0.81637  -0.80995  -0.80233
 Alpha  occ. eigenvalues --   -0.78570  -0.77135  -0.75967  -0.75663  -0.74250
 Alpha  occ. eigenvalues --   -0.74194  -0.73835  -0.73719  -0.72344  -0.71124
 Alpha  occ. eigenvalues --   -0.70053  -0.69372  -0.68945  -0.68011  -0.66538
 Alpha  occ. eigenvalues --   -0.66134  -0.66035  -0.65524  -0.64525  -0.63536
 Alpha  occ. eigenvalues --   -0.62855  -0.62688  -0.62520  -0.62081  -0.61812
 Alpha  occ. eigenvalues --   -0.61366  -0.60625  -0.59651  -0.58373  -0.58073
 Alpha  occ. eigenvalues --   -0.57455  -0.56939  -0.56620  -0.56326  -0.55526
 Alpha  occ. eigenvalues --   -0.55201  -0.54758  -0.54330  -0.53892  -0.53580
 Alpha  occ. eigenvalues --   -0.53186  -0.52755  -0.52350  -0.52260  -0.51715
 Alpha  occ. eigenvalues --   -0.51337  -0.50987  -0.50935  -0.50645  -0.50638
 Alpha  occ. eigenvalues --   -0.50540  -0.49856  -0.49403  -0.49107  -0.48971
 Alpha  occ. eigenvalues --   -0.48761  -0.48440  -0.47985  -0.47680  -0.47493
 Alpha  occ. eigenvalues --   -0.47470  -0.47428  -0.47202  -0.47010  -0.46580
 Alpha  occ. eigenvalues --   -0.46242  -0.45961  -0.45701  -0.45498  -0.45045
 Alpha  occ. eigenvalues --   -0.44562  -0.44321  -0.43901  -0.43845  -0.43616
 Alpha  occ. eigenvalues --   -0.43482  -0.42733  -0.42585  -0.41982  -0.41704
 Alpha  occ. eigenvalues --   -0.41450  -0.41293  -0.40699  -0.40402  -0.40110
 Alpha  occ. eigenvalues --   -0.39543  -0.38889  -0.38810  -0.38418  -0.38283
 Alpha  occ. eigenvalues --   -0.38100  -0.37831  -0.37406  -0.36761  -0.36568
 Alpha  occ. eigenvalues --   -0.36199  -0.35210  -0.34198  -0.33939  -0.33776
 Alpha  occ. eigenvalues --   -0.32912  -0.32526  -0.31793  -0.30915  -0.30590
 Alpha  occ. eigenvalues --   -0.30201  -0.28990  -0.25377
 Alpha virt. eigenvalues --   -0.12639  -0.11458  -0.08260  -0.07079  -0.06219
 Alpha virt. eigenvalues --   -0.05032  -0.04534  -0.04252  -0.03047  -0.02652
 Alpha virt. eigenvalues --   -0.01942  -0.01373  -0.00912   0.00431   0.00843

 Mulliken charges:
               1
     1  N   -0.762792
     2  H    0.416806
     3  H    0.411769
     4  H    0.437070
     5  C   -0.105390
     6  H    0.210863
     7  C    0.652523
     8  C   -0.111576
     9  H    0.159351
    10  O   -0.543754
    11  C   -0.469574
    12  H    0.186501
    13  H    0.195376
    14  H    0.142563
    15  C   -0.479109
    16  H    0.188105
    17  H    0.166508
    18  H    0.190863
    19  N   -0.610279
    20  H    0.380144
    21  C   -0.087076
    22  H    0.201475
    23  C    0.613451
    24  C   -0.030928
    25  H    0.150629
    26  H    0.170763
    27  O   -0.541754
    28  O   -0.641991
    29  H    0.447170
    30  N   -0.582609
    31  H    0.350778
    32  C   -0.086225
    33  H    0.197857
    34  C    0.645371
    35  C   -0.468285
    36  H    0.185885
    37  H    0.168327
    38  H    0.180365
    39  O   -0.566166
    40  N   -0.587460
    41  H    0.361407
    42  C   -0.082017
    43  H    0.182634
    44  C    0.630508
    45  C   -0.252864
    46  H    0.147001
    47  H    0.146262
    48  O   -0.552740
    49  C   -0.068919
    50  H    0.132732
    51  C   -0.444342
    52  H    0.146828
    53  H    0.140435
    54  H    0.144293
    55  C   -0.460578
    56  H    0.141142
    57  H    0.137881
    58  H    0.167181
    59  N   -0.618210
    60  H    0.355720
    61  C   -0.041121
    62  H    0.178304
    63  C    0.620709
    64  C   -0.352687
    65  H    0.153535
    66  H    0.175050
    67  O   -0.558361
    68  C    0.149535
    69  C   -0.192460
    70  H    0.129445
    71  C   -0.206438
    72  H    0.135811
    73  C   -0.152496
    74  H    0.145634
    75  C   -0.178376
    76  H    0.126474
    77  O   -0.636856
    78  H    0.411816
    79  C    0.365755
    80  N   -0.628636
    81  H    0.372152
    82  C   -0.044497
    83  H    0.185008
    84  C    0.589397
    85  C   -0.287671
    86  H    0.175197
    87  H    0.146593
    88  O   -0.615996
    89  C   -0.272400
    90  H    0.165739
    91  H    0.135897
    92  C   -0.280312
    93  H    0.142692
    94  H    0.149568
    95  C   -0.139469
    96  H    0.159918
    97  H    0.145888
    98  N   -0.769019
    99  H    0.336117
   100  H    0.476824
   101  H    0.324934
   102  O   -0.471099
 Sum of Mulliken charges =   1.00000

 Dipole moment (field-independent basis, Debye):
    X=            -21.7344    Y=              3.3767    Z=             17.3602  Tot=             28.0207
 Quadrupole moment (field-independent basis, Debye-Ang):
   XX=              5.0749   YY=           -220.6062   ZZ=           -167.2588
   XY=           -131.1194   XZ=           -151.1890   YZ=             51.1876

 Normal termination of Gaussian 16 at Sat Jul  2 15:27:49 2022.
