 Gaussian 16, Revision C.01,
 Gaussian 16:  ES64L-G16RevC.01  3-Jul-2019

 -------------------------------------------------------------------
 # B3LYP/6-31G* guess=read geom=check nosymm integral(ultrafinegrid)
 -------------------------------------------------------------------

 ------------------------------------------------------
 Candidate Structure: Conf:252 Charge calc in gas phase
 ------------------------------------------------------
 Structure from the checkpoint file:  "conf-252.chk"
 Charge =  1 Multiplicity = 1

                          Input orientation:
 ---------------------------------------------------------------------
 Center     Atomic      Atomic             Coordinates (Angstroms)
 Number     Number       Type             X           Y           Z
 ---------------------------------------------------------------------
      1          7           0       -7.835340    1.506152    4.369604
      2          1           0       -8.101408    0.549931    4.623461
      3          1           0       -8.685722    2.063490    4.254545
      4          1           0       -7.209939    1.887650    5.135248
      5          6           0       -6.919335    1.561162    3.158582
      6          1           0       -7.095315    0.663222    2.560003
      7          6           0       -5.520183    1.543639    3.841067
      8          6           0       -7.207633    2.837493    2.324932
      9          1           0       -7.006532    3.700284    2.976208
     10          8           0       -5.464128    1.939535    5.012128
     11          6           0       -6.271189    2.920787    1.106409
     12          1           0       -6.413369    2.062653    0.437415
     13          1           0       -6.506570    3.821121    0.531844
     14          1           0       -5.214575    2.975155    1.378293
     15          6           0       -8.674069    2.890573    1.856599
     16          1           0       -8.928140    2.020052    1.240402
     17          1           0       -9.408192    2.956438    2.671821
     18          1           0       -8.829355    3.784699    1.246196
     19          7           0       -4.496301    1.094709    3.117744
     20          1           0       -4.585049    0.930243    2.117041
     21          6           0       -3.114856    1.069260    3.584962
     22          1           0       -3.030392    1.750088    4.436161
     23          6           0       -2.254420    1.517852    2.386161
     24          6           0       -2.712694   -0.349653    4.029297
     25          1           0       -1.679151   -0.317642    4.405031
     26          1           0       -2.730008   -1.017667    3.153595
     27          8           0       -2.733377    1.465538    1.246707
     28          8           0       -3.629971   -0.756149    5.024929
     29          1           0       -3.341088   -1.614202    5.372331
     30          7           0       -1.000138    1.913247    2.659630
     31          1           0       -0.670422    1.901601    3.617205
     32          6           0       -0.030032    2.303517    1.617655
     33          1           0       -0.618394    2.769436    0.820831
     34          6           0        0.673715    1.043008    1.046461
     35          6           0        0.979750    3.292131    2.187695
     36          1           0        1.664829    3.615802    1.400712
     37          1           0        1.588950    2.822193    2.965702
     38          1           0        0.471127    4.171637    2.594705
     39          8           0        1.846497    0.793463    1.301505
     40          7           0       -0.124116    0.251554    0.283795
     41          1           0       -1.060759    0.569996    0.058867
     42          6           0        0.373017   -0.971433   -0.357892
     43          1           0        1.209819   -1.309176    0.257568
     44          6           0        0.882855   -0.607286   -1.772989
     45          6           0       -0.735578   -2.027782   -0.411323
     46          1           0       -1.143548   -2.143800    0.603792
     47          1           0       -1.538558   -1.640245   -1.050546
     48          8           0        0.147093   -0.671519   -2.758066
     49          6           0       -0.304964   -3.407548   -0.948672
     50          1           0        0.102602   -3.254162   -1.955998
     51          6           0        0.774032   -4.073444   -0.080887
     52          1           0        0.421974   -4.211296    0.950560
     53          1           0        1.031134   -5.062768   -0.475831
     54          1           0        1.700557   -3.489977   -0.043192
     55          6           0       -1.533840   -4.319916   -1.078651
     56          1           0       -1.994439   -4.505053   -0.098479
     57          1           0       -1.258651   -5.292340   -1.502099
     58          1           0       -2.294633   -3.874328   -1.730191
     59          7           0        2.167879   -0.188518   -1.819602
     60          1           0        2.726249   -0.076565   -0.976439
     61          6           0        2.793534    0.263354   -3.051473
     62          1           0        2.499098   -0.420019   -3.854563
     63          6           0        4.310326    0.205545   -2.812038
     64          6           0        2.324500    1.700611   -3.433003
     65          1           0        2.701411    2.394937   -2.672833
     66          1           0        1.231632    1.688994   -3.360606
     67          8           0        4.768602    0.329761   -1.674873
     68          6           0        2.745079    2.143581   -4.816083
     69          6           0        3.770297    3.080948   -5.009913
     70          1           0        4.269107    3.512852   -4.145165
     71          6           0        2.122064    1.610141   -5.952671
     72          1           0        1.313555    0.891645   -5.833026
     73          6           0        4.166324    3.474608   -6.284567
     74          1           0        4.960208    4.200191   -6.429866
     75          6           0        2.510531    1.990010   -7.236854
     76          1           0        2.011683    1.564967   -8.106171
     77          8           0        3.961699    3.344661   -8.635303
     78          1           0        3.467753    2.869033   -9.321092
     79          6           0        3.537457    2.924896   -7.406592
     80          7           0        5.075921    0.033955   -3.911161
     81          1           0        4.662332   -0.017671   -4.835857
     82          6           0        6.529760    0.082977   -3.871535
     83          1           0        6.842162    0.841883   -3.150129
     84          6           0        7.042178    0.453113   -5.254212
     85          6           0        7.138509   -1.295259   -3.449546
     86          1           0        6.980556   -1.380373   -2.369916
     87          1           0        6.532415   -2.079206   -3.920331
     88          8           0        8.224763    1.057012   -5.191888
     89          6           0        8.628751   -1.513601   -3.800722
     90          1           0        9.059853   -2.199458   -3.062084
     91          1           0        9.170057   -0.568863   -3.691204
     92          6           0        8.862021   -2.109016   -5.219684
     93          1           0        8.978636   -3.195217   -5.124460
     94          1           0        7.970196   -1.967710   -5.842511
     95          6           0       10.077821   -1.566421   -5.998477
     96          1           0       10.496585   -2.363953   -6.628713
     97          1           0       10.869550   -1.259532   -5.305795
     98          7           0        9.727652   -0.381645   -6.825966
     99          1           0       10.563850   -0.003096   -7.269227
    100          1           0        9.101789   -0.665680   -7.580214
    101          1           0        8.801666    0.730313   -5.974218
    102          8           0        6.471324    0.117068   -6.279559
 ---------------------------------------------------------------------

 SCF Done:  E(RB3LYP) =  -2312.08366033     A.U. after    1 cycles

 Alpha  occ. eigenvalues --  -19.27248 -19.25707 -19.23828 -19.21309 -19.19756
 Alpha  occ. eigenvalues --  -19.18761 -19.16671 -19.16034 -19.15529 -14.60592
 Alpha  occ. eigenvalues --  -14.50435 -14.47982 -14.42959 -14.40153 -14.39885
 Alpha  occ. eigenvalues --  -14.39256 -10.44272 -10.41291 -10.40914 -10.35998
 Alpha  occ. eigenvalues --  -10.35939 -10.35418 -10.35265 -10.34522 -10.33189
 Alpha  occ. eigenvalues --  -10.32742 -10.32494 -10.31963 -10.30508 -10.28804
 Alpha  occ. eigenvalues --  -10.28485 -10.27666 -10.26900 -10.26496 -10.26063
 Alpha  occ. eigenvalues --  -10.24277 -10.24107 -10.23384 -10.22862 -10.22802
 Alpha  occ. eigenvalues --  -10.22743 -10.22679 -10.22666 -10.22660 -10.22488
 Alpha  occ. eigenvalues --  -10.22433 -10.22215 -10.21994  -1.19899  -1.15754
 Alpha  occ. eigenvalues --   -1.14440  -1.13215  -1.11936  -1.10656  -1.09359
 Alpha  occ. eigenvalues --   -1.08060  -1.07209  -1.06911  -1.03905  -1.03497
 Alpha  occ. eigenvalues --   -0.99163  -0.96648  -0.96314  -0.95897  -0.94701
 Alpha  occ. eigenvalues --   -0.90291  -0.89000  -0.87052  -0.86290  -0.84826
 Alpha  occ. eigenvalues --   -0.84071  -0.82633  -0.82130  -0.80266  -0.79173
 Alpha  occ. eigenvalues --   -0.78346  -0.77147  -0.76494  -0.75488  -0.74610
 Alpha  occ. eigenvalues --   -0.73977  -0.73542  -0.73326  -0.72643  -0.71188
 Alpha  occ. eigenvalues --   -0.70877  -0.70507  -0.68745  -0.67277  -0.66781
 Alpha  occ. eigenvalues --   -0.65793  -0.65484  -0.64581  -0.64291  -0.63322
 Alpha  occ. eigenvalues --   -0.63110  -0.62941  -0.61654  -0.61522  -0.61354
 Alpha  occ. eigenvalues --   -0.60907  -0.60537  -0.59381  -0.58605  -0.57928
 Alpha  occ. eigenvalues --   -0.57904  -0.57436  -0.57098  -0.56560  -0.55328
 Alpha  occ. eigenvalues --   -0.55266  -0.54743  -0.54340  -0.53442  -0.53305
 Alpha  occ. eigenvalues --   -0.53261  -0.53048  -0.52513  -0.51613  -0.51543
 Alpha  occ. eigenvalues --   -0.51410  -0.50838  -0.50588  -0.50338  -0.49933
 Alpha  occ. eigenvalues --   -0.49547  -0.49175  -0.48909  -0.48711  -0.48608
 Alpha  occ. eigenvalues --   -0.48426  -0.48082  -0.48042  -0.47733  -0.47394
 Alpha  occ. eigenvalues --   -0.47025  -0.46845  -0.46543  -0.46242  -0.45819
 Alpha  occ. eigenvalues --   -0.45731  -0.45479  -0.45359  -0.45003  -0.44788
 Alpha  occ. eigenvalues --   -0.44522  -0.44392  -0.43929  -0.43569  -0.43509
 Alpha  occ. eigenvalues --   -0.42722  -0.42150  -0.41898  -0.41573  -0.41293
 Alpha  occ. eigenvalues --   -0.40769  -0.40321  -0.40072  -0.39771  -0.39393
 Alpha  occ. eigenvalues --   -0.39054  -0.38712  -0.38358  -0.37862  -0.37704
 Alpha  occ. eigenvalues --   -0.37580  -0.37517  -0.37471  -0.37253  -0.37170
 Alpha  occ. eigenvalues --   -0.36918  -0.36274  -0.33520  -0.33253  -0.31972
 Alpha  occ. eigenvalues --   -0.31484  -0.30598  -0.30488  -0.29388  -0.28955
 Alpha  occ. eigenvalues --   -0.28865  -0.28505  -0.25179
 Alpha virt. eigenvalues --   -0.13237  -0.11432  -0.09867  -0.07031  -0.05734
 Alpha virt. eigenvalues --   -0.05089  -0.04002  -0.03236  -0.03120  -0.02707
 Alpha virt. eigenvalues --   -0.02585  -0.02242  -0.01858  -0.01537  -0.00969

 Mulliken charges:
               1
     1  N   -0.756510
     2  H    0.418918
     3  H    0.409473
     4  H    0.433690
     5  C   -0.107541
     6  H    0.205493
     7  C    0.662375
     8  C   -0.107587
     9  H    0.173288
    10  O   -0.530240
    11  C   -0.479998
    12  H    0.167261
    13  H    0.191601
    14  H    0.186420
    15  C   -0.478047
    16  H    0.177882
    17  H    0.142449
    18  H    0.205021
    19  N   -0.584784
    20  H    0.372839
    21  C   -0.100084
    22  H    0.208945
    23  C    0.639873
    24  C   -0.018838
    25  H    0.151254
    26  H    0.152914
    27  O   -0.552925
    28  O   -0.614751
    29  H    0.415783
    30  N   -0.593351
    31  H    0.348645
    32  C   -0.071387
    33  H    0.189949
    34  C    0.622074
    35  C   -0.465170
    36  H    0.194039
    37  H    0.178640
    38  H    0.154722
    39  O   -0.509442
    40  N   -0.621324
    41  H    0.357198
    42  C   -0.060609
    43  H    0.178863
    44  C    0.634765
    45  C   -0.262033
    46  H    0.110093
    47  H    0.150785
    48  O   -0.547692
    49  C   -0.079864
    50  H    0.158164
    51  C   -0.451526
    52  H    0.131042
    53  H    0.152848
    54  H    0.152249
    55  C   -0.444589
    56  H    0.126281
    57  H    0.151419
    58  H    0.145663
    59  N   -0.620903
    60  H    0.368945
    61  C   -0.036365
    62  H    0.171164
    63  C    0.617210
    64  C   -0.354949
    65  H    0.149660
    66  H    0.171617
    67  O   -0.545396
    68  C    0.149112
    69  C   -0.191758
    70  H    0.131671
    71  C   -0.204546
    72  H    0.143535
    73  C   -0.152931
    74  H    0.146101
    75  C   -0.188642
    76  H    0.122739
    77  O   -0.638945
    78  H    0.409077
    79  C    0.357105
    80  N   -0.618049
    81  H    0.355008
    82  C   -0.000936
    83  H    0.184221
    84  C    0.572677
    85  C   -0.280700
    86  H    0.171584
    87  H    0.146272
    88  O   -0.603723
    89  C   -0.284131
    90  H    0.142286
    91  H    0.168079
    92  C   -0.288822
    93  H    0.146869
    94  H    0.162424
    95  C   -0.141885
    96  H    0.143206
    97  H    0.161332
    98  N   -0.772446
    99  H    0.329015
   100  H    0.337149
   101  H    0.454326
   102  O   -0.501882
 Sum of Mulliken charges =   1.00000

 Dipole moment (field-independent basis, Debye):
    X=            -24.2351    Y=              3.9047    Z=             11.6406  Tot=             27.1678
 Quadrupole moment (field-independent basis, Debye-Ang):
   XX=             18.7163   YY=           -257.9240   ZZ=           -171.4567
   XY=            -65.2246   XZ=           -159.6099   YZ=             28.4015

 Normal termination of Gaussian 16 at Sat Jul  2 15:27:42 2022.
