 Gaussian 16, Revision C.01,
 Gaussian 16:  ES64L-G16RevC.01  3-Jul-2019

 -------------------------------------------------------------------
 # B3LYP/6-31G* guess=read geom=check nosymm integral(ultrafinegrid)
 -------------------------------------------------------------------

 ------------------------------------------------------
 Candidate Structure: Conf:497 Charge calc in gas phase
 ------------------------------------------------------
 Structure from the checkpoint file:  "conf-497.chk"
 Charge =  1 Multiplicity = 1

                          Input orientation:
 ---------------------------------------------------------------------
 Center     Atomic      Atomic             Coordinates (Angstroms)
 Number     Number       Type             X           Y           Z
 ---------------------------------------------------------------------
      1          7           0       -9.172258    4.329616    2.145636
      2          1           0       -9.765771    4.556279    2.947365
      3          1           0       -9.687886    4.532989    1.285154
      4          1           0       -8.277860    4.906141    2.192546
      5          6           0       -8.624688    2.913809    2.178941
      6          1           0       -9.146474    2.375483    2.974877
      7          6           0       -7.136919    3.142192    2.554105
      8          6           0       -8.833937    2.195483    0.822195
      9          1           0       -8.280069    1.253226    0.916670
     10          8           0       -6.702862    4.300700    2.506535
     11          6           0      -10.318178    1.860769    0.603080
     12          1           0      -10.936086    2.760708    0.474188
     13          1           0      -10.435522    1.269909   -0.309908
     14          1           0      -10.736497    1.280583    1.433459
     15          6           0       -8.223844    2.961437   -0.363057
     16          1           0       -8.714714    3.929341   -0.542138
     17          1           0       -7.151040    3.118712   -0.230482
     18          1           0       -8.362237    2.375568   -1.276355
     19          7           0       -6.441444    2.071063    2.941285
     20          1           0       -6.840594    1.144807    2.823582
     21          6           0       -4.983446    2.069433    2.970367
     22          1           0       -4.644322    3.010985    3.411999
     23          6           0       -4.461340    1.979426    1.501955
     24          6           0       -4.534613    0.895197    3.844666
     25          1           0       -4.826643    1.085344    4.887567
     26          1           0       -3.442267    0.796054    3.807053
     27          8           0       -5.246120    1.922142    0.556519
     28          8           0       -5.188977   -0.254711    3.321958
     29          1           0       -4.932247   -1.030754    3.842605
     30          7           0       -3.124631    1.995194    1.385996
     31          1           0       -2.496909    1.978054    2.188939
     32          6           0       -2.410177    1.831633    0.126649
     33          1           0       -2.888753    1.027876   -0.445692
     34          6           0       -0.981664    1.400142    0.532361
     35          6           0       -2.412399    3.119858   -0.713421
     36          1           0       -1.888609    2.970528   -1.662995
     37          1           0       -1.920194    3.933712   -0.171336
     38          1           0       -3.443537    3.409958   -0.931200
     39          8           0       -0.631883    1.437901    1.717088
     40          7           0       -0.183643    1.013677   -0.475156
     41          1           0       -0.492026    1.010719   -1.443973
     42          6           0        1.218772    0.645099   -0.306207
     43          1           0        1.658893    1.312808    0.440144
     44          6           0        1.860817    0.873401   -1.687135
     45          6           0        1.346029   -0.827553    0.163946
     46          1           0        0.675299   -0.935770    1.025688
     47          1           0        0.947506   -1.466094   -0.635564
     48          8           0        1.165634    0.830302   -2.708834
     49          6           0        2.751898   -1.317281    0.568796
     50          1           0        3.437993   -1.176147   -0.277053
     51          6           0        3.317729   -0.549533    1.774492
     52          1           0        2.653783   -0.641489    2.643550
     53          1           0        4.299668   -0.944604    2.056039
     54          1           0        3.449355    0.520303    1.573829
     55          6           0        2.698874   -2.823476    0.870117
     56          1           0        2.029650   -3.032625    1.714893
     57          1           0        3.692269   -3.205162    1.130655
     58          1           0        2.335918   -3.393031    0.006447
     59          7           0        3.185737    1.108960   -1.697304
     60          1           0        3.753803    1.017205   -0.858164
     61          6           0        3.961237    1.163312   -2.927282
     62          1           0        3.610007    0.365684   -3.592835
     63          6           0        5.416696    0.860395   -2.508055
     64          6           0        3.787011    2.523105   -3.674908
     65          1           0        4.486278    3.261036   -3.265693
     66          1           0        2.777636    2.873345   -3.438754
     67          8           0        5.691154    0.627038   -1.327493
     68          6           0        3.932913    2.419041   -5.179656
     69          6           0        5.025313    2.966375   -5.867517
     70          1           0        5.810538    3.478334   -5.317801
     71          6           0        2.943906    1.762827   -5.928816
     72          1           0        2.082863    1.339495   -5.416065
     73          6           0        5.138700    2.860643   -7.252515
     74          1           0        5.991378    3.278427   -7.777268
     75          6           0        3.042777    1.653322   -7.313482
     76          1           0        2.262720    1.144626   -7.877757
     77          8           0        4.299375    2.128467   -9.337095
     78          1           0        3.543267    1.655116   -9.717632
     79          6           0        4.144190    2.203662   -7.981463
     80          7           0        6.335926    0.868561   -3.495941
     81          1           0        6.077325    1.122654   -4.444693
     82          6           0        7.755799    0.661174   -3.245437
     83          1           0        7.959741    0.923955   -2.206228
     84          6           0        8.571090    1.557758   -4.164859
     85          6           0        8.161608   -0.829922   -3.486504
     86          1           0        7.785000   -1.394284   -2.626652
     87          1           0        7.607035   -1.187209   -4.363363
     88          8           0        9.755485    1.847968   -3.637040
     89          6           0        9.671353   -1.098941   -3.688102
     90          1           0        9.887847   -2.116218   -3.341913
     91          1           0       10.248137   -0.428476   -3.043861
     92          6           0       10.144533   -0.970761   -5.165211
     93          1           0       10.158427   -1.971839   -5.612327
     94          1           0        9.412628   -0.402539   -5.752299
     95          6           0       11.531261   -0.332490   -5.385047
     96          1           0       12.007270   -0.782755   -6.267548
     97          1           0       12.186142   -0.537264   -4.530708
     98          7           0       11.448935    1.144555   -5.538024
     99          1           0       12.384746    1.543405   -5.603377
    100          1           0       10.974901    1.370349   -6.413079
    101          1           0       10.459021    1.841229   -4.385992
    102          8           0        8.205604    1.857925   -5.290685
 ---------------------------------------------------------------------

 SCF Done:  E(RB3LYP) =  -2312.09911508     A.U. after    1 cycles

 Alpha  occ. eigenvalues --  -19.26681 -19.25837 -19.21685 -19.20574 -19.20220
 Alpha  occ. eigenvalues --  -19.18964 -19.17793 -19.17203 -19.16966 -14.59513
 Alpha  occ. eigenvalues --  -14.49201 -14.44119 -14.42607 -14.41411 -14.40833
 Alpha  occ. eigenvalues --  -14.39649 -10.43270 -10.40127 -10.37906 -10.35991
 Alpha  occ. eigenvalues --  -10.35052 -10.34719 -10.34688 -10.34440 -10.34097
 Alpha  occ. eigenvalues --  -10.33705 -10.31231 -10.30347 -10.29393 -10.29034
 Alpha  occ. eigenvalues --  -10.28832 -10.28734 -10.27538 -10.26850 -10.25441
 Alpha  occ. eigenvalues --  -10.24073 -10.24025 -10.23967 -10.23462 -10.23250
 Alpha  occ. eigenvalues --  -10.23152 -10.23058 -10.22995 -10.22882 -10.22731
 Alpha  occ. eigenvalues --  -10.22214 -10.22018 -10.21992  -1.19099  -1.13745
 Alpha  occ. eigenvalues --   -1.13177  -1.12437  -1.12224  -1.10796  -1.09722
 Alpha  occ. eigenvalues --   -1.09623  -1.08611  -1.05777  -1.03972  -1.00843
 Alpha  occ. eigenvalues --   -0.99201  -0.98087  -0.97307  -0.95080  -0.94592
 Alpha  occ. eigenvalues --   -0.89369  -0.88862  -0.86677  -0.85274  -0.84729
 Alpha  occ. eigenvalues --   -0.83724  -0.83104  -0.80883  -0.80018  -0.79685
 Alpha  occ. eigenvalues --   -0.78612  -0.76880  -0.75576  -0.74052  -0.73989
 Alpha  occ. eigenvalues --   -0.73782  -0.73379  -0.72904  -0.72222  -0.71418
 Alpha  occ. eigenvalues --   -0.70504  -0.69971  -0.67282  -0.66925  -0.66106
 Alpha  occ. eigenvalues --   -0.65726  -0.65234  -0.64723  -0.64023  -0.63287
 Alpha  occ. eigenvalues --   -0.63212  -0.62467  -0.62277  -0.61725  -0.61450
 Alpha  occ. eigenvalues --   -0.61168  -0.59294  -0.58446  -0.58184  -0.57404
 Alpha  occ. eigenvalues --   -0.56815  -0.56387  -0.56069  -0.55584  -0.54811
 Alpha  occ. eigenvalues --   -0.54692  -0.54252  -0.53776  -0.53517  -0.52835
 Alpha  occ. eigenvalues --   -0.52263  -0.52089  -0.51907  -0.51656  -0.51365
 Alpha  occ. eigenvalues --   -0.51022  -0.50868  -0.50655  -0.50115  -0.50109
 Alpha  occ. eigenvalues --   -0.49670  -0.49552  -0.49321  -0.49133  -0.48341
 Alpha  occ. eigenvalues --   -0.48061  -0.47565  -0.47434  -0.47232  -0.47145
 Alpha  occ. eigenvalues --   -0.46763  -0.46643  -0.46437  -0.46256  -0.45959
 Alpha  occ. eigenvalues --   -0.45858  -0.45619  -0.45565  -0.45081  -0.44906
 Alpha  occ. eigenvalues --   -0.44607  -0.44311  -0.43861  -0.43368  -0.43041
 Alpha  occ. eigenvalues --   -0.42997  -0.42691  -0.42092  -0.41356  -0.41127
 Alpha  occ. eigenvalues --   -0.41088  -0.40890  -0.40331  -0.40082  -0.39312
 Alpha  occ. eigenvalues --   -0.39243  -0.38456  -0.38353  -0.38126  -0.37776
 Alpha  occ. eigenvalues --   -0.37588  -0.37524  -0.37449  -0.37345  -0.36627
 Alpha  occ. eigenvalues --   -0.34595  -0.34157  -0.33843  -0.33123  -0.32452
 Alpha  occ. eigenvalues --   -0.32009  -0.31592  -0.31499  -0.31072  -0.30539
 Alpha  occ. eigenvalues --   -0.29526  -0.28947  -0.25680
 Alpha virt. eigenvalues --   -0.12074  -0.10996  -0.06838  -0.06499  -0.04853
 Alpha virt. eigenvalues --   -0.04522  -0.04393  -0.03731  -0.03249  -0.02707
 Alpha virt. eigenvalues --   -0.02642  -0.01921  -0.01315  -0.00297   0.00298

 Mulliken charges:
               1
     1  N   -0.760539
     2  H    0.414607
     3  H    0.410865
     4  H    0.435332
     5  C   -0.113233
     6  H    0.206288
     7  C    0.673445
     8  C   -0.117878
     9  H    0.191903
    10  O   -0.540169
    11  C   -0.460919
    12  H    0.136898
    13  H    0.197720
    14  H    0.166615
    15  C   -0.487977
    16  H    0.124544
    17  H    0.229010
    18  H    0.191423
    19  N   -0.581913
    20  H    0.370455
    21  C   -0.106603
    22  H    0.210710
    23  C    0.653545
    24  C   -0.055499
    25  H    0.158663
    26  H    0.171608
    27  O   -0.543080
    28  O   -0.628501
    29  H    0.422137
    30  N   -0.619050
    31  H    0.363063
    32  C   -0.041568
    33  H    0.182851
    34  C    0.626174
    35  C   -0.449854
    36  H    0.165411
    37  H    0.165251
    38  H    0.178202
    39  O   -0.553568
    40  N   -0.623307
    41  H    0.358127
    42  C   -0.053694
    43  H    0.179275
    44  C    0.617352
    45  C   -0.254157
    46  H    0.156146
    47  H    0.143065
    48  O   -0.553981
    49  C   -0.093743
    50  H    0.141631
    51  C   -0.447923
    52  H    0.145977
    53  H    0.158582
    54  H    0.140236
    55  C   -0.444528
    56  H    0.139358
    57  H    0.152282
    58  H    0.143823
    59  N   -0.626196
    60  H    0.371436
    61  C   -0.040800
    62  H    0.189035
    63  C    0.606295
    64  C   -0.355434
    65  H    0.157001
    66  H    0.178890
    67  O   -0.545150
    68  C    0.125672
    69  C   -0.203021
    70  H    0.146833
    71  C   -0.194880
    72  H    0.156792
    73  C   -0.151964
    74  H    0.151391
    75  C   -0.193074
    76  H    0.122274
    77  O   -0.638600
    78  H    0.408783
    79  C    0.350059
    80  N   -0.621683
    81  H    0.366722
    82  C   -0.021009
    83  H    0.194835
    84  C    0.575407
    85  C   -0.277999
    86  H    0.163449
    87  H    0.148398
    88  O   -0.600265
    89  C   -0.284266
    90  H    0.144227
    91  H    0.169599
    92  C   -0.289895
    93  H    0.149000
    94  H    0.163522
    95  C   -0.142625
    96  H    0.145578
    97  H    0.162285
    98  N   -0.773739
    99  H    0.330506
   100  H    0.338490
   101  H    0.455143
   102  O   -0.501914
 Sum of Mulliken charges =   1.00000

 Dipole moment (field-independent basis, Debye):
    X=            -25.8252    Y=              9.6276    Z=              4.4437  Tot=             27.9174
 Quadrupole moment (field-independent basis, Debye-Ang):
   XX=            144.9548   YY=           -236.3790   ZZ=           -207.4868
   XY=           -122.8576   XZ=           -137.7721   YZ=             29.2648

 Normal termination of Gaussian 16 at Sat Jul  2 15:27:40 2022.
