 Gaussian 16, Revision C.01,
 Gaussian 16:  ES64L-G16RevC.01  3-Jul-2019

 -------------------------------------------------------------------
 # B3LYP/6-31G* guess=read geom=check nosymm integral(ultrafinegrid)
 -------------------------------------------------------------------

 ------------------------------------------------------
 Candidate Structure: Conf:607 Charge calc in gas phase
 ------------------------------------------------------
 Structure from the checkpoint file:  "conf-607.chk"
 Charge =  1 Multiplicity = 1

                          Input orientation:
 ---------------------------------------------------------------------
 Center     Atomic      Atomic             Coordinates (Angstroms)
 Number     Number       Type             X           Y           Z
 ---------------------------------------------------------------------
      1          7           0       -8.803145    3.371934    4.490342
      2          1           0       -8.790765    3.183878    5.495365
      3          1           0       -9.770500    3.538972    4.200702
      4          1           0       -8.194923    4.225680    4.266640
      5          6           0       -8.118109    2.300228    3.662194
      6          1           0       -7.784194    1.519125    4.350609
      7          6           0       -6.890584    3.064994    3.085557
      8          6           0       -9.061274    1.696670    2.596021
      9          1           0       -8.433159    0.992157    2.035754
     10          8           0       -6.815124    4.283523    3.319030
     11          6           0      -10.197374    0.889982    3.245350
     12          1           0      -10.892592    1.526613    3.809842
     13          1           0      -10.788815    0.389070    2.473504
     14          1           0       -9.814657    0.120018    3.924389
     15          6           0       -9.588948    2.745355    1.602845
     16          1           0      -10.272551    3.466781    2.072196
     17          1           0       -8.781806    3.307765    1.123274
     18          1           0      -10.161910    2.248262    0.815069
     19          7           0       -6.022104    2.351962    2.384483
     20          1           0       -6.157202    1.358782    2.174379
     21          6           0       -4.856152    2.887185    1.688658
     22          1           0       -5.113527    3.836390    1.208736
     23          6           0       -4.490565    1.811263    0.653642
     24          6           0       -3.656994    3.135651    2.658025
     25          1           0       -3.439392    2.200087    3.191601
     26          1           0       -3.971167    3.888056    3.388542
     27          8           0       -4.984927    0.684185    0.735240
     28          8           0       -2.536113    3.628010    1.968090
     29          1           0       -1.991382    2.856069    1.685340
     30          7           0       -3.592838    2.200739   -0.278749
     31          1           0       -3.138599    3.089479   -0.085227
     32          6           0       -2.787887    1.221429   -0.998479
     33          1           0       -3.440483    0.375410   -1.229904
     34          6           0       -1.640586    0.726610   -0.078595
     35          6           0       -2.233677    1.834288   -2.292925
     36          1           0       -1.629839    1.106943   -2.842845
     37          1           0       -1.595950    2.698543   -2.073065
     38          1           0       -3.055001    2.162862   -2.936073
     39          8           0       -1.328362    1.330680    0.959210
     40          7           0       -1.022622   -0.379877   -0.514895
     41          1           0       -1.229285   -0.739476   -1.448151
     42          6           0        0.275137   -0.865752   -0.051808
     43          1           0        0.784149   -0.047856    0.466652
     44          6           0        1.035215   -1.237571   -1.351127
     45          6           0        0.153204   -2.099311    0.869802
     46          1           0       -0.362866   -2.885011    0.302147
     47          1           0        1.165867   -2.476957    1.068155
     48          8           0        0.400583   -1.407744   -2.399537
     49          6           0       -0.573270   -1.871514    2.209561
     50          1           0       -1.555103   -1.429111    1.990231
     51          6           0       -0.808305   -3.221516    2.904979
     52          1           0        0.143944   -3.714239    3.141118
     53          1           0       -1.354267   -3.089658    3.846614
     54          1           0       -1.387527   -3.904723    2.272782
     55          6           0        0.186794   -0.906131    3.131409
     56          1           0        1.201345   -1.274404    3.335511
     57          1           0       -0.326753   -0.808577    4.095567
     58          1           0        0.259835    0.095282    2.697099
     59          7           0        2.361662   -1.385700   -1.239162
     60          1           0        2.866778   -1.198759   -0.376050
     61          6           0        3.239754   -1.755619   -2.345915
     62          1           0        2.748921   -2.536994   -2.931949
     63          6           0        4.536196   -2.285722   -1.701229
     64          6           0        3.512873   -0.522644   -3.257907
     65          1           0        3.899527    0.280426   -2.619536
     66          1           0        2.538152   -0.197689   -3.641676
     67          8           0        4.907251   -1.783421   -0.620699
     68          6           0        4.481778   -0.795654   -4.385710
     69          6           0        5.756185   -0.213248   -4.396021
     70          1           0        6.030231    0.483533   -3.606579
     71          6           0        4.159936   -1.685142   -5.419046
     72          1           0        3.176890   -2.150480   -5.447421
     73          6           0        6.688266   -0.518195   -5.384376
     74          1           0        7.678695   -0.073752   -5.383841
     75          6           0        5.085608   -2.013513   -6.404889
     76          1           0        4.826540   -2.734559   -7.176690
     77          8           0        7.316907   -1.730653   -7.315157
     78          1           0        7.035577   -2.511860   -7.816675
     79          6           0        6.360609   -1.439723   -6.383004
     80          7           0        5.144091   -3.248732   -2.387316
     81          1           0        4.793318   -3.589875   -3.301277
     82          6           0        6.491156   -3.789495   -2.251325
     83          1           0        7.220145   -2.984084   -2.425410
     84          6           0        6.660830   -4.817369   -3.473206
     85          6           0        6.820887   -4.482877   -0.927733
     86          1           0        5.924833   -4.985517   -0.538481
     87          1           0        7.552825   -5.254446   -1.198231
     88          8           0        7.688679   -5.514783   -3.421000
     89          6           0        7.419360   -3.560552    0.140796
     90          1           0        6.683395   -2.806804    0.440475
     91          1           0        8.272954   -3.023898   -0.298269
     92          6           0        7.921376   -4.364978    1.352688
     93          1           0        7.075924   -4.861433    1.850714
     94          1           0        8.602301   -5.153259    0.998316
     95          6           0        8.648349   -3.469312    2.337626
     96          1           0        7.994465   -2.732413    2.809994
     97          1           0        9.499733   -2.955828    1.884408
     98          7           0        9.238830   -4.308075    3.487363
     99          1           0        9.749700   -3.742694    4.175637
    100          1           0        8.494235   -4.815252    3.979697
    101          1           0        9.884521   -5.013249    3.111944
    102          8           0        5.732691   -4.763322   -4.321252
 ---------------------------------------------------------------------

 SCF Done:  E(RB3LYP) =  -2312.01403404     A.U. after    1 cycles

 Alpha  occ. eigenvalues --  -19.26940 -19.21851 -19.21640 -19.19983 -19.18299
 Alpha  occ. eigenvalues --  -19.16581 -19.13131 -19.05058 -19.04191 -14.61515
 Alpha  occ. eigenvalues --  -14.59689 -14.49427 -14.44727 -14.42598 -14.40209
 Alpha  occ. eigenvalues --  -14.35232 -10.43566 -10.40616 -10.38492 -10.37781
 Alpha  occ. eigenvalues --  -10.36494 -10.34727 -10.33656 -10.33629 -10.32420
 Alpha  occ. eigenvalues --  -10.31498 -10.31039 -10.30905 -10.29920 -10.29197
 Alpha  occ. eigenvalues --  -10.29086 -10.25887 -10.25883 -10.25512 -10.24322
 Alpha  occ. eigenvalues --  -10.24266 -10.23358 -10.23151 -10.22622 -10.22347
 Alpha  occ. eigenvalues --  -10.21461 -10.20842 -10.20170 -10.20044 -10.19942
 Alpha  occ. eigenvalues --  -10.19726 -10.19594 -10.19347  -1.19303  -1.15325
 Alpha  occ. eigenvalues --   -1.13972  -1.13418  -1.11214  -1.09372  -1.08367
 Alpha  occ. eigenvalues --   -1.06337  -1.05942  -1.04253  -1.01659  -0.99338
 Alpha  occ. eigenvalues --   -0.98207  -0.96509  -0.95397  -0.92222  -0.90628
 Alpha  occ. eigenvalues --   -0.89475  -0.88547  -0.86941  -0.86280  -0.85514
 Alpha  occ. eigenvalues --   -0.83509  -0.82070  -0.81985  -0.81291  -0.79348
 Alpha  occ. eigenvalues --   -0.76254  -0.75556  -0.75523  -0.74634  -0.74267
 Alpha  occ. eigenvalues --   -0.73990  -0.73839  -0.73491  -0.73312  -0.73057
 Alpha  occ. eigenvalues --   -0.71735  -0.71141  -0.69552  -0.68734  -0.68034
 Alpha  occ. eigenvalues --   -0.66899  -0.65586  -0.65024  -0.64040  -0.62992
 Alpha  occ. eigenvalues --   -0.62647  -0.62411  -0.62237  -0.61416  -0.61127
 Alpha  occ. eigenvalues --   -0.60589  -0.59429  -0.59274  -0.58380  -0.58230
 Alpha  occ. eigenvalues --   -0.57647  -0.57270  -0.56719  -0.56081  -0.55536
 Alpha  occ. eigenvalues --   -0.55081  -0.54875  -0.53959  -0.53625  -0.52707
 Alpha  occ. eigenvalues --   -0.52454  -0.52113  -0.51623  -0.51446  -0.51100
 Alpha  occ. eigenvalues --   -0.51065  -0.50591  -0.50399  -0.50210  -0.49290
 Alpha  occ. eigenvalues --   -0.49075  -0.48644  -0.48372  -0.48211  -0.47838
 Alpha  occ. eigenvalues --   -0.47702  -0.47592  -0.47569  -0.47371  -0.46875
 Alpha  occ. eigenvalues --   -0.46368  -0.45921  -0.45794  -0.44994  -0.44919
 Alpha  occ. eigenvalues --   -0.44717  -0.44397  -0.43839  -0.43567  -0.43265
 Alpha  occ. eigenvalues --   -0.43040  -0.42930  -0.42701  -0.41968  -0.41548
 Alpha  occ. eigenvalues --   -0.41226  -0.41137  -0.40900  -0.40599  -0.40009
 Alpha  occ. eigenvalues --   -0.39614  -0.38912  -0.38613  -0.37911  -0.37760
 Alpha  occ. eigenvalues --   -0.37629  -0.37030  -0.36757  -0.36577  -0.36196
 Alpha  occ. eigenvalues --   -0.35609  -0.35129  -0.34658  -0.34585  -0.34451
 Alpha  occ. eigenvalues --   -0.33501  -0.33072  -0.32850  -0.32558  -0.30691
 Alpha  occ. eigenvalues --   -0.29665  -0.27252  -0.26132  -0.25762  -0.22413
 Alpha  occ. eigenvalues --   -0.20199  -0.19893  -0.18714
 Alpha virt. eigenvalues --   -0.12374  -0.12273  -0.11289  -0.07648  -0.06837
 Alpha virt. eigenvalues --   -0.05633  -0.05403  -0.05380  -0.04185  -0.02504
 Alpha virt. eigenvalues --   -0.02397  -0.02361  -0.01181  -0.00756   0.00229

 Mulliken charges:
               1
     1  N   -0.764594
     2  H    0.415224
     3  H    0.409419
     4  H    0.437177
     5  C   -0.100020
     6  H    0.214395
     7  C    0.654186
     8  C   -0.125742
     9  H    0.191745
    10  O   -0.546337
    11  C   -0.461930
    12  H    0.139513
    13  H    0.200034
    14  H    0.172298
    15  C   -0.477814
    16  H    0.142764
    17  H    0.188148
    18  H    0.201030
    19  N   -0.615612
    20  H    0.375941
    21  C   -0.080140
    22  H    0.199191
    23  C    0.609572
    24  C   -0.031791
    25  H    0.148781
    26  H    0.170258
    27  O   -0.540580
    28  O   -0.643925
    29  H    0.447993
    30  N   -0.581920
    31  H    0.349651
    32  C   -0.089081
    33  H    0.199554
    34  C    0.641179
    35  C   -0.468139
    36  H    0.192054
    37  H    0.165930
    38  H    0.177925
    39  O   -0.568983
    40  N   -0.586219
    41  H    0.364827
    42  C   -0.082125
    43  H    0.176399
    44  C    0.631636
    45  C   -0.251156
    46  H    0.149437
    47  H    0.143963
    48  O   -0.556346
    49  C   -0.066876
    50  H    0.133220
    51  C   -0.443344
    52  H    0.140281
    53  H    0.137841
    54  H    0.146749
    55  C   -0.458158
    56  H    0.131193
    57  H    0.135452
    58  H    0.168985
    59  N   -0.614596
    60  H    0.345130
    61  C   -0.036222
    62  H    0.178270
    63  C    0.611476
    64  C   -0.352395
    65  H    0.141227
    66  H    0.164237
    67  O   -0.599987
    68  C    0.166677
    69  C   -0.190422
    70  H    0.115606
    71  C   -0.195513
    72  H    0.129010
    73  C   -0.156715
    74  H    0.131945
    75  C   -0.153830
    76  H    0.129091
    77  O   -0.646464
    78  H    0.413677
    79  C    0.357035
    80  N   -0.616586
    81  H    0.373384
    82  C   -0.058475
    83  H    0.140043
    84  C    0.579126
    85  C   -0.263825
    86  H    0.123383
    87  H    0.174984
    88  O   -0.591837
    89  C   -0.283517
    90  H    0.190156
    91  H    0.138297
    92  C   -0.290365
    93  H    0.156071
    94  H    0.162649
    95  C   -0.206191
    96  H    0.222790
    97  H    0.224357
    98  N   -0.731101
    99  H    0.420350
   100  H    0.420545
   101  H    0.424305
   102  O   -0.608890
 Sum of Mulliken charges =   1.00000

 Dipole moment (field-independent basis, Debye):
    X=            -17.7147    Y=              6.1155    Z=             36.8667  Tot=             41.3565
 Quadrupole moment (field-independent basis, Debye-Ang):
   XX=            211.3756   YY=           -266.9196   ZZ=           -198.7885
   XY=           -144.7140   XZ=             65.8848   YZ=            -72.8294

 Normal termination of Gaussian 16 at Sat Jul  2 15:27:40 2022.
