 Gaussian 16, Revision C.01,
 Gaussian 16:  ES64L-G16RevC.01  3-Jul-2019

 ----------------------------------------------------------------------
 # B3LYP/6-31G* empiricaldispersion=gd3 guess=read geom=check nosymm in
 tegral(ultrafinegrid)
 ----------------------------------------------------------------------

 ------------------------------------------------------
 Candidate Structure: Conf:962 Charge calc in gas phase
 ------------------------------------------------------
 Structure from the checkpoint file:  "conf-962.chk"
 Charge =  1 Multiplicity = 1

                          Input orientation:
 ---------------------------------------------------------------------
 Center     Atomic      Atomic             Coordinates (Angstroms)
 Number     Number       Type             X           Y           Z
 ---------------------------------------------------------------------
      1          7           0       -3.776627    2.345240    2.344468
      2          1           0       -4.703173    1.914225    2.371026
      3          1           0       -3.740618    3.188967    2.916779
      4          6           0       -2.680368    1.404588    2.595546
      5          1           0       -1.758400    1.985151    2.726291
      6          6           0       -2.432389    0.558906    1.340145
      7          6           0       -2.769006    0.469504    3.817994
      8          1           0       -3.073226    1.059098    4.691633
      9          1           0       -3.497693   -0.328235    3.650615
     10          8           0       -1.928243   -0.599103    1.424243
     11          6           0       -1.382927   -0.116519    4.101286
     12          7           0       -1.362612   -1.309975    4.726227
     13          1           0       -0.469707   -1.736678    4.953248
     14          1           0       -2.208513   -1.831885    4.922068
     15          8           0       -0.342657    0.522275    3.806333
     16          7           0       -2.695678    1.205211    0.196099
     17          1           0       -3.134469    2.127985    0.294782
     18          6           0       -2.359257    0.691120   -1.148651
     19          1           0       -2.638054   -0.368798   -1.186561
     20          6           0       -0.817328    0.772003   -1.341568
     21          6           0       -3.114368    1.494403   -2.236947
     22          1           0       -2.537324    1.415648   -3.162591
     23          1           0       -4.093722    1.034040   -2.396531
     24          8           0       -0.263601    1.511958   -2.193896
     25          6           0       -3.305462    2.957997   -1.861534
     26          6           0       -4.565462    3.417156   -1.453661
     27          1           0       -5.408464    2.733701   -1.450513
     28          6           0       -2.222332    3.850890   -1.859471
     29          1           0       -1.247836    3.478524   -2.145123
     30          6           0       -4.746587    4.746826   -1.062793
     31          1           0       -5.728093    5.090243   -0.757460
     32          6           0       -2.404853    5.177741   -1.470589
     33          1           0       -1.562904    5.860722   -1.476247
     34          6           0       -3.666446    5.630675   -1.071853
     35          1           0       -3.805433    6.662863   -0.772703
     36          7           0       -0.158572    0.014725   -0.450142
     37          1           0       -0.725774   -0.547722    0.209560
     38          6           0        1.261787    0.179539   -0.154018
     39          1           0        1.498824    1.252309   -0.153324
     40          6           0        2.115009   -0.442920   -1.269439
     41          6           0        1.508365   -0.422817    1.256174
     42          1           0        1.737583   -1.490111    1.159298
     43          1           0        0.591422   -0.313962    1.836967
     44          8           0        1.575658   -0.796990   -2.356869
     45          6           0        2.659384    0.260267    1.989640
     46          7           0        2.395642    0.573062    3.268423
     47          1           0        3.129336    1.018359    3.812033
     48          1           0        1.442240    0.495399    3.651600
     49          8           0        3.762641    0.494979    1.426050
     50          7           0        3.430524   -0.486124   -1.021994
     51          1           0        3.785693   -0.156684   -0.086728
     52          6           0        4.341660   -0.885902   -2.092094
     53          1           0        3.838687   -1.674877   -2.662664
     54          6           0        5.637510   -1.474723   -1.570930
     55          6           0        4.670499    0.308064   -3.037785
     56          1           0        3.800053    0.968619   -3.047378
     57          1           0        5.509890    0.872415   -2.621086
     58          8           0        6.634763   -1.641638   -2.265026
     59          6           0        5.006961   -0.127882   -4.478523
     60          1           0        5.237859    0.767407   -5.066999
     61          1           0        5.890976   -0.771066   -4.452819
     62          6           0        3.830732   -0.894486   -5.147297
     63          1           0        3.956547   -0.929157   -6.234592
     64          1           0        3.805831   -1.932444   -4.809018
     65          7           0        2.510500   -0.325005   -4.783555
     66          1           0        2.099979   -0.670555   -3.882120
     67          7           0        2.547907    1.414445   -6.342169
     68          1           0        2.303817    2.358702   -6.612500
     69          1           0        3.139536    0.884297   -6.967726
     70          7           0        1.116677    1.503593   -4.507514
     71          1           0        0.633634    2.300343   -4.906927
     72          1           0        0.795569    1.226247   -3.560404
     73          6           0        2.058729    0.858756   -5.207643
     74          8           0        5.558866   -1.802236   -0.244203
     75          1           0        6.435245   -2.170080    0.058951
 ---------------------------------------------------------------------

 SCF Done:  E(RB3LYP) =  -1917.50501966     A.U. after   13 cycles

 Alpha  occ. eigenvalues --  -19.28326 -19.22705 -19.21851 -19.21740 -19.21669
 Alpha  occ. eigenvalues --  -19.21572 -19.20502 -14.49098 -14.46852 -14.46428
 Alpha  occ. eigenvalues --  -14.45967 -14.45412 -14.44478 -14.44372 -14.43502
 Alpha  occ. eigenvalues --  -14.41982 -10.44287 -10.41197 -10.39609 -10.38518
 Alpha  occ. eigenvalues --  -10.38383 -10.38145 -10.38091 -10.33368 -10.33298
 Alpha  occ. eigenvalues --  -10.33263 -10.33061 -10.32150 -10.29131 -10.28807
 Alpha  occ. eigenvalues --  -10.28297 -10.28070 -10.27666 -10.27029 -10.26121
 Alpha  occ. eigenvalues --  -10.25979 -10.25922 -10.25816 -10.25438  -1.17873
 Alpha  occ. eigenvalues --   -1.13264  -1.12685  -1.12247  -1.12002  -1.11399
 Alpha  occ. eigenvalues --   -1.10935  -1.09495  -1.02229  -1.01747  -1.01520
 Alpha  occ. eigenvalues --   -1.01403  -1.00520  -1.00510  -0.98512  -0.97925
 Alpha  occ. eigenvalues --   -0.92623  -0.89697  -0.87965  -0.86553  -0.85616
 Alpha  occ. eigenvalues --   -0.83951  -0.81588  -0.81290  -0.79235  -0.77116
 Alpha  occ. eigenvalues --   -0.76173  -0.75105  -0.72908  -0.71216  -0.70170
 Alpha  occ. eigenvalues --   -0.69909  -0.68451  -0.68212  -0.67592  -0.67104
 Alpha  occ. eigenvalues --   -0.66885  -0.66163  -0.65552  -0.64872  -0.63629
 Alpha  occ. eigenvalues --   -0.62900  -0.62462  -0.62300  -0.61936  -0.61469
 Alpha  occ. eigenvalues --   -0.60319  -0.59075  -0.58638  -0.58387  -0.57682
 Alpha  occ. eigenvalues --   -0.57192  -0.56435  -0.56271  -0.55872  -0.55776
 Alpha  occ. eigenvalues --   -0.55121  -0.54691  -0.54190  -0.53294  -0.53204
 Alpha  occ. eigenvalues --   -0.52707  -0.52353  -0.52131  -0.51746  -0.51384
 Alpha  occ. eigenvalues --   -0.50990  -0.50436  -0.50013  -0.49734  -0.49054
 Alpha  occ. eigenvalues --   -0.48833  -0.48594  -0.48380  -0.47944  -0.47795
 Alpha  occ. eigenvalues --   -0.47275  -0.46971  -0.46163  -0.45860  -0.45369
 Alpha  occ. eigenvalues --   -0.45097  -0.44801  -0.44375  -0.44259  -0.43874
 Alpha  occ. eigenvalues --   -0.43409  -0.42621  -0.40971  -0.40854  -0.40021
 Alpha  occ. eigenvalues --   -0.39309  -0.37656  -0.36913  -0.36741  -0.36666
 Alpha  occ. eigenvalues --   -0.36395  -0.36327  -0.35791  -0.35158  -0.34716
 Alpha  occ. eigenvalues --   -0.34376  -0.34165  -0.33671  -0.33008  -0.32032
 Alpha  occ. eigenvalues --   -0.31518
 Alpha virt. eigenvalues --   -0.09538  -0.08708  -0.08379  -0.07902  -0.07692
 Alpha virt. eigenvalues --   -0.07515  -0.07216  -0.06694  -0.06226  -0.05487
 Alpha virt. eigenvalues --   -0.02301  -0.01609  -0.01050  -0.00466   0.00557

 Mulliken charges:
               1
     1  N   -0.759033
     2  H    0.321915
     3  H    0.332212
     4  C   -0.064381
     5  H    0.209645
     6  C    0.640372
     7  C   -0.373453
     8  H    0.186678
     9  H    0.167161
    10  O   -0.590592
    11  C    0.662861
    12  N   -0.734829
    13  H    0.355667
    14  H    0.360161
    15  O   -0.556980
    16  N   -0.606573
    17  H    0.397205
    18  C   -0.059558
    19  H    0.193698
    20  C    0.655876
    21  C   -0.357378
    22  H    0.173450
    23  H    0.160809
    24  O   -0.585988
    25  C    0.093195
    26  C   -0.185549
    27  H    0.132354
    28  C   -0.183315
    29  H    0.160199
    30  C   -0.122860
    31  H    0.142745
    32  C   -0.130555
    33  H    0.137485
    34  C   -0.129573
    35  H    0.143854
    36  N   -0.622561
    37  H    0.407714
    38  C   -0.045111
    39  H    0.198406
    40  C    0.632476
    41  C   -0.448679
    42  H    0.196373
    43  H    0.216985
    44  O   -0.595577
    45  C    0.631973
    46  N   -0.767922
    47  H    0.349181
    48  H    0.403282
    49  O   -0.561806
    50  N   -0.622062
    51  H    0.432708
    52  C   -0.048760
    53  H    0.188059
    54  C    0.597149
    55  C   -0.274617
    56  H    0.152721
    57  H    0.176495
    58  O   -0.454736
    59  C   -0.281900
    60  H    0.147496
    61  H    0.202334
    62  C   -0.186362
    63  H    0.163040
    64  H    0.192297
    65  N   -0.623535
    66  H    0.431965
    67  N   -0.769077
    68  H    0.370146
    69  H    0.377274
    70  N   -0.811464
    71  H    0.353571
    72  H    0.446071
    73  C    0.798821
    74  O   -0.567387
    75  H    0.428094
 Sum of Mulliken charges =   1.00000

 Dipole moment (field-independent basis, Debye):
    X=              0.4548    Y=              3.6267    Z=             -4.6581  Tot=              5.9210
 Quadrupole moment (field-independent basis, Debye-Ang):
   XX=           -167.7582   YY=           -195.4890   ZZ=            -95.0388
   XY=            -11.2196   XZ=            -49.4676   YZ=            -24.3572

 Normal termination of Gaussian 16 at Fri Jul  8 15:58:13 2022.
