 Gaussian 16, Revision C.01,
 Gaussian 16:  ES64L-G16RevC.01  3-Jul-2019

 ----------------------------------------------------------------------
 # B3LYP/6-31G* empiricaldispersion=gd3 guess=read geom=check nosymm in
 tegral(ultrafinegrid)
 ----------------------------------------------------------------------

 ------------------------------------------------------
 Candidate Structure: Conf:549 Charge calc in gas phase
 ------------------------------------------------------
 Structure from the checkpoint file:  "conf-549.chk"
 Charge =  1 Multiplicity = 1

                          Input orientation:
 ---------------------------------------------------------------------
 Center     Atomic      Atomic             Coordinates (Angstroms)
 Number     Number       Type             X           Y           Z
 ---------------------------------------------------------------------
      1          7           0       -5.274387   -0.456365    4.465654
      2          1           0       -6.264014   -0.694089    4.485687
      3          1           0       -5.185480    0.522063    4.736493
      4          6           0       -4.725934   -0.635538    3.123147
      5          1           0       -4.779558   -1.702730    2.876069
      6          6           0       -3.264547   -0.189986    3.214172
      7          6           0       -5.440937    0.173974    2.017023
      8          1           0       -6.516908   -0.033302    2.053783
      9          1           0       -5.301576    1.240220    2.237742
     10          8           0       -2.992764    0.998021    3.421776
     11          6           0       -4.865819   -0.098039    0.632275
     12          7           0       -5.737110   -0.023304   -0.404797
     13          1           0       -5.389674   -0.172975   -1.342395
     14          1           0       -6.718026    0.178726   -0.281790
     15          8           0       -3.671244   -0.353491    0.467812
     16          7           0       -2.316894   -1.154188    3.125919
     17          1           0       -2.584746   -2.053400    2.748643
     18          6           0       -0.888486   -0.838763    3.160124
     19          1           0       -0.778472   -0.000903    3.855131
     20          6           0       -0.498325   -0.354927    1.748815
     21          6           0       -0.059884   -2.036668    3.656569
     22          1           0       -0.120741   -2.817216    2.885925
     23          8           0        0.120522   -1.093020    0.954489
     24          6           0       -0.629724   -2.617212    4.971997
     25          1           0        0.027033   -3.441417    5.278397
     26          1           0       -1.608968   -3.069368    4.775860
     27          6           0        1.420906   -1.647263    3.799186
     28          1           0        1.555408   -0.790291    4.469301
     29          1           0        1.993176   -2.484291    4.214049
     30          1           0        1.856499   -1.391375    2.829807
     31          6           0       -0.773810   -1.616707    6.125573
     32          1           0       -1.109948   -2.130026    7.032107
     33          1           0        0.174655   -1.121589    6.362757
     34          1           0       -1.515755   -0.843228    5.897990
     35          7           0       -0.914524    0.896853    1.454072
     36          1           0       -1.512900    1.314417    2.170524
     37          6           0       -1.133396    1.434377    0.092324
     38          1           0       -1.574394    0.626650   -0.507614
     39          6           0        0.182470    1.851437   -0.597655
     40          6           0       -2.111092    2.601903    0.165206
     41          1           0       -2.279003    3.007688   -0.834312
     42          1           0       -3.059021    2.255932    0.582380
     43          1           0       -1.711998    3.407278    0.789863
     44          8           0        0.338132    2.883474   -1.247814
     45          7           0        1.162947    0.924497   -0.444411
     46          1           0        0.883598    0.019084   -0.041199
     47          6           0        2.511889    1.117649   -0.911630
     48          1           0        2.784359    2.173783   -0.826375
     49          6           0        2.527620    0.740683   -2.384188
     50          6           0        3.483535    0.262393   -0.073255
     51          1           0        4.480087    0.371933   -0.499696
     52          8           0        2.752672   -0.490854   -2.754614
     53          6           0        3.478057    0.655096    1.394673
     54          1           0        3.849221    1.678718    1.509492
     55          1           0        4.134948   -0.013041    1.956067
     56          1           0        2.472369    0.610106    1.821500
     57          8           0        3.152680   -1.140367   -0.271332
     58          1           0        2.380585   -1.386886    0.275483
     59          7           0        2.189810    1.631318   -3.275002
     60          1           0        1.915009    2.540697   -2.900543
     61          6           0        2.227239    1.462879   -4.741249
     62          1           0        1.892385    0.451995   -4.988624
     63          6           0        3.702756    1.688282   -5.155969
     64          6           0        1.313137    2.503863   -5.407630
     65          1           0        1.572870    3.502650   -5.026929
     66          1           0        0.271524    2.294081   -5.146024
     67          8           0        4.090836    2.791831   -5.508931
     68          8           0        1.431988    2.418150   -6.805901
     69          1           0        2.259353    2.867778   -7.047373
     70          7           0        4.501475    0.589286   -5.030483
     71          1           0        4.072760   -0.233016   -4.624440
     72          6           0        5.921541    0.739544   -4.780130
     73          1           0        6.487642   -0.046287   -5.290478
     74          1           0        6.231727    1.705756   -5.189305
     75          6           0        6.173662    0.719735   -3.260903
     76          8           0        5.289202    1.065037   -2.467227
     77          7           0        7.386540    0.297104   -2.864859
     78          1           0        8.110370    0.045499   -3.530449
     79          6           0        7.754704    0.225995   -1.455296
     80          1           0        7.408894    1.137987   -0.956850
     81          6           0        9.275001    0.173751   -1.401038
     82          6           0        7.110195   -1.003609   -0.758873
     83          1           0        6.095017   -1.088710   -1.161608
     84          1           0        7.642309   -1.913265   -1.064745
     85          8           0        9.979142   -0.068369   -2.357709
     86          6           0        7.035706   -0.905541    0.769064
     87          1           0        8.044527   -0.894328    1.196227
     88          1           0        6.580647    0.059071    1.041926
     89          6           0        6.214308   -2.048458    1.378224
     90          1           0        6.654575   -3.018906    1.118463
     91          1           0        5.205906   -2.042863    0.939756
     92          6           0        6.100580   -1.958739    2.902944
     93          1           0        7.092396   -2.103191    3.348777
     94          1           0        5.786327   -0.934250    3.186673
     95          7           0        5.221135   -3.016295    3.407672
     96          1           0        4.257025   -2.827339    3.135448
     97          1           0        5.233744   -3.030981    4.425652
     98          8           0        9.738819    0.396716   -0.160368
     99          1           0       10.711755    0.312200   -0.192638
    100          1           0        2.936810   -1.033017   -1.922570
 ---------------------------------------------------------------------

 SCF Done:  E(RB3LYP) =  -2418.57630221     A.U. after    1 cycles

 Alpha  occ. eigenvalues --  -19.34311 -19.29882 -19.29426 -19.23894 -19.23457
 Alpha  occ. eigenvalues --  -19.23433 -19.22906 -19.22835 -19.22823 -19.20898
 Alpha  occ. eigenvalues --  -19.20642 -14.52902 -14.46910 -14.46787 -14.46316
 Alpha  occ. eigenvalues --  -14.45767 -14.45458 -14.44952 -14.39727 -14.38089
 Alpha  occ. eigenvalues --  -10.46489 -10.41937 -10.39995 -10.39832 -10.39449
 Alpha  occ. eigenvalues --  -10.39445 -10.38321 -10.37774 -10.37029 -10.36850
 Alpha  occ. eigenvalues --  -10.35624 -10.33812 -10.33679 -10.33431 -10.33122
 Alpha  occ. eigenvalues --  -10.32453 -10.31427 -10.29060 -10.28298 -10.28261
 Alpha  occ. eigenvalues --  -10.27993 -10.27878 -10.26598 -10.26462 -10.26324
 Alpha  occ. eigenvalues --  -10.25736 -10.25331 -10.24179  -1.24874  -1.20447
 Alpha  occ. eigenvalues --   -1.16217  -1.15246  -1.14917  -1.14270  -1.14128
 Alpha  occ. eigenvalues --   -1.12812  -1.12089  -1.11587  -1.11194  -1.10012
 Alpha  occ. eigenvalues --   -1.04270  -1.03403  -1.03186  -1.02675  -1.01554
 Alpha  occ. eigenvalues --   -0.99545  -0.97224  -0.94856  -0.91798  -0.89829
 Alpha  occ. eigenvalues --   -0.89587  -0.88891  -0.86713  -0.85294  -0.84604
 Alpha  occ. eigenvalues --   -0.83357  -0.82370  -0.81564  -0.79389  -0.78534
 Alpha  occ. eigenvalues --   -0.77651  -0.75749  -0.75640  -0.74511  -0.73206
 Alpha  occ. eigenvalues --   -0.72513  -0.71954  -0.70513  -0.70086  -0.69388
 Alpha  occ. eigenvalues --   -0.68600  -0.68009  -0.67930  -0.67681  -0.67125
 Alpha  occ. eigenvalues --   -0.66873  -0.66115  -0.65085  -0.64382  -0.63962
 Alpha  occ. eigenvalues --   -0.62864  -0.62518  -0.62010  -0.61899  -0.61163
 Alpha  occ. eigenvalues --   -0.60240  -0.59695  -0.59164  -0.58564  -0.58530
 Alpha  occ. eigenvalues --   -0.58228  -0.57810  -0.57717  -0.57288  -0.57022
 Alpha  occ. eigenvalues --   -0.56716  -0.56236  -0.56100  -0.55321  -0.55127
 Alpha  occ. eigenvalues --   -0.54656  -0.54048  -0.53976  -0.53796  -0.53380
 Alpha  occ. eigenvalues --   -0.53290  -0.52701  -0.52563  -0.52326  -0.51971
 Alpha  occ. eigenvalues --   -0.51773  -0.51408  -0.51053  -0.50770  -0.50269
 Alpha  occ. eigenvalues --   -0.50024  -0.49693  -0.49633  -0.49385  -0.49212
 Alpha  occ. eigenvalues --   -0.49037  -0.48754  -0.48087  -0.47977  -0.47773
 Alpha  occ. eigenvalues --   -0.47754  -0.47573  -0.47227  -0.46953  -0.46623
 Alpha  occ. eigenvalues --   -0.46408  -0.45866  -0.45685  -0.45441  -0.45256
 Alpha  occ. eigenvalues --   -0.44862  -0.44478  -0.44326  -0.44195  -0.43407
 Alpha  occ. eigenvalues --   -0.42775  -0.42553  -0.42309  -0.41604  -0.40962
 Alpha  occ. eigenvalues --   -0.40604  -0.40325  -0.40182  -0.40115  -0.38561
 Alpha  occ. eigenvalues --   -0.38154  -0.37921  -0.37308  -0.37040  -0.36768
 Alpha  occ. eigenvalues --   -0.36258  -0.36129  -0.36020  -0.35611  -0.35358
 Alpha  occ. eigenvalues --   -0.35135  -0.34786  -0.33512  -0.31678  -0.30196
 Alpha virt. eigenvalues --   -0.15507  -0.10033  -0.09668  -0.08861  -0.08564
 Alpha virt. eigenvalues --   -0.07670  -0.07021  -0.05934  -0.05483  -0.02664
 Alpha virt. eigenvalues --   -0.01656  -0.01583  -0.01352  -0.01093  -0.00500

 Mulliken charges:
               1
     1  N   -0.711435
     2  H    0.312360
     3  H    0.321587
     4  C   -0.050999
     5  H    0.147497
     6  C    0.680621
     7  C   -0.388859
     8  H    0.150263
     9  H    0.200769
    10  O   -0.566431
    11  C    0.622904
    12  N   -0.743978
    13  H    0.351367
    14  H    0.353820
    15  O   -0.540928
    16  N   -0.593493
    17  H    0.346541
    18  C   -0.068585
    19  H    0.191222
    20  C    0.658030
    21  C   -0.097946
    22  H    0.145372
    23  O   -0.593779
    24  C   -0.255201
    25  H    0.146157
    26  H    0.140427
    27  C   -0.481192
    28  H    0.156620
    29  H    0.160756
    30  H    0.139390
    31  C   -0.463776
    32  H    0.164226
    33  H    0.146775
    34  H    0.164802
    35  N   -0.621101
    36  H    0.398146
    37  C   -0.062870
    38  H    0.210423
    39  C    0.628708
    40  C   -0.483023
    41  H    0.180153
    42  H    0.177313
    43  H    0.172649
    44  O   -0.533145
    45  N   -0.641073
    46  H    0.388242
    47  C   -0.068997
    48  H    0.210537
    49  C    0.711391
    50  C    0.055387
    51  H    0.225768
    52  O   -0.596989
    53  C   -0.499071
    54  H    0.179494
    55  H    0.199169
    56  H    0.174847
    57  O   -0.667326
    58  H    0.446352
    59  N   -0.561883
    60  H    0.399644
    61  C   -0.109746
    62  H    0.205713
    63  C    0.626610
    64  C   -0.043591
    65  H    0.160449
    66  H    0.173496
    67  O   -0.499344
    68  O   -0.603834
    69  H    0.421812
    70  N   -0.566731
    71  H    0.351747
    72  C   -0.260179
    73  H    0.188332
    74  H    0.238377
    75  C    0.620975
    76  O   -0.556313
    77  N   -0.610519
    78  H    0.365184
    79  C   -0.026422
    80  H    0.193229
    81  C    0.584905
    82  C   -0.276482
    83  H    0.155354
    84  H    0.161109
    85  O   -0.456405
    86  C   -0.276477
    87  H    0.166879
    88  H    0.126282
    89  C   -0.268236
    90  H    0.158659
    91  H    0.136834
    92  C   -0.145075
    93  H    0.152942
    94  H    0.108810
    95  N   -0.719376
    96  H    0.291305
    97  H    0.305359
    98  O   -0.554271
    99  H    0.430948
   100  H    0.480037
 Sum of Mulliken charges =   1.00000

 Dipole moment (field-independent basis, Debye):
    X=              5.5654    Y=             -0.3651    Z=             -1.2253  Tot=              5.7104
 Quadrupole moment (field-independent basis, Debye-Ang):
   XX=           -112.5541   YY=           -288.0620   ZZ=           -248.7771
   XY=              5.5601   XZ=            -22.6258   YZ=             -2.7892

 Normal termination of Gaussian 16 at Mon Jun  6 07:10:55 2022.
