 Gaussian 16, Revision C.01,
 Gaussian 16:  ES64L-G16RevC.01  3-Jul-2019

 ----------------------------------------------------------------------
 # B3LYP/6-31G* empiricaldispersion=gd3 guess=read geom=check nosymm in
 tegral(ultrafinegrid)
 ----------------------------------------------------------------------

 ------------------------------------------------------
 Candidate Structure: Conf:404 Charge calc in gas phase
 ------------------------------------------------------
 Structure from the checkpoint file:  "conf-404.chk"
 Charge =  1 Multiplicity = 1

                          Input orientation:
 ---------------------------------------------------------------------
 Center     Atomic      Atomic             Coordinates (Angstroms)
 Number     Number       Type             X           Y           Z
 ---------------------------------------------------------------------
      1          7           0       -6.966339   -0.046824    1.145216
      2          1           0       -6.554564    0.592517    0.465189
      3          1           0       -7.240124    0.537318    1.934034
      4          6           0       -5.919066   -0.958007    1.576487
      5          1           0       -6.339861   -1.624316    2.341398
      6          6           0       -4.720954   -0.220464    2.220141
      7          6           0       -5.467891   -1.834528    0.385666
      8          1           0       -5.049537   -2.791316    0.722947
      9          1           0       -6.365684   -2.071106   -0.196821
     10          8           0       -4.787340    0.972308    2.519771
     11          6           0       -4.471619   -1.103049   -0.512887
     12          7           0       -3.582208   -1.883969   -1.179363
     13          1           0       -2.955163   -1.429340   -1.837098
     14          1           0       -3.701971   -2.884889   -1.240039
     15          8           0       -4.444222    0.125935   -0.586747
     16          7           0       -3.579314   -0.941324    2.437733
     17          1           0       -3.494329   -1.875000    2.060265
     18          6           0       -2.350314   -0.300185    2.915957
     19          1           0       -2.672295    0.506951    3.582610
     20          6           0       -1.665330    0.338250    1.687984
     21          6           0       -1.428200   -1.266103    3.685022
     22          1           0       -1.012732   -1.980856    2.959797
     23          8           0       -0.590668   -0.119415    1.212994
     24          6           0       -2.216628   -2.047041    4.757268
     25          1           0       -3.074000   -2.546079    4.291254
     26          1           0       -2.641066   -1.332935    5.477015
     27          6           0       -0.263197   -0.481092    4.311608
     28          1           0       -0.630976    0.199420    5.089568
     29          1           0        0.458041   -1.158942    4.775091
     30          1           0        0.282764    0.109528    3.572015
     31          6           0       -1.381810   -3.098241    5.497658
     32          1           0       -2.016150   -3.690679    6.164841
     33          1           0       -0.901836   -3.789201    4.793109
     34          1           0       -0.596207   -2.646291    6.111146
     35          7           0       -2.318493    1.352500    1.123486
     36          1           0       -3.226792    1.599242    1.524235
     37          6           0       -1.980223    1.904008   -0.193986
     38          1           0       -2.162484    1.130845   -0.946836
     39          6           0       -0.502132    2.277090   -0.163938
     40          6           0       -2.864965    3.118690   -0.477162
     41          1           0       -2.637395    3.528565   -1.465397
     42          1           0       -3.912145    2.803999   -0.469031
     43          1           0       -2.702344    3.896490    0.274541
     44          8           0       -0.036081    2.982906    0.755678
     45          7           0        0.287738    1.737302   -1.109327
     46          1           0       -0.092544    1.092620   -1.799771
     47          6           0        1.736717    1.882745   -1.067181
     48          1           0        1.979717    2.933166   -0.869409
     49          6           0        2.281031    1.440836   -2.434031
     50          6           0        2.383557    0.996189    0.048048
     51          1           0        2.310917   -0.066210   -0.188259
     52          8           0        1.582817    0.744354   -3.175700
     53          6           0        3.807341    1.344037    0.424981
     54          1           0        4.492611    1.065959   -0.377222
     55          1           0        4.077794    0.749613    1.298789
     56          1           0        3.918102    2.410253    0.654050
     57          8           0        1.571773    1.149758    1.294284
     58          1           0        1.122717    2.080322    1.280867
     59          7           0        3.541587    1.797383   -2.739338
     60          1           0        4.116792    2.250398   -2.037908
     61          6           0        4.287665    1.097005   -3.781684
     62          1           0        3.897815    1.373897   -4.767277
     63          6           0        4.185636   -0.422826   -3.545742
     64          6           0        5.769941    1.521427   -3.659174
     65          1           0        5.871606    2.574878   -3.936421
     66          1           0        6.372932    0.924574   -4.357560
     67          8           0        4.428366   -0.890268   -2.428151
     68          8           0        6.221244    1.412811   -2.321598
     69          1           0        6.130460    0.478707   -2.058430
     70          7           0        3.866772   -1.177274   -4.622363
     71          1           0        3.572412   -0.706146   -5.467901
     72          6           0        3.633565   -2.613347   -4.527689
     73          1           0        3.839947   -3.082222   -5.492197
     74          1           0        4.329665   -3.028306   -3.795478
     75          6           0        2.218333   -3.029261   -4.081015
     76          8           0        1.925761   -4.213749   -4.019814
     77          7           0        1.384720   -2.007526   -3.750215
     78          1           0        1.726453   -1.054760   -3.740697
     79          6           0        0.112898   -2.239091   -3.087771
     80          1           0       -0.208560   -3.239076   -3.403889
     81          6           0       -0.897875   -1.229705   -3.628468
     82          6           0        0.192690   -2.176132   -1.547208
     83          1           0        0.162032   -1.132710   -1.218131
     84          1           0       -0.713376   -2.635266   -1.131644
     85          8           0       -1.572477   -0.476967   -2.939029
     86          6           0        1.450652   -2.843191   -0.984344
     87          1           0        1.549750   -3.864331   -1.371093
     88          1           0        2.314357   -2.290432   -1.372495
     89          6           0        1.488614   -2.849195    0.550420
     90          1           0        0.826830   -3.638234    0.932699
     91          1           0        1.096120   -1.903603    0.942654
     92          6           0        2.899886   -3.054830    1.109316
     93          1           0        2.847788   -3.092376    2.203433
     94          1           0        3.292237   -4.030214    0.775084
     95          7           0        3.775969   -1.922535    0.746489
     96          1           0        4.069525   -1.996836   -0.227199
     97          1           0        4.634443   -1.973918    1.292623
     98          8           0       -0.979206   -1.244231   -4.962326
     99          1           0       -1.642579   -0.576162   -5.223629
    100          1           0        0.728147    0.522392    1.278487
 ---------------------------------------------------------------------

 SCF Done:  E(RB3LYP) =  -2418.59794057     A.U. after    3 cycles

 Alpha  occ. eigenvalues --  -19.35293 -19.30776 -19.26274 -19.25991 -19.25805
 Alpha  occ. eigenvalues --  -19.25261 -19.25060 -19.24497 -19.21191 -19.21103
 Alpha  occ. eigenvalues --  -19.20216 -14.49634 -14.49450 -14.48980 -14.47429
 Alpha  occ. eigenvalues --  -14.46182 -14.44911 -14.44872 -14.39844 -14.38159
 Alpha  occ. eigenvalues --  -10.43638 -10.43240 -10.42034 -10.41450 -10.41037
 Alpha  occ. eigenvalues --  -10.39005 -10.38666 -10.37968 -10.37937 -10.37798
 Alpha  occ. eigenvalues --  -10.36169 -10.35519 -10.34331 -10.33603 -10.33369
 Alpha  occ. eigenvalues --  -10.33222 -10.31277 -10.29262 -10.29101 -10.28676
 Alpha  occ. eigenvalues --  -10.28527 -10.27809 -10.27783 -10.26376 -10.26351
 Alpha  occ. eigenvalues --  -10.26093 -10.26021 -10.24882  -1.22854  -1.22097
 Alpha  occ. eigenvalues --   -1.18458  -1.16791  -1.16165  -1.15770  -1.13386
 Alpha  occ. eigenvalues --   -1.13324  -1.12877  -1.12535  -1.12413  -1.06104
 Alpha  occ. eigenvalues --   -1.05898  -1.04984  -1.04246  -1.02245  -1.01933
 Alpha  occ. eigenvalues --   -0.99762  -0.96417  -0.96177  -0.92958  -0.90246
 Alpha  occ. eigenvalues --   -0.89374  -0.88554  -0.88443  -0.85231  -0.84963
 Alpha  occ. eigenvalues --   -0.84185  -0.82628  -0.82297  -0.79181  -0.78842
 Alpha  occ. eigenvalues --   -0.76741  -0.76307  -0.75106  -0.74457  -0.73496
 Alpha  occ. eigenvalues --   -0.72950  -0.72798  -0.71869  -0.71303  -0.70934
 Alpha  occ. eigenvalues --   -0.69639  -0.69393  -0.68591  -0.68499  -0.67385
 Alpha  occ. eigenvalues --   -0.66789  -0.66314  -0.66029  -0.65234  -0.64344
 Alpha  occ. eigenvalues --   -0.63461  -0.63145  -0.62901  -0.62388  -0.61921
 Alpha  occ. eigenvalues --   -0.61276  -0.60867  -0.59985  -0.59380  -0.59213
 Alpha  occ. eigenvalues --   -0.59017  -0.58323  -0.57727  -0.57322  -0.57091
 Alpha  occ. eigenvalues --   -0.56595  -0.56478  -0.55981  -0.55543  -0.55461
 Alpha  occ. eigenvalues --   -0.55156  -0.54860  -0.54489  -0.54256  -0.53928
 Alpha  occ. eigenvalues --   -0.53778  -0.53558  -0.53437  -0.53035  -0.52924
 Alpha  occ. eigenvalues --   -0.52298  -0.51920  -0.51774  -0.51262  -0.51005
 Alpha  occ. eigenvalues --   -0.50654  -0.50499  -0.50392  -0.50045  -0.49809
 Alpha  occ. eigenvalues --   -0.49301  -0.48967  -0.48812  -0.48580  -0.48127
 Alpha  occ. eigenvalues --   -0.47939  -0.47900  -0.47723  -0.47042  -0.46897
 Alpha  occ. eigenvalues --   -0.46685  -0.46440  -0.46399  -0.45854  -0.45727
 Alpha  occ. eigenvalues --   -0.45306  -0.45230  -0.44435  -0.44156  -0.43953
 Alpha  occ. eigenvalues --   -0.43298  -0.42118  -0.41817  -0.41339  -0.41010
 Alpha  occ. eigenvalues --   -0.40959  -0.40849  -0.40813  -0.40393  -0.39904
 Alpha  occ. eigenvalues --   -0.39714  -0.39378  -0.39258  -0.39076  -0.38549
 Alpha  occ. eigenvalues --   -0.37850  -0.37287  -0.36306  -0.35478  -0.34825
 Alpha  occ. eigenvalues --   -0.34599  -0.34565  -0.33546  -0.32413  -0.31387
 Alpha virt. eigenvalues --   -0.12970  -0.12287  -0.11481  -0.11149  -0.10403
 Alpha virt. eigenvalues --   -0.07205  -0.06839  -0.06464  -0.04367  -0.03947
 Alpha virt. eigenvalues --   -0.03376  -0.03032  -0.02597  -0.01342  -0.00905

 Mulliken charges:
               1
     1  N   -0.695487
     2  H    0.322191
     3  H    0.318677
     4  C   -0.065094
     5  H    0.177245
     6  C    0.602425
     7  C   -0.396767
     8  H    0.147381
     9  H    0.222057
    10  O   -0.539109
    11  C    0.604746
    12  N   -0.786796
    13  H    0.392051
    14  H    0.342675
    15  O   -0.528154
    16  N   -0.601231
    17  H    0.337311
    18  C   -0.054407
    19  H    0.200957
    20  C    0.646722
    21  C   -0.099161
    22  H    0.139806
    23  O   -0.632906
    24  C   -0.253672
    25  H    0.132271
    26  H    0.146983
    27  C   -0.466282
    28  H    0.158435
    29  H    0.169083
    30  H    0.134278
    31  C   -0.453004
    32  H    0.162910
    33  H    0.142569
    34  H    0.158633
    35  N   -0.583047
    36  H    0.405941
    37  C   -0.028444
    38  H    0.213079
    39  C    0.622117
    40  C   -0.496408
    41  H    0.172529
    42  H    0.207185
    43  H    0.188951
    44  O   -0.584951
    45  N   -0.609610
    46  H    0.399371
    47  C   -0.107736
    48  H    0.207300
    49  C    0.648214
    50  C    0.090396
    51  H    0.234847
    52  O   -0.553664
    53  C   -0.482193
    54  H    0.182944
    55  H    0.212172
    56  H    0.163429
    57  O   -0.678956
    58  H    0.479405
    59  N   -0.591692
    60  H    0.372280
    61  C   -0.058293
    62  H    0.176543
    63  C    0.607861
    64  C   -0.080464
    65  H    0.188908
    66  H    0.171944
    67  O   -0.547269
    68  O   -0.612190
    69  H    0.423421
    70  N   -0.594503
    71  H    0.354695
    72  C   -0.241826
    73  H    0.208646
    74  H    0.222683
    75  C    0.614202
    76  O   -0.503213
    77  N   -0.639674
    78  H    0.396580
    79  C   -0.041746
    80  H    0.212466
    81  C    0.594263
    82  C   -0.272333
    83  H    0.137330
    84  H    0.141518
    85  O   -0.502001
    86  C   -0.296177
    87  H    0.171842
    88  H    0.138608
    89  C   -0.268613
    90  H    0.135813
    91  H    0.147715
    92  C   -0.145901
    93  H    0.146329
    94  H    0.135782
    95  N   -0.762427
    96  H    0.330411
    97  H    0.309220
    98  O   -0.531301
    99  H    0.426807
   100  H    0.533548
 Sum of Mulliken charges =   1.00000

 Dipole moment (field-independent basis, Debye):
    X=              4.8060    Y=             -0.7170    Z=             -6.3008  Tot=              7.9569
 Quadrupole moment (field-independent basis, Debye-Ang):
   XX=           -226.1699   YY=           -268.9091   ZZ=           -214.9798
   XY=             22.3540   XZ=            -31.9689   YZ=            -20.3750

 Normal termination of Gaussian 16 at Mon Jun  6 07:12:01 2022.
