 Gaussian 16, Revision C.01,
 Gaussian 16:  ES64L-G16RevC.01  3-Jul-2019

 ----------------------------------------------------------------------
 # B3LYP/6-31G* empiricaldispersion=gd3 guess=read geom=check nosymm in
 tegral(ultrafinegrid)
 ----------------------------------------------------------------------

 ------------------------------------------------------
 Candidate Structure: Conf:446 Charge calc in gas phase
 ------------------------------------------------------
 Structure from the checkpoint file:  "conf-446.chk"
 Charge =  1 Multiplicity = 1

                          Input orientation:
 ---------------------------------------------------------------------
 Center     Atomic      Atomic             Coordinates (Angstroms)
 Number     Number       Type             X           Y           Z
 ---------------------------------------------------------------------
      1          7           0       -4.415863    5.158031    3.532710
      2          1           0       -3.859673    4.898380    4.345474
      3          1           0       -5.108763    5.844105    3.818143
      4          6           0       -5.063292    3.967072    2.978865
      5          1           0       -6.089525    3.828532    3.352835
      6          6           0       -4.255053    2.723089    3.383760
      7          6           0       -5.132178    4.074300    1.426746
      8          1           0       -5.778030    3.304636    0.996090
      9          1           0       -5.566852    5.048094    1.178316
     10          8           0       -3.250553    2.802622    4.094837
     11          6           0       -3.749693    3.923372    0.788381
     12          7           0       -2.889915    4.927899    1.088406
     13          1           0       -1.930442    4.847397    0.779507
     14          1           0       -3.114213    5.514107    1.893155
     15          8           0       -3.463799    2.951097    0.087080
     16          7           0       -4.704767    1.535504    2.895386
     17          1           0       -5.408330    1.540823    2.168525
     18          6           0       -3.933758    0.298632    3.052351
     19          1           0       -3.454444    0.354639    4.033157
     20          6           0       -2.846771    0.340965    1.960247
     21          6           0       -4.828408   -0.948705    2.980097
     22          1           0       -5.205798   -1.019356    1.950624
     23          8           0       -3.003797   -0.236291    0.859650
     24          6           0       -6.046038   -0.838215    3.926015
     25          1           0       -6.623319   -1.765759    3.825918
     26          1           0       -6.705801   -0.035290    3.575198
     27          6           0       -3.995460   -2.209761    3.260697
     28          1           0       -3.516867   -2.168774    4.245356
     29          1           0       -4.633368   -3.098826    3.236742
     30          1           0       -3.210567   -2.349248    2.511732
     31          6           0       -5.714823   -0.598043    5.404184
     32          1           0       -6.632969   -0.582113    5.999937
     33          1           0       -5.073825   -1.385207    5.815387
     34          1           0       -5.210711    0.363219    5.557836
     35          7           0       -1.789177    1.111393    2.248964
     36          1           0       -1.852801    1.622394    3.129455
     37          6           0       -0.837640    1.664431    1.259528
     38          1           0       -1.439000    2.102775    0.454629
     39          6           0        0.043142    0.525351    0.710784
     40          6           0        0.013937    2.731311    1.939524
     41          1           0        0.660701    3.217808    1.203792
     42          1           0       -0.628397    3.489306    2.399436
     43          1           0        0.654224    2.281539    2.703097
     44          8           0        1.081947    0.157857    1.231485
     45          7           0       -0.481995   -0.064187   -0.417699
     46          1           0       -1.441162    0.188547   -0.631199
     47          6           0       -0.053272   -1.389272   -0.830979
     48          1           0        1.026819   -1.460764   -0.677317
     49          6           0       -0.442561   -1.534906   -2.305862
     50          6           0       -0.737879   -2.523565   -0.022465
     51          1           0       -0.504278   -3.487111   -0.484460
     52          8           0       -1.647977   -1.817206   -2.570921
     53          6           0       -0.456483   -2.565148    1.464005
     54          1           0        0.618865   -2.674877    1.626058
     55          1           0       -0.975065   -3.416621    1.912779
     56          1           0       -0.769884   -1.648475    1.966057
     57          8           0       -2.215342   -2.392806   -0.234799
     58          1           0       -2.586339   -1.574784    0.280072
     59          7           0        0.482318   -1.327981   -3.221893
     60          1           0        1.429164   -1.035362   -2.961375
     61          6           0        0.301350   -1.359253   -4.674866
     62          1           0        0.016127   -2.372388   -4.984632
     63          6           0        1.702817   -1.022466   -5.234278
     64          6           0       -0.816498   -0.401108   -5.185281
     65          1           0       -0.573054   -0.076906   -6.201285
     66          1           0       -0.814434    0.497848   -4.548001
     67          8           0        2.604467   -0.665868   -4.478091
     68          8           0       -2.069685   -1.027844   -5.262915
     69          1           0       -2.305869   -1.316101   -4.363720
     70          7           0        1.845265   -1.156198   -6.572471
     71          1           0        1.063268   -1.490758   -7.120837
     72          6           0        3.093012   -0.852174   -7.267042
     73          1           0        2.878293   -0.303336   -8.187167
     74          1           0        3.686833   -0.203748   -6.618771
     75          6           0        3.967142   -2.058284   -7.647612
     76          8           0        4.910068   -1.898508   -8.407764
     77          7           0        3.620964   -3.250881   -7.095017
     78          1           0        2.912853   -3.283777   -6.376591
     79          6           0        4.451451   -4.436058   -7.280956
     80          1           0        4.839329   -4.411787   -8.301752
     81          6           0        3.619550   -5.698566   -7.143339
     82          6           0        5.643126   -4.461520   -6.291878
     83          1           0        6.165417   -3.506598   -6.422323
     84          1           0        5.247802   -4.478882   -5.266933
     85          8           0        3.841602   -6.740475   -7.709258
     86          6           0        6.617444   -5.624364   -6.505419
     87          1           0        6.086332   -6.575486   -6.386595
     88          1           0        6.988429   -5.599887   -7.540189
     89          6           0        7.798894   -5.572517   -5.529144
     90          1           0        7.421517   -5.620065   -4.499013
     91          1           0        8.324222   -4.613525   -5.641184
     92          6           0        8.802278   -6.713448   -5.729595
     93          1           0        9.256099   -6.621385   -6.733895
     94          1           0        9.617515   -6.593363   -5.006343
     95          7           0        8.174991   -8.019184   -5.479346
     96          1           0        8.894638   -8.736346   -5.409613
     97          1           0        7.601121   -8.285468   -6.277724
     98          8           0        2.611965   -5.555650   -6.232513
     99          1           0        2.172206   -6.425457   -6.178776
    100          1           0       -2.271187   -2.189839   -1.271295
 ---------------------------------------------------------------------

 SCF Done:  E(RB3LYP) =  -2418.55276166     A.U. after    2 cycles

 Alpha  occ. eigenvalues --  -19.36465 -19.28904 -19.27495 -19.26022 -19.23836
 Alpha  occ. eigenvalues --  -19.23810 -19.23606 -19.23316 -19.21236 -19.20657
 Alpha  occ. eigenvalues --  -19.18310 -14.50893 -14.48777 -14.48369 -14.48027
 Alpha  occ. eigenvalues --  -14.47955 -14.43726 -14.43586 -14.42166 -14.35054
 Alpha  occ. eigenvalues --  -10.44678 -10.42246 -10.40968 -10.40509 -10.40494
 Alpha  occ. eigenvalues --  -10.40473 -10.39326 -10.38177 -10.38068 -10.36216
 Alpha  occ. eigenvalues --  -10.35848 -10.34631 -10.34407 -10.34390 -10.34020
 Alpha  occ. eigenvalues --  -10.31774 -10.30841 -10.30628 -10.29669 -10.29514
 Alpha  occ. eigenvalues --  -10.28313 -10.27521 -10.27391 -10.25785 -10.25047
 Alpha  occ. eigenvalues --  -10.24661 -10.23189 -10.22340  -1.23975  -1.19203
 Alpha  occ. eigenvalues --   -1.17963  -1.17120  -1.15877  -1.15630  -1.15421
 Alpha  occ. eigenvalues --   -1.12029  -1.11381  -1.10611  -1.08999  -1.07386
 Alpha  occ. eigenvalues --   -1.05545  -1.05233  -1.04122  -1.04001  -1.00101
 Alpha  occ. eigenvalues --   -0.99951  -0.98277  -0.93289  -0.91775  -0.91604
 Alpha  occ. eigenvalues --   -0.89508  -0.88731  -0.86442  -0.86354  -0.85038
 Alpha  occ. eigenvalues --   -0.83137  -0.82370  -0.80764  -0.80070  -0.78368
 Alpha  occ. eigenvalues --   -0.77559  -0.76380  -0.74912  -0.74789  -0.73669
 Alpha  occ. eigenvalues --   -0.73401  -0.71903  -0.71197  -0.70156  -0.69946
 Alpha  occ. eigenvalues --   -0.69664  -0.69541  -0.67790  -0.67503  -0.66894
 Alpha  occ. eigenvalues --   -0.66242  -0.66097  -0.65609  -0.64465  -0.63747
 Alpha  occ. eigenvalues --   -0.63105  -0.62701  -0.62536  -0.62140  -0.61821
 Alpha  occ. eigenvalues --   -0.61641  -0.60728  -0.60269  -0.59936  -0.59327
 Alpha  occ. eigenvalues --   -0.58190  -0.57445  -0.57234  -0.56784  -0.56148
 Alpha  occ. eigenvalues --   -0.55904  -0.55601  -0.55343  -0.55239  -0.54987
 Alpha  occ. eigenvalues --   -0.54953  -0.54257  -0.54245  -0.53374  -0.53095
 Alpha  occ. eigenvalues --   -0.52902  -0.52680  -0.52408  -0.52232  -0.52098
 Alpha  occ. eigenvalues --   -0.51996  -0.51583  -0.51482  -0.51111  -0.51054
 Alpha  occ. eigenvalues --   -0.50782  -0.50660  -0.50336  -0.50122  -0.49191
 Alpha  occ. eigenvalues --   -0.49087  -0.48903  -0.48703  -0.48487  -0.48208
 Alpha  occ. eigenvalues --   -0.47995  -0.47818  -0.47521  -0.47332  -0.47229
 Alpha  occ. eigenvalues --   -0.46919  -0.46717  -0.46118  -0.45937  -0.45728
 Alpha  occ. eigenvalues --   -0.44645  -0.44557  -0.43554  -0.42595  -0.42551
 Alpha  occ. eigenvalues --   -0.42284  -0.41975  -0.41872  -0.41158  -0.41150
 Alpha  occ. eigenvalues --   -0.40383  -0.40271  -0.39527  -0.38717  -0.38503
 Alpha  occ. eigenvalues --   -0.38289  -0.38099  -0.37707  -0.37613  -0.37514
 Alpha  occ. eigenvalues --   -0.36840  -0.36217  -0.36000  -0.35633  -0.35183
 Alpha  occ. eigenvalues --   -0.34958  -0.33804  -0.32450  -0.31497  -0.27391
 Alpha virt. eigenvalues --   -0.13702  -0.12580  -0.10459  -0.09477  -0.09334
 Alpha virt. eigenvalues --   -0.07061  -0.06595  -0.05550  -0.04439  -0.03575
 Alpha virt. eigenvalues --   -0.03006  -0.02590  -0.01909  -0.01274  -0.01014

 Mulliken charges:
               1
     1  N   -0.750551
     2  H    0.345928
     3  H    0.327759
     4  C   -0.078074
     5  H    0.176850
     6  C    0.619215
     7  C   -0.356663
     8  H    0.165249
     9  H    0.192501
    10  O   -0.541765
    11  C    0.572270
    12  N   -0.727911
    13  H    0.338595
    14  H    0.380841
    15  O   -0.531772
    16  N   -0.592439
    17  H    0.352876
    18  C   -0.060772
    19  H    0.194434
    20  C    0.670253
    21  C   -0.106466
    22  H    0.146065
    23  O   -0.631169
    24  C   -0.256073
    25  H    0.154754
    26  H    0.133923
    27  C   -0.473521
    28  H    0.162321
    29  H    0.172462
    30  H    0.132449
    31  C   -0.464722
    32  H    0.167954
    33  H    0.157448
    34  H    0.153436
    35  N   -0.602022
    36  H    0.392554
    37  C   -0.070605
    38  H    0.216497
    39  C    0.627914
    40  C   -0.500225
    41  H    0.180010
    42  H    0.168692
    43  H    0.198076
    44  O   -0.497319
    45  N   -0.606475
    46  H    0.361495
    47  C   -0.100645
    48  H    0.220339
    49  C    0.688442
    50  C    0.068542
    51  H    0.204600
    52  O   -0.627066
    53  C   -0.479652
    54  H    0.209470
    55  H    0.194968
    56  H    0.185233
    57  O   -0.666069
    58  H    0.508792
    59  N   -0.614101
    60  H    0.390749
    61  C   -0.073354
    62  H    0.203287
    63  C    0.595152
    64  C   -0.034430
    65  H    0.169685
    66  H    0.151759
    67  O   -0.512428
    68  O   -0.616961
    69  H    0.425969
    70  N   -0.615084
    71  H    0.355497
    72  C   -0.240428
    73  H    0.206048
    74  H    0.230665
    75  C    0.612203
    76  O   -0.500255
    77  N   -0.616630
    78  H    0.339389
    79  C   -0.035457
    80  H    0.209958
    81  C    0.588664
    82  C   -0.271328
    83  H    0.174743
    84  H    0.135017
    85  O   -0.442947
    86  C   -0.279004
    87  H    0.158276
    88  H    0.144193
    89  C   -0.237478
    90  H    0.137674
    91  H    0.130189
    92  C   -0.146347
    93  H    0.120218
    94  H    0.142660
    95  N   -0.721796
    96  H    0.302338
    97  H    0.300988
    98  O   -0.595654
    99  H    0.418819
   100  H    0.488311
 Sum of Mulliken charges =   1.00000

 Dipole moment (field-independent basis, Debye):
    X=            -11.1216    Y=             -0.8340    Z=              1.7284  Tot=             11.2860
 Quadrupole moment (field-independent basis, Debye-Ang):
   XX=           -220.7453   YY=           -217.7815   ZZ=           -239.6729
   XY=            -36.6992   XZ=            -44.5736   YZ=             33.7341

 Normal termination of Gaussian 16 at Mon Jun  6 07:11:07 2022.
