 Gaussian 16, Revision C.01,
 Gaussian 16:  ES64L-G16RevC.01  3-Jul-2019

 ----------------------------------------------------------------------
 # B3LYP/6-31G* empiricaldispersion=gd3 guess=read geom=check nosymm in
 tegral(ultrafinegrid)
 ----------------------------------------------------------------------

 ------------------------------------------------------
 Candidate Structure: Conf:156 Charge calc in gas phase
 ------------------------------------------------------
 Structure from the checkpoint file:  "conf-156.chk"
 Charge =  1 Multiplicity = 1

                          Input orientation:
 ---------------------------------------------------------------------
 Center     Atomic      Atomic             Coordinates (Angstroms)
 Number     Number       Type             X           Y           Z
 ---------------------------------------------------------------------
      1          7           0       -4.244349   -2.544437    3.888978
      2          1           0       -5.125475   -2.040868    3.779412
      3          1           0       -3.945713   -2.393643    4.851436
      4          6           0       -3.268223   -1.973938    2.963862
      5          1           0       -2.282576   -2.384536    3.217934
      6          6           0       -3.240035   -0.439005    3.038067
      7          6           0       -3.644520   -2.419321    1.532494
      8          1           0       -3.743156   -3.508229    1.529657
      9          1           0       -4.625124   -1.988042    1.296666
     10          8           0       -4.279281    0.211006    2.886680
     11          6           0       -2.668049   -1.911576    0.487666
     12          7           0       -2.100721   -2.805806   -0.337739
     13          1           0       -1.439220   -2.467463   -1.033338
     14          1           0       -2.314392   -3.790384   -0.283927
     15          8           0       -2.411620   -0.696407    0.422453
     16          7           0       -2.044527    0.140031    3.335873
     17          1           0       -1.210812   -0.420596    3.223608
     18          6           0       -1.875789    1.594577    3.319782
     19          1           0       -2.816221    1.997568    3.702998
     20          6           0       -1.749222    2.039486    1.845405
     21          6           0       -0.740875    2.061619    4.257337
     22          1           0       -1.098489    1.800475    5.263710
     23          8           0       -0.618681    2.271715    1.360707
     24          6           0       -0.558064    3.594027    4.213529
     25          1           0       -0.090146    3.872587    3.262224
     26          1           0        0.160483    3.857884    4.999261
     27          6           0        0.601836    1.343813    4.040644
     28          1           0        0.987790    1.516623    3.033390
     29          1           0        1.338223    1.718049    4.759599
     30          1           0        0.529267    0.261992    4.207763
     31          6           0       -1.844294    4.404496    4.417327
     32          1           0       -1.616342    5.470619    4.515520
     33          1           0       -2.537367    4.301177    3.573533
     34          1           0       -2.373761    4.093234    5.326226
     35          7           0       -2.926833    2.096107    1.211476
     36          1           0       -3.697856    1.716701    1.767984
     37          6           0       -3.267194    2.178205   -0.224082
     38          1           0       -3.745832    1.221282   -0.457064
     39          6           0       -2.022553    2.303485   -1.103100
     40          6           0       -4.233863    3.336064   -0.468832
     41          1           0       -4.570576    3.334793   -1.509771
     42          1           0       -5.109934    3.233719    0.178765
     43          1           0       -3.743598    4.290372   -0.265752
     44          8           0       -1.657594    3.418119   -1.538974
     45          7           0       -1.344707    1.173101   -1.351012
     46          1           0       -1.603997    0.301900   -0.859071
     47          6           0       -0.142884    1.179029   -2.169342
     48          1           0       -0.325515    1.815467   -3.044215
     49          6           0        0.146934   -0.268773   -2.611868
     50          6           0        1.088471    1.753699   -1.398869
     51          1           0        1.402221    1.053940   -0.623200
     52          8           0       -0.302209   -1.225263   -1.990215
     53          6           0        2.258541    2.198996   -2.254945
     54          1           0        2.718751    1.347541   -2.755960
     55          1           0        3.020254    2.649822   -1.614305
     56          1           0        1.937859    2.936092   -3.000445
     57          8           0        0.635117    2.969063   -0.655459
     58          1           0       -0.120843    3.412337   -1.195505
     59          7           0        0.934397   -0.389599   -3.706287
     60          1           0        1.348851    0.449033   -4.099419
     61          6           0        1.784794   -1.556219   -3.877389
     62          1           0        1.170316   -2.461858   -3.898815
     63          6           0        2.764621   -1.636905   -2.671391
     64          6           0        2.535407   -1.369854   -5.202625
     65          1           0        1.806277   -1.409962   -6.027781
     66          1           0        3.245385   -2.197132   -5.358430
     67          8           0        2.679065   -0.857466   -1.718680
     68          8           0        3.175878   -0.119516   -5.114955
     69          1           0        3.819841   -0.008552   -5.884228
     70          7           0        3.697800   -2.610938   -2.719639
     71          1           0        3.808298   -3.157284   -3.562110
     72          6           0        4.733636   -2.734169   -1.691209
     73          1           0        4.258393   -2.601848   -0.715164
     74          1           0        5.168612   -3.731646   -1.752948
     75          6           0        5.875411   -1.716554   -1.892287
     76          8           0        6.971783   -2.064228   -2.311051
     77          7           0        5.537845   -0.434921   -1.578632
     78          1           0        4.578464   -0.239166   -1.312482
     79          6           0        6.469311    0.668318   -1.746826
     80          1           0        7.476920    0.248908   -1.707720
     81          6           0        6.358150    1.672119   -0.610060
     82          6           0        6.300422    1.430708   -3.084137
     83          1           0        5.336193    1.958363   -3.083164
     84          1           0        7.084506    2.197881   -3.122181
     85          8           0        7.266589    2.352596   -0.202401
     86          6           0        6.381242    0.517681   -4.312122
     87          1           0        7.235480   -0.162553   -4.212774
     88          1           0        5.483167   -0.106516   -4.346038
     89          6           0        6.512945    1.319242   -5.614497
     90          1           0        7.497461    1.802947   -5.641839
     91          1           0        5.774639    2.135357   -5.635546
     92          6           0        6.343372    0.466286   -6.878014
     93          1           0        6.870129    0.928201   -7.724489
     94          1           0        6.790784   -0.521772   -6.721568
     95          7           0        4.905354    0.262790   -7.197308
     96          1           0        4.812611   -0.433119   -7.937526
     97          1           0        4.532616    1.128331   -7.590534
     98          8           0        5.080352    1.792701   -0.142208
     99          1           0        5.115006    2.472693    0.557377
    100          1           0        0.100891    2.683994    0.218601
 ---------------------------------------------------------------------

 SCF Done:  E(RB3LYP) =  -2418.60118885     A.U. after    1 cycles

 Alpha  occ. eigenvalues --  -19.33934 -19.27970 -19.25304 -19.24495 -19.23627
 Alpha  occ. eigenvalues --  -19.22760 -19.22625 -19.22118 -19.21684 -19.21639
 Alpha  occ. eigenvalues --  -19.18852 -14.47391 -14.47383 -14.47210 -14.46753
 Alpha  occ. eigenvalues --  -14.46294 -14.45443 -14.43235 -14.43092 -14.40430
 Alpha  occ. eigenvalues --  -10.41181 -10.41124 -10.40906 -10.39758 -10.39650
 Alpha  occ. eigenvalues --  -10.39480 -10.38328 -10.38151 -10.36322 -10.36022
 Alpha  occ. eigenvalues --  -10.34380 -10.34291 -10.34068 -10.33108 -10.32406
 Alpha  occ. eigenvalues --  -10.31754 -10.31101 -10.29796 -10.28985 -10.28536
 Alpha  occ. eigenvalues --  -10.28323 -10.27100 -10.26508 -10.26120 -10.26041
 Alpha  occ. eigenvalues --  -10.25926 -10.25066 -10.25046  -1.21660  -1.18388
 Alpha  occ. eigenvalues --   -1.16109  -1.15914  -1.15440  -1.14335  -1.13769
 Alpha  occ. eigenvalues --   -1.13101  -1.10753  -1.10509  -1.09435  -1.04736
 Alpha  occ. eigenvalues --   -1.03983  -1.03661  -1.02895  -1.02404  -1.00437
 Alpha  occ. eigenvalues --   -0.99966  -0.98594  -0.97995  -0.91614  -0.89985
 Alpha  occ. eigenvalues --   -0.88095  -0.87979  -0.87020  -0.85530  -0.84195
 Alpha  occ. eigenvalues --   -0.82992  -0.81933  -0.80790  -0.80114  -0.77484
 Alpha  occ. eigenvalues --   -0.75820  -0.75085  -0.74669  -0.73430  -0.72604
 Alpha  occ. eigenvalues --   -0.71459  -0.70976  -0.70846  -0.69969  -0.69625
 Alpha  occ. eigenvalues --   -0.69276  -0.68716  -0.67919  -0.67830  -0.66281
 Alpha  occ. eigenvalues --   -0.66256  -0.65997  -0.65455  -0.64400  -0.64142
 Alpha  occ. eigenvalues --   -0.62855  -0.62333  -0.61397  -0.60658  -0.60506
 Alpha  occ. eigenvalues --   -0.60225  -0.59762  -0.59080  -0.58819  -0.58640
 Alpha  occ. eigenvalues --   -0.57553  -0.57409  -0.56575  -0.56531  -0.55992
 Alpha  occ. eigenvalues --   -0.55969  -0.55616  -0.55503  -0.55302  -0.54690
 Alpha  occ. eigenvalues --   -0.54486  -0.54023  -0.53764  -0.53273  -0.53056
 Alpha  occ. eigenvalues --   -0.52896  -0.52828  -0.52036  -0.51731  -0.51412
 Alpha  occ. eigenvalues --   -0.51293  -0.51043  -0.50855  -0.50513  -0.50285
 Alpha  occ. eigenvalues --   -0.49957  -0.49298  -0.49291  -0.49209  -0.48995
 Alpha  occ. eigenvalues --   -0.48842  -0.48675  -0.48514  -0.48427  -0.48058
 Alpha  occ. eigenvalues --   -0.47808  -0.47614  -0.47277  -0.47086  -0.46842
 Alpha  occ. eigenvalues --   -0.46206  -0.45996  -0.45670  -0.45439  -0.45069
 Alpha  occ. eigenvalues --   -0.44661  -0.44337  -0.44031  -0.43943  -0.43326
 Alpha  occ. eigenvalues --   -0.41932  -0.41545  -0.41270  -0.41183  -0.40849
 Alpha  occ. eigenvalues --   -0.40699  -0.39582  -0.39200  -0.39141  -0.38430
 Alpha  occ. eigenvalues --   -0.37799  -0.37638  -0.37514  -0.37356  -0.37145
 Alpha  occ. eigenvalues --   -0.36651  -0.36106  -0.35975  -0.35873  -0.35572
 Alpha  occ. eigenvalues --   -0.35224  -0.34741  -0.32419  -0.32394  -0.31702
 Alpha virt. eigenvalues --   -0.11621  -0.10322  -0.10080  -0.08737  -0.08248
 Alpha virt. eigenvalues --   -0.07042  -0.06963  -0.05524  -0.03077  -0.02570
 Alpha virt. eigenvalues --   -0.02262  -0.01844  -0.01631  -0.00794  -0.00310

 Mulliken charges:
               1
     1  N   -0.695936
     2  H    0.323170
     3  H    0.315913
     4  C   -0.072019
     5  H    0.145525
     6  C    0.646736
     7  C   -0.347388
     8  H    0.174438
     9  H    0.196980
    10  O   -0.559001
    11  C    0.607206
    12  N   -0.762358
    13  H    0.404552
    14  H    0.352867
    15  O   -0.563888
    16  N   -0.600821
    17  H    0.343282
    18  C   -0.090848
    19  H    0.197855
    20  C    0.685512
    21  C   -0.079215
    22  H    0.149095
    23  O   -0.622297
    24  C   -0.268317
    25  H    0.149609
    26  H    0.150490
    27  C   -0.477138
    28  H    0.165547
    29  H    0.166353
    30  H    0.133987
    31  C   -0.462397
    32  H    0.165619
    33  H    0.140004
    34  H    0.156121
    35  N   -0.596087
    36  H    0.397128
    37  C   -0.031520
    38  H    0.194612
    39  C    0.574865
    40  C   -0.441169
    41  H    0.173449
    42  H    0.167216
    43  H    0.186596
    44  O   -0.580713
    45  N   -0.617801
    46  H    0.423162
    47  C   -0.111782
    48  H    0.194229
    49  C    0.655456
    50  C    0.099135
    51  H    0.218110
    52  O   -0.534527
    53  C   -0.489246
    54  H    0.207374
    55  H    0.194260
    56  H    0.159862
    57  O   -0.661884
    58  H    0.476504
    59  N   -0.597170
    60  H    0.366095
    61  C   -0.083565
    62  H    0.195294
    63  C    0.665187
    64  C   -0.053349
    65  H    0.153576
    66  H    0.129105
    67  O   -0.553791
    68  O   -0.682940
    69  H    0.477948
    70  N   -0.589987
    71  H    0.348892
    72  C   -0.240594
    73  H    0.194952
    74  H    0.195252
    75  C    0.601451
    76  O   -0.503308
    77  N   -0.616538
    78  H    0.377251
    79  C   -0.046212
    80  H    0.212337
    81  C    0.582853
    82  C   -0.279070
    83  H    0.139812
    84  H    0.167090
    85  O   -0.440448
    86  C   -0.280516
    87  H    0.169739
    88  H    0.148312
    89  C   -0.261623
    90  H    0.156829
    91  H    0.130886
    92  C   -0.150816
    93  H    0.152818
    94  H    0.164968
    95  N   -0.776739
    96  H    0.329496
    97  H    0.329297
    98  O   -0.584704
    99  H    0.417301
   100  H    0.508158
 Sum of Mulliken charges =   1.00000

 Dipole moment (field-independent basis, Debye):
    X=              0.6979    Y=             -0.4704    Z=             -8.8527  Tot=              8.8926
 Quadrupole moment (field-independent basis, Debye-Ang):
   XX=           -264.0189   YY=           -248.7761   ZZ=           -164.8391
   XY=              0.8320   XZ=            -57.8472   YZ=              9.2416

 Normal termination of Gaussian 16 at Mon Jun  6 07:11:24 2022.
