 Gaussian 16, Revision C.01,
 Gaussian 16:  ES64L-G16RevC.01  3-Jul-2019

 ----------------------------------------------------------------------
 # B3LYP/6-31G* empiricaldispersion=gd3 guess=read geom=check nosymm in
 tegral(ultrafinegrid)
 ----------------------------------------------------------------------

 ------------------------------------------------------
 Candidate Structure: Conf:231 Charge calc in gas phase
 ------------------------------------------------------
 Structure from the checkpoint file:  "conf-231.chk"
 Charge =  1 Multiplicity = 1

                          Input orientation:
 ---------------------------------------------------------------------
 Center     Atomic      Atomic             Coordinates (Angstroms)
 Number     Number       Type             X           Y           Z
 ---------------------------------------------------------------------
      1          7           0       -5.061950   -1.740604   -0.950510
      2          1           0       -5.690229   -1.120903   -0.434136
      3          1           0       -5.247853   -2.678483   -0.598160
      4          6           0       -3.689724   -1.345496   -0.608388
      5          1           0       -3.013071   -2.177265   -0.839407
      6          6           0       -3.572239   -0.950087    0.872238
      7          6           0       -3.259566   -0.093579   -1.416433
      8          1           0       -3.961844    0.716676   -1.178670
      9          1           0       -2.275525    0.249789   -1.088280
     10          8           0       -4.522338   -0.423631    1.443068
     11          6           0       -3.220557   -0.248293   -2.935198
     12          7           0       -4.255661   -0.898703   -3.493232
     13          1           0       -4.270534   -1.013718   -4.497644
     14          1           0       -4.939554   -1.349166   -2.878922
     15          8           0       -2.297926    0.239091   -3.606605
     16          7           0       -2.359711   -1.160653    1.466034
     17          1           0       -1.590519   -1.475886    0.877934
     18          6           0       -2.028551   -0.400586    2.660589
     19          1           0       -2.985195    0.023933    2.989092
     20          6           0       -1.206802    0.823598    2.216146
     21          6           0       -1.503426   -1.318091    3.794821
     22          1           0       -2.254390   -2.117602    3.823250
     23          8           0       -1.289474    1.245171    1.061636
     24          6           0       -1.483545   -0.699824    5.213245
     25          1           0       -0.565632   -0.109297    5.373225
     26          1           0       -1.380957   -1.534598    5.917691
     27          6           0       -0.151336   -1.950344    3.452035
     28          1           0        0.628084   -1.182095    3.381233
     29          1           0        0.135771   -2.667828    4.231293
     30          1           0       -0.182365   -2.481901    2.496681
     31          6           0       -2.715486    0.129157    5.592054
     32          1           0       -2.693018    0.395166    6.653528
     33          1           0       -2.777485    1.063298    5.020821
     34          1           0       -3.638688   -0.431316    5.407239
     35          7           0       -0.452876    1.492489    3.137625
     36          1           0       -0.389203    1.154324    4.087386
     37          6           0        0.054804    2.835131    2.850887
     38          1           0       -0.707588    3.357888    2.263232
     39          6           0        1.301447    2.723433    1.966072
     40          6           0        0.339103    3.590763    4.146719
     41          1           0        0.705286    4.598420    3.934273
     42          1           0       -0.586705    3.674103    4.722800
     43          1           0        1.095124    3.077750    4.747960
     44          8           0        2.456069    2.879214    2.534979
     45          7           0        1.144236    2.475487    0.691994
     46          1           0        0.181068    2.234017    0.384000
     47          6           0        2.130208    2.476434   -0.399778
     48          1           0        2.678601    3.427344   -0.384676
     49          6           0        1.246371    2.337106   -1.675795
     50          6           0        3.141979    1.297856   -0.299210
     51          1           0        2.581548    0.365644   -0.414770
     52          8           0        0.049403    2.112978   -1.553925
     53          6           0        4.295986    1.344365   -1.303339
     54          1           0        4.014282    0.904144   -2.262868
     55          1           0        5.116547    0.746231   -0.899747
     56          1           0        4.682618    2.361646   -1.443650
     57          8           0        3.707442    1.304821    1.030119
     58          1           0        3.166824    2.411742    1.958822
     59          7           0        1.880031    2.359489   -2.874060
     60          1           0        2.881212    2.498541   -2.875676
     61          6           0        1.351766    1.549199   -3.989828
     62          1           0        0.324733    1.855621   -4.197335
     63          6           0        1.398694    0.079246   -3.523080
     64          6           0        2.235223    1.738459   -5.233225
     65          1           0        3.295265    1.675591   -4.938652
     66          1           0        2.058098    2.730884   -5.657202
     67          8           0        2.471464   -0.558280   -3.558304
     68          8           0        1.913949    0.789657   -6.224418
     69          1           0        2.304788   -0.054852   -5.945324
     70          7           0        0.263041   -0.390698   -2.999203
     71          1           0       -0.614243    0.144630   -3.090860
     72          6           0        0.106885   -1.745956   -2.498700
     73          1           0       -0.961071   -1.946850   -2.422725
     74          1           0        0.550962   -2.457274   -3.206448
     75          6           0        0.729254   -1.999751   -1.114415
     76          8           0        0.056210   -2.296944   -0.125366
     77          7           0        2.088464   -1.936756   -1.089982
     78          1           0        2.538243   -1.711047   -1.978406
     79          6           0        2.870159   -2.629902   -0.075938
     80          1           0        2.646427   -3.702546   -0.112464
     81          6           0        2.543477   -2.154024    1.331450
     82          6           0        4.383029   -2.419236   -0.304280
     83          1           0        4.620289   -1.360643   -0.140268
     84          1           0        4.910705   -2.983853    0.474512
     85          8           0        2.483090   -0.987907    1.699936
     86          6           0        4.874636   -2.873453   -1.684008
     87          1           0        4.571587   -3.909176   -1.872780
     88          1           0        4.420625   -2.263108   -2.476919
     89          6           0        6.399263   -2.773239   -1.814950
     90          1           0        6.876543   -3.351913   -1.009934
     91          1           0        6.722528   -1.731348   -1.678689
     92          6           0        6.909954   -3.281145   -3.169279
     93          1           0        6.425347   -2.709631   -3.971721
     94          1           0        7.991641   -3.072922   -3.242807
     95          7           0        6.557370   -4.694002   -3.353810
     96          1           0        7.138432   -5.273799   -2.749065
     97          1           0        6.766147   -4.985215   -4.306750
     98          8           0        2.434163   -3.179054    2.176102
     99          1           0        2.284370   -2.824911    3.073326
    100          1           0        3.420855    0.451531    1.434202
 ---------------------------------------------------------------------

 SCF Done:  E(RB3LYP) =  -2418.59344196     A.U. after    3 cycles

 Alpha  occ. eigenvalues --  -19.33050 -19.31518 -19.28929 -19.26646 -19.24469
 Alpha  occ. eigenvalues --  -19.23500 -19.23397 -19.22726 -19.22466 -19.19774
 Alpha  occ. eigenvalues --  -19.19151 -14.51864 -14.48487 -14.48083 -14.46226
 Alpha  occ. eigenvalues --  -14.45576 -14.43742 -14.41865 -14.40629 -14.38000
 Alpha  occ. eigenvalues --  -10.46066 -10.44501 -10.41653 -10.40310 -10.39841
 Alpha  occ. eigenvalues --  -10.38896 -10.37857 -10.37361 -10.37318 -10.36542
 Alpha  occ. eigenvalues --  -10.36406 -10.34685 -10.33257 -10.32867 -10.32651
 Alpha  occ. eigenvalues --  -10.32487 -10.31261 -10.30170 -10.29487 -10.29330
 Alpha  occ. eigenvalues --  -10.29029 -10.28261 -10.27841 -10.27046 -10.26808
 Alpha  occ. eigenvalues --  -10.26726 -10.26374 -10.26120  -1.24061  -1.22906
 Alpha  occ. eigenvalues --   -1.16997  -1.15969  -1.15677  -1.14749  -1.13707
 Alpha  occ. eigenvalues --   -1.13517  -1.11665  -1.10498  -1.10289  -1.08942
 Alpha  occ. eigenvalues --   -1.04743  -1.04533  -1.03443  -1.02138  -1.00766
 Alpha  occ. eigenvalues --   -0.98354  -0.96366  -0.94834  -0.92729  -0.90858
 Alpha  occ. eigenvalues --   -0.90376  -0.89277  -0.86505  -0.85244  -0.84636
 Alpha  occ. eigenvalues --   -0.84442  -0.82662  -0.82250  -0.80494  -0.78730
 Alpha  occ. eigenvalues --   -0.78501  -0.75551  -0.74711  -0.73776  -0.73184
 Alpha  occ. eigenvalues --   -0.72989  -0.72639  -0.71896  -0.70997  -0.70474
 Alpha  occ. eigenvalues --   -0.70245  -0.68598  -0.67707  -0.67504  -0.66927
 Alpha  occ. eigenvalues --   -0.66415  -0.66076  -0.65683  -0.65104  -0.63598
 Alpha  occ. eigenvalues --   -0.62881  -0.62699  -0.62051  -0.61814  -0.60995
 Alpha  occ. eigenvalues --   -0.60379  -0.60154  -0.60015  -0.59523  -0.59324
 Alpha  occ. eigenvalues --   -0.58326  -0.58141  -0.58070  -0.57210  -0.57075
 Alpha  occ. eigenvalues --   -0.56439  -0.56135  -0.55855  -0.55511  -0.54893
 Alpha  occ. eigenvalues --   -0.54380  -0.54061  -0.53752  -0.53392  -0.53220
 Alpha  occ. eigenvalues --   -0.53185  -0.53038  -0.52632  -0.52555  -0.52095
 Alpha  occ. eigenvalues --   -0.52046  -0.51868  -0.51544  -0.51386  -0.50847
 Alpha  occ. eigenvalues --   -0.50634  -0.50480  -0.50214  -0.50124  -0.49917
 Alpha  occ. eigenvalues --   -0.49633  -0.49488  -0.49075  -0.48899  -0.48604
 Alpha  occ. eigenvalues --   -0.48433  -0.48107  -0.47781  -0.47693  -0.47269
 Alpha  occ. eigenvalues --   -0.46675  -0.46355  -0.46093  -0.45765  -0.45645
 Alpha  occ. eigenvalues --   -0.45343  -0.44714  -0.44386  -0.44003  -0.43610
 Alpha  occ. eigenvalues --   -0.42758  -0.42558  -0.42228  -0.41924  -0.41809
 Alpha  occ. eigenvalues --   -0.41636  -0.41466  -0.41211  -0.41012  -0.40095
 Alpha  occ. eigenvalues --   -0.39420  -0.38725  -0.38222  -0.38059  -0.37047
 Alpha  occ. eigenvalues --   -0.36585  -0.35836  -0.35233  -0.35089  -0.34697
 Alpha  occ. eigenvalues --   -0.34044  -0.33719  -0.33467  -0.32295  -0.30268
 Alpha virt. eigenvalues --   -0.15746  -0.11553  -0.11130  -0.09924  -0.09312
 Alpha virt. eigenvalues --   -0.08493  -0.06291  -0.04724  -0.03803  -0.03397
 Alpha virt. eigenvalues --   -0.03214  -0.02413  -0.01226  -0.00557  -0.00339

 Mulliken charges:
               1
     1  N   -0.736294
     2  H    0.337175
     3  H    0.323628
     4  C   -0.100168
     5  H    0.156605
     6  C    0.608891
     7  C   -0.376146
     8  H    0.194675
     9  H    0.201379
    10  O   -0.518730
    11  C    0.588472
    12  N   -0.730499
    13  H    0.344516
    14  H    0.391240
    15  O   -0.562955
    16  N   -0.622239
    17  H    0.383653
    18  C   -0.098948
    19  H    0.226918
    20  C    0.628627
    21  C   -0.087182
    22  H    0.168787
    23  O   -0.523105
    24  C   -0.292093
    25  H    0.120756
    26  H    0.165052
    27  C   -0.517476
    28  H    0.142332
    29  H    0.149377
    30  H    0.192351
    31  C   -0.460669
    32  H    0.167427
    33  H    0.139182
    34  H    0.176775
    35  N   -0.623677
    36  H    0.362586
    37  C   -0.048700
    38  H    0.212539
    39  C    0.633777
    40  C   -0.482832
    41  H    0.192234
    42  H    0.188911
    43  H    0.184578
    44  O   -0.568004
    45  N   -0.600180
    46  H    0.464420
    47  C   -0.117438
    48  H    0.200254
    49  C    0.622335
    50  C    0.133407
    51  H    0.195696
    52  O   -0.489208
    53  C   -0.525902
    54  H    0.194936
    55  H    0.197104
    56  H    0.161760
    57  O   -0.700303
    58  H    0.478558
    59  N   -0.604183
    60  H    0.346167
    61  C   -0.068032
    62  H    0.216248
    63  C    0.601331
    64  C   -0.045040
    65  H    0.132785
    66  H    0.179934
    67  O   -0.587522
    68  O   -0.603248
    69  H    0.412339
    70  N   -0.593563
    71  H    0.433800
    72  C   -0.250155
    73  H    0.194319
    74  H    0.198778
    75  C    0.603414
    76  O   -0.523264
    77  N   -0.643061
    78  H    0.408089
    79  C   -0.007445
    80  H    0.195241
    81  C    0.641679
    82  C   -0.317398
    83  H    0.147396
    84  H    0.170010
    85  O   -0.535931
    86  C   -0.279857
    87  H    0.180960
    88  H    0.154066
    89  C   -0.260911
    90  H    0.136688
    91  H    0.129860
    92  C   -0.142409
    93  H    0.143290
    94  H    0.131215
    95  N   -0.718952
    96  H    0.300288
    97  H    0.309948
    98  O   -0.538538
    99  H    0.434732
   100  H    0.468767
 Sum of Mulliken charges =   1.00000

 Dipole moment (field-independent basis, Debye):
    X=              9.0471    Y=              0.0280    Z=              4.4460  Tot=             10.0806
 Quadrupole moment (field-independent basis, Debye-Ang):
   XX=           -213.1431   YY=           -236.4391   ZZ=           -234.3846
   XY=              1.7015   XZ=            -11.0883   YZ=             16.1712

 Normal termination of Gaussian 16 at Mon Jun  6 07:20:01 2022.
