 Gaussian 16, Revision C.01,
 Gaussian 16:  ES64L-G16RevC.01  3-Jul-2019

 ----------------------------------------------------------------------
 # B3LYP/6-31G* empiricaldispersion=gd3 guess=read geom=check nosymm in
 tegral(ultrafinegrid)
 ----------------------------------------------------------------------

 ------------------------------------------------------
 Candidate Structure: Conf:879 Charge calc in gas phase
 ------------------------------------------------------
 Structure from the checkpoint file:  "conf-879.chk"
 Charge =  1 Multiplicity = 1

                          Input orientation:
 ---------------------------------------------------------------------
 Center     Atomic      Atomic             Coordinates (Angstroms)
 Number     Number       Type             X           Y           Z
 ---------------------------------------------------------------------
      1          7           0       -5.715779   -2.594037    1.200116
      2          1           0       -6.326251   -2.049387    0.588682
      3          1           0       -6.244286   -2.758173    2.055066
      4          6           0       -4.536897   -1.788738    1.494271
      5          1           0       -4.029230   -2.212134    2.366564
      6          6           0       -4.874496   -0.300371    1.719198
      7          6           0       -3.594626   -1.902609    0.270670
      8          1           0       -3.356022   -2.963828    0.130616
      9          1           0       -4.131508   -1.561300   -0.620031
     10          8           0       -5.627733    0.283333    0.949592
     11          6           0       -2.306972   -1.144250    0.404643
     12          7           0       -1.785483   -0.525534   -0.623258
     13          1           0       -0.909880    0.020393   -0.598679
     14          1           0       -2.310051   -0.482173   -1.487864
     15          8           0       -1.728571   -1.195956    1.560604
     16          7           0       -4.294855    0.285023    2.809452
     17          1           0       -3.522981   -0.218311    3.227217
     18          6           0       -4.261505    1.730832    2.945372
     19          1           0       -5.213353    2.100757    2.549079
     20          6           0       -3.142086    2.279357    2.034008
     21          6           0       -4.121006    2.161343    4.429677
     22          1           0       -4.189880    3.259948    4.449110
     23          8           0       -2.521902    1.547588    1.257561
     24          6           0       -2.746415    1.775549    5.018118
     25          1           0       -1.952559    2.145333    4.355684
     26          1           0       -2.655577    0.679301    5.049232
     27          6           0       -5.300631    1.620155    5.249744
     28          1           0       -5.253886    0.529040    5.328775
     29          1           0       -5.299079    2.035887    6.260770
     30          1           0       -6.256966    1.879999    4.782768
     31          6           0       -2.494912    2.332352    6.424008
     32          1           0       -1.476065    2.103513    6.752513
     33          1           0       -2.611367    3.422837    6.439042
     34          1           0       -3.183488    1.910618    7.162512
     35          7           0       -2.842367    3.597614    2.114619
     36          1           0       -3.256274    4.173688    2.834089
     37          6           0       -1.691860    4.118152    1.382463
     38          1           0       -1.906116    4.055197    0.309202
     39          6           0       -0.456951    3.256698    1.717030
     40          6           0       -1.423731    5.569635    1.784155
     41          1           0       -0.591138    5.977323    1.203914
     42          1           0       -2.306374    6.188740    1.594612
     43          1           0       -1.160964    5.621703    2.845387
     44          8           0       -0.089650    3.108707    2.887349
     45          7           0        0.185616    2.710331    0.659724
     46          1           0       -0.351451    2.591417   -0.191081
     47          6           0        1.405921    1.917548    0.732678
     48          1           0        2.247759    2.585422    0.946370
     49          6           0        1.573433    1.265733   -0.638474
     50          6           0        1.435134    0.749910    1.812014
     51          1           0        1.778782   -0.162741    1.314367
     52          8           0        0.586565    0.810999   -1.245152
     53          6           0        2.374011    1.069279    2.969833
     54          1           0        3.400051    1.194110    2.605841
     55          1           0        2.363645    0.245778    3.689316
     56          1           0        2.061437    1.989656    3.469967
     57          8           0        0.125542    0.426708    2.281796
     58          1           0       -0.204941    1.210520    2.770266
     59          7           0        2.824619    1.155997   -1.091862
     60          1           0        3.624473    1.540710   -0.590259
     61          6           0        3.197080    0.422630   -2.290759
     62          1           0        2.601189   -0.493173   -2.362099
     63          6           0        4.701486    0.128205   -2.150375
     64          6           0        2.935939    1.275882   -3.549476
     65          1           0        3.579489    2.165392   -3.516172
     66          1           0        1.885121    1.593454   -3.532616
     67          8           0        5.385494    0.803883   -1.384753
     68          8           0        3.211387    0.477255   -4.694080
     69          1           0        3.410505    1.084938   -5.430907
     70          7           0        5.182243   -0.860360   -2.940877
     71          1           0        4.538346   -1.282756   -3.598413
     72          6           0        6.611016   -1.017517   -3.178940
     73          1           0        7.146238   -0.658027   -2.298681
     74          1           0        6.850700   -2.076414   -3.308306
     75          6           0        7.168041   -0.262275   -4.400334
     76          8           0        8.364436   -0.315051   -4.641560
     77          7           0        6.252480    0.420056   -5.146192
     78          1           0        5.268721    0.341239   -4.916463
     79          6           0        6.613435    1.085051   -6.389027
     80          1           0        7.691737    1.244769   -6.369875
     81          6           0        5.977519    2.460746   -6.489489
     82          6           0        6.216512    0.263408   -7.642375
     83          1           0        5.124971    0.138032   -7.638137
     84          1           0        6.465878    0.857735   -8.530963
     85          8           0        6.506513    3.457651   -6.903685
     86          6           0        6.901939   -1.107432   -7.729206
     87          1           0        6.669642   -1.689356   -6.825371
     88          1           0        6.450810   -1.643645   -8.573312
     89          6           0        8.421012   -1.041307   -7.927738
     90          1           0        8.882634   -0.507586   -7.089653
     91          1           0        8.639024   -0.487495   -8.850173
     92          6           0        9.072799   -2.425018   -8.020864
     93          1           0       10.150730   -2.290100   -8.165151
     94          1           0        8.949886   -2.941732   -7.050482
     95          7           0        8.561703   -3.187310   -9.169439
     96          1           0        7.657446   -3.597178   -8.943087
     97          1           0        9.178425   -3.973693   -9.363556
     98          8           0        4.642768    2.459887   -6.124760
     99          1           0        4.324958    3.367662   -6.293619
    100          1           0       -0.961306   -0.537160    1.710963
 ---------------------------------------------------------------------

 SCF Done:  E(RB3LYP) =  -2418.58028732     A.U. after    2 cycles

 Alpha  occ. eigenvalues --  -19.32739 -19.29414 -19.28769 -19.25882 -19.25619
 Alpha  occ. eigenvalues --  -19.23976 -19.23258 -19.22785 -19.22470 -19.21219
 Alpha  occ. eigenvalues --  -19.18436 -14.51416 -14.49100 -14.48362 -14.47499
 Alpha  occ. eigenvalues --  -14.46612 -14.45830 -14.43566 -14.41020 -14.35241
 Alpha  occ. eigenvalues --  -10.46459 -10.42400 -10.40935 -10.40655 -10.39855
 Alpha  occ. eigenvalues --  -10.39547 -10.38017 -10.37077 -10.36308 -10.36190
 Alpha  occ. eigenvalues --  -10.35045 -10.35001 -10.34672 -10.33386 -10.33325
 Alpha  occ. eigenvalues --  -10.32398 -10.31273 -10.31222 -10.29668 -10.29084
 Alpha  occ. eigenvalues --  -10.27888 -10.27640 -10.26110 -10.26092 -10.25733
 Alpha  occ. eigenvalues --  -10.24701 -10.24058 -10.21940  -1.23401  -1.19357
 Alpha  occ. eigenvalues --   -1.17558  -1.16613  -1.15434  -1.14593  -1.14551
 Alpha  occ. eigenvalues --   -1.13057  -1.13038  -1.10648  -1.10486  -1.07819
 Alpha  occ. eigenvalues --   -1.05472  -1.04680  -1.03806  -1.03009  -1.02563
 Alpha  occ. eigenvalues --   -1.00076  -0.98953  -0.91908  -0.91425  -0.90773
 Alpha  occ. eigenvalues --   -0.89381  -0.88240  -0.87480  -0.86715  -0.83473
 Alpha  occ. eigenvalues --   -0.82918  -0.82121  -0.80420  -0.80151  -0.78577
 Alpha  occ. eigenvalues --   -0.76802  -0.75671  -0.75363  -0.74904  -0.73335
 Alpha  occ. eigenvalues --   -0.72788  -0.72469  -0.71318  -0.70646  -0.70199
 Alpha  occ. eigenvalues --   -0.70091  -0.69150  -0.68847  -0.67668  -0.67353
 Alpha  occ. eigenvalues --   -0.66886  -0.66455  -0.65839  -0.64011  -0.63486
 Alpha  occ. eigenvalues --   -0.63253  -0.62881  -0.62106  -0.61841  -0.60910
 Alpha  occ. eigenvalues --   -0.60694  -0.60095  -0.59652  -0.59216  -0.58599
 Alpha  occ. eigenvalues --   -0.58306  -0.57664  -0.56855  -0.56733  -0.56431
 Alpha  occ. eigenvalues --   -0.56253  -0.55660  -0.55515  -0.55127  -0.55086
 Alpha  occ. eigenvalues --   -0.54681  -0.54128  -0.53914  -0.53772  -0.53496
 Alpha  occ. eigenvalues --   -0.53020  -0.52817  -0.52278  -0.52133  -0.51982
 Alpha  occ. eigenvalues --   -0.51876  -0.51633  -0.51262  -0.51136  -0.50646
 Alpha  occ. eigenvalues --   -0.50495  -0.49863  -0.49655  -0.49648  -0.49568
 Alpha  occ. eigenvalues --   -0.48759  -0.48664  -0.48380  -0.48196  -0.47926
 Alpha  occ. eigenvalues --   -0.47756  -0.47436  -0.47066  -0.46995  -0.46680
 Alpha  occ. eigenvalues --   -0.46417  -0.46004  -0.45965  -0.45692  -0.45098
 Alpha  occ. eigenvalues --   -0.44929  -0.44550  -0.44300  -0.44161  -0.43139
 Alpha  occ. eigenvalues --   -0.42636  -0.42407  -0.42126  -0.41602  -0.41250
 Alpha  occ. eigenvalues --   -0.40980  -0.39821  -0.39743  -0.38717  -0.38688
 Alpha  occ. eigenvalues --   -0.38482  -0.38246  -0.38014  -0.37305  -0.37092
 Alpha  occ. eigenvalues --   -0.37022  -0.36529  -0.36517  -0.36293  -0.35990
 Alpha  occ. eigenvalues --   -0.35113  -0.32975  -0.32552  -0.31657  -0.27471
 Alpha virt. eigenvalues --   -0.14491  -0.11572  -0.10638  -0.08759  -0.08412
 Alpha virt. eigenvalues --   -0.07894  -0.07843  -0.05078  -0.04485  -0.03451
 Alpha virt. eigenvalues --   -0.03367  -0.03052  -0.02557  -0.02192  -0.00697

 Mulliken charges:
               1
     1  N   -0.702978
     2  H    0.326230
     3  H    0.322098
     4  C   -0.081232
     5  H    0.162979
     6  C    0.602679
     7  C   -0.349936
     8  H    0.229885
     9  H    0.190636
    10  O   -0.520567
    11  C    0.656354
    12  N   -0.718007
    13  H    0.418742
    14  H    0.382670
    15  O   -0.580200
    16  N   -0.586373
    17  H    0.340216
    18  C   -0.082256
    19  H    0.209128
    20  C    0.636396
    21  C   -0.103236
    22  H    0.125712
    23  O   -0.575229
    24  C   -0.298753
    25  H    0.159108
    26  H    0.128708
    27  C   -0.449536
    28  H    0.156385
    29  H    0.169122
    30  H    0.159298
    31  C   -0.447825
    32  H    0.160912
    33  H    0.149774
    34  H    0.163913
    35  N   -0.596108
    36  H    0.352335
    37  C   -0.013944
    38  H    0.165875
    39  C    0.629460
    40  C   -0.496031
    41  H    0.181812
    42  H    0.180543
    43  H    0.190294
    44  O   -0.555121
    45  N   -0.607584
    46  H    0.356412
    47  C   -0.005092
    48  H    0.188355
    49  C    0.586180
    50  C    0.116674
    51  H    0.170012
    52  O   -0.573884
    53  C   -0.485020
    54  H    0.163549
    55  H    0.180063
    56  H    0.197963
    57  O   -0.684170
    58  H    0.455752
    59  N   -0.604985
    60  H    0.374041
    61  C   -0.064269
    62  H    0.187742
    63  C    0.608294
    64  C   -0.038001
    65  H    0.157840
    66  H    0.165699
    67  O   -0.518047
    68  O   -0.648256
    69  H    0.442179
    70  N   -0.601567
    71  H    0.353495
    72  C   -0.246534
    73  H    0.232268
    74  H    0.200241
    75  C    0.609605
    76  O   -0.496685
    77  N   -0.644523
    78  H    0.357558
    79  C   -0.051890
    80  H    0.223086
    81  C    0.598937
    82  C   -0.275624
    83  H    0.130571
    84  H    0.169970
    85  O   -0.424227
    86  C   -0.266174
    87  H    0.118113
    88  H    0.152716
    89  C   -0.254247
    90  H    0.166745
    91  H    0.143401
    92  C   -0.149152
    93  H    0.148249
    94  H    0.115217
    95  N   -0.716337
    96  H    0.291374
    97  H    0.302973
    98  O   -0.620430
    99  H    0.423651
   100  H    0.493839
 Sum of Mulliken charges =   1.00000

 Dipole moment (field-independent basis, Debye):
    X=             -5.0302    Y=              3.6745    Z=              1.3660  Tot=              6.3773
 Quadrupole moment (field-independent basis, Debye-Ang):
   XX=           -275.7651   YY=           -236.3870   ZZ=           -232.9456
   XY=            -26.0572   XZ=            -27.9798   YZ=             20.2741

 Normal termination of Gaussian 16 at Mon Jun  6 07:11:39 2022.
