 Gaussian 16, Revision C.01,
 Gaussian 16:  ES64L-G16RevC.01  3-Jul-2019

 ----------------------------------------------------------------------
 # B3LYP/6-31G* empiricaldispersion=gd3 guess=read geom=check nosymm in
 tegral(ultrafinegrid)
 ----------------------------------------------------------------------

 -----------------------------------------------------
 Candidate Structure: Conf:19 Charge calc in gas phase
 -----------------------------------------------------
 Structure from the checkpoint file:  "conf-19.chk"
 Charge =  1 Multiplicity = 1

                          Input orientation:
 ---------------------------------------------------------------------
 Center     Atomic      Atomic             Coordinates (Angstroms)
 Number     Number       Type             X           Y           Z
 ---------------------------------------------------------------------
      1          7           0       -1.131232    2.738003   -1.946746
      2          1           0       -0.239693    2.791985   -1.448461
      3          1           0       -1.507342    3.686506   -1.939352
      4          6           0       -2.019118    1.832730   -1.198028
      5          1           0       -3.056082    2.060298   -1.464221
      6          6           0       -1.807090    1.977943    0.310094
      7          6           0       -1.748466    0.376228   -1.618907
      8          1           0       -0.672782    0.182668   -1.640271
      9          1           0       -2.192943   -0.310410   -0.888700
     10          8           0       -0.667421    2.186792    0.773657
     11          6           0       -2.455000    0.105703   -2.952894
     12          7           0       -1.675732   -0.415929   -3.935605
     13          1           0       -2.110400   -0.532108   -4.842382
     14          1           0       -0.666824   -0.306577   -3.902560
     15          8           0       -3.653094    0.328515   -3.067275
     16          7           0       -2.886929    1.828279    1.095258
     17          1           0       -3.777378    1.608896    0.663961
     18          6           0       -2.833757    1.856265    2.568791
     19          1           0       -2.059177    2.582764    2.836640
     20          6           0       -2.390922    0.442902    3.009836
     21          6           0       -4.179381    2.279794    3.182693
     22          1           0       -4.917100    1.509703    2.914948
     23          8           0       -3.168661   -0.434512    3.356255
     24          6           0       -4.639352    3.641555    2.620562
     25          1           0       -4.620680    3.617107    1.523341
     26          1           0       -3.911312    4.410594    2.916703
     27          6           0       -4.053871    2.306944    4.714654
     28          1           0       -3.322224    3.061400    5.031517
     29          1           0       -5.011981    2.558831    5.175581
     30          1           0       -3.749783    1.333919    5.107892
     31          6           0       -6.044982    4.055935    3.070537
     32          1           0       -6.350979    4.980638    2.570605
     33          1           0       -6.781946    3.282331    2.823156
     34          1           0       -6.096099    4.234641    4.148840
     35          7           0       -1.040687    0.234190    2.904026
     36          1           0       -0.487462    0.942028    2.427906
     37          6           0       -0.527726   -1.118757    2.957659
     38          1           0       -0.983866   -1.611750    3.830792
     39          6           0        0.957009   -1.022613    3.223628
     40          6           0       -0.895312   -1.940193    1.698565
     41          1           0       -0.659278   -3.004511    1.800298
     42          1           0       -1.979200   -1.865309    1.588411
     43          1           0       -0.388715   -1.545276    0.816673
     44          8           0        1.609358   -0.058895    3.473612
     45          7           0        1.715343   -2.371797    3.149539
     46          1           0        1.211392   -3.031288    2.530674
     47          6           0        3.090937   -2.250935    2.541625
     48          1           0        3.544681   -1.348395    2.956117
     49          6           0        2.791760   -2.159260    1.035493
     50          6           0        3.875185   -3.516824    2.953873
     51          1           0        3.431403   -4.371913    2.431363
     52          8           0        1.888118   -2.881234    0.606262
     53          6           0        5.352181   -3.397839    2.605969
     54          1           0        5.488568   -3.246883    1.530102
     55          1           0        5.876913   -4.312676    2.893480
     56          1           0        5.811783   -2.549071    3.129037
     57          8           0        3.631181   -3.748916    4.344320
     58          1           0        4.328793   -3.320545    4.867839
     59          7           0        3.495514   -1.272571    0.326027
     60          1           0        4.252426   -0.739504    0.741464
     61          6           0        3.029187   -0.772987   -0.958926
     62          1           0        2.413481   -1.549028   -1.419074
     63          6           0        4.245751   -0.392256   -1.807878
     64          6           0        2.186390    0.498461   -0.730296
     65          1           0        1.806215    0.846075   -1.698678
     66          1           0        2.840754    1.281069   -0.318025
     67          8           0        5.297832   -0.075311   -1.267689
     68          8           0        1.134296    0.176130    0.170409
     69          1           0        0.609024    0.988493    0.329558
     70          7           0        4.011209   -0.385490   -3.148816
     71          1           0        3.043122   -0.508639   -3.435353
     72          6           0        4.800377    0.465503   -4.043169
     73          1           0        5.673956    0.817775   -3.494410
     74          1           0        5.125679   -0.098713   -4.923929
     75          6           0        3.871787    1.637080   -4.377491
     76          8           0        3.649424    2.528471   -3.569524
     77          7           0        3.177423    1.514696   -5.550384
     78          1           0        3.287673    0.664284   -6.087303
     79          6           0        1.916581    2.222075   -5.685141
     80          1           0        2.100402    3.291115   -5.548632
     81          6           0        0.955315    1.792247   -4.566575
     82          6           0        1.277504    1.980042   -7.063640
     83          1           0        1.093640    0.902106   -7.189542
     84          1           0        0.295419    2.465830   -7.065703
     85          8           0        1.069248    0.737809   -3.938044
     86          6           0        2.124598    2.512303   -8.225848
     87          1           0        2.304822    3.585488   -8.073106
     88          1           0        3.114063    2.035477   -8.216629
     89          6           0        1.463156    2.290638   -9.591121
     90          1           0        0.478830    2.781593   -9.608626
     91          1           0        1.275624    1.216670   -9.742560
     92          6           0        2.312523    2.821856  -10.759809
     93          1           0        2.504574    3.892669  -10.610183
     94          1           0        3.295208    2.331145  -10.745395
     95          7           0        1.747107    2.651779  -12.097139
     96          1           0        0.845010    3.122056  -12.158058
     97          1           0        1.566379    1.665275  -12.278559
     98          8           0       -0.013829    2.665668   -4.396797
     99          1           0       -0.559440    2.480866   -3.558198
    100          1           0        1.849399   -2.791482    4.087710
 ---------------------------------------------------------------------

 SCF Done:  E(RB3LYP) =  -2418.55886239     A.U. after    1 cycles

 Alpha  occ. eigenvalues --  -19.32489 -19.29701 -19.26755 -19.25049 -19.24606
 Alpha  occ. eigenvalues --  -19.24555 -19.23517 -19.22310 -19.21594 -19.20176
 Alpha  occ. eigenvalues --  -19.18926 -14.58803 -14.48919 -14.48685 -14.46822
 Alpha  occ. eigenvalues --  -14.45839 -14.45002 -14.44959 -14.42916 -14.36067
 Alpha  occ. eigenvalues --  -10.47845 -10.42505 -10.41138 -10.40938 -10.39269
 Alpha  occ. eigenvalues --  -10.39034 -10.38797 -10.38723 -10.37796 -10.37413
 Alpha  occ. eigenvalues --  -10.36825 -10.34115 -10.33914 -10.33643 -10.33471
 Alpha  occ. eigenvalues --  -10.32092 -10.31597 -10.30856 -10.29697 -10.29036
 Alpha  occ. eigenvalues --  -10.28236 -10.27662 -10.26398 -10.25970 -10.25773
 Alpha  occ. eigenvalues --  -10.25158 -10.24501 -10.24416  -1.24240  -1.18739
 Alpha  occ. eigenvalues --   -1.18075  -1.16747  -1.16143  -1.14325  -1.13714
 Alpha  occ. eigenvalues --   -1.12303  -1.12101  -1.11656  -1.10844  -1.09895
 Alpha  occ. eigenvalues --   -1.05308  -1.04711  -1.04073  -1.02272  -1.01416
 Alpha  occ. eigenvalues --   -1.01279  -0.97926  -0.93228  -0.92976  -0.90999
 Alpha  occ. eigenvalues --   -0.89566  -0.88566  -0.87771  -0.86617  -0.84348
 Alpha  occ. eigenvalues --   -0.83328  -0.82839  -0.80648  -0.79761  -0.79104
 Alpha  occ. eigenvalues --   -0.77607  -0.76093  -0.75579  -0.74658  -0.74077
 Alpha  occ. eigenvalues --   -0.73872  -0.71746  -0.71506  -0.70438  -0.70068
 Alpha  occ. eigenvalues --   -0.69536  -0.68638  -0.68182  -0.67284  -0.66711
 Alpha  occ. eigenvalues --   -0.66229  -0.65765  -0.65238  -0.65129  -0.64198
 Alpha  occ. eigenvalues --   -0.63522  -0.63306  -0.62011  -0.61649  -0.61516
 Alpha  occ. eigenvalues --   -0.61018  -0.60336  -0.59795  -0.59539  -0.58873
 Alpha  occ. eigenvalues --   -0.58557  -0.58295  -0.58024  -0.57767  -0.57505
 Alpha  occ. eigenvalues --   -0.57107  -0.56475  -0.56178  -0.55999  -0.55624
 Alpha  occ. eigenvalues --   -0.55302  -0.54954  -0.54841  -0.54164  -0.53916
 Alpha  occ. eigenvalues --   -0.53455  -0.53099  -0.53005  -0.52509  -0.51963
 Alpha  occ. eigenvalues --   -0.51881  -0.51326  -0.51080  -0.50941  -0.50702
 Alpha  occ. eigenvalues --   -0.50392  -0.50316  -0.50140  -0.49708  -0.49528
 Alpha  occ. eigenvalues --   -0.49280  -0.49052  -0.48994  -0.48616  -0.47934
 Alpha  occ. eigenvalues --   -0.47762  -0.47295  -0.47074  -0.47049  -0.46757
 Alpha  occ. eigenvalues --   -0.46384  -0.46190  -0.45899  -0.45210  -0.44919
 Alpha  occ. eigenvalues --   -0.44800  -0.44390  -0.44098  -0.43835  -0.43729
 Alpha  occ. eigenvalues --   -0.42747  -0.42406  -0.41698  -0.41600  -0.40791
 Alpha  occ. eigenvalues --   -0.40623  -0.40530  -0.40335  -0.39834  -0.39587
 Alpha  occ. eigenvalues --   -0.39157  -0.38964  -0.38123  -0.37652  -0.37489
 Alpha  occ. eigenvalues --   -0.37197  -0.36755  -0.36325  -0.35412  -0.34857
 Alpha  occ. eigenvalues --   -0.34730  -0.34368  -0.32851  -0.32794  -0.28082
 Alpha virt. eigenvalues --   -0.18209  -0.12411  -0.10984  -0.09391  -0.08370
 Alpha virt. eigenvalues --   -0.08194  -0.07226  -0.05583  -0.05373  -0.04902
 Alpha virt. eigenvalues --   -0.03502  -0.03181  -0.02361  -0.01937  -0.01649

 Mulliken charges:
               1
     1  N   -0.771850
     2  H    0.344593
     3  H    0.346290
     4  C   -0.078778
     5  H    0.197137
     6  C    0.625859
     7  C   -0.370666
     8  H    0.179760
     9  H    0.178296
    10  O   -0.583348
    11  C    0.587075
    12  N   -0.764000
    13  H    0.344432
    14  H    0.375535
    15  O   -0.505243
    16  N   -0.594426
    17  H    0.362832
    18  C   -0.055979
    19  H    0.185614
    20  C    0.628598
    21  C   -0.102119
    22  H    0.153351
    23  O   -0.509452
    24  C   -0.258916
    25  H    0.124310
    26  H    0.141539
    27  C   -0.474334
    28  H    0.146524
    29  H    0.172762
    30  H    0.173687
    31  C   -0.451517
    32  H    0.160230
    33  H    0.152410
    34  H    0.161427
    35  N   -0.619372
    36  H    0.375598
    37  C   -0.048012
    38  H    0.224750
    39  C    0.598722
    40  C   -0.504640
    41  H    0.160969
    42  H    0.211227
    43  H    0.227017
    44  O   -0.359192
    45  N   -0.713160
    46  H    0.417800
    47  C   -0.118542
    48  H    0.210148
    49  C    0.670058
    50  C    0.120291
    51  H    0.191017
    52  O   -0.535491
    53  C   -0.498524
    54  H    0.194596
    55  H    0.206615
    56  H    0.163691
    57  O   -0.628047
    58  H    0.421643
    59  N   -0.584054
    60  H    0.359540
    61  C   -0.114682
    62  H    0.201660
    63  C    0.627225
    64  C   -0.050606
    65  H    0.182134
    66  H    0.158158
    67  O   -0.514147
    68  O   -0.685893
    69  H    0.448386
    70  N   -0.591977
    71  H    0.356592
    72  C   -0.236722
    73  H    0.227113
    74  H    0.168744
    75  C    0.590026
    76  O   -0.503847
    77  N   -0.581400
    78  H    0.332786
    79  C   -0.019707
    80  H    0.203647
    81  C    0.610657
    82  C   -0.307480
    83  H    0.136429
    84  H    0.177657
    85  O   -0.544314
    86  C   -0.259652
    87  H    0.150623
    88  H    0.139811
    89  C   -0.265646
    90  H    0.132163
    91  H    0.124509
    92  C   -0.140895
    93  H    0.147605
    94  H    0.142838
    95  N   -0.698792
    96  H    0.296562
    97  H    0.294615
    98  O   -0.586289
    99  H    0.466327
   100  H    0.419503
 Sum of Mulliken charges =   1.00000

 Dipole moment (field-independent basis, Debye):
    X=              6.0242    Y=             -3.4376    Z=              3.9245  Tot=              7.9693
 Quadrupole moment (field-independent basis, Debye-Ang):
   XX=           -247.4233   YY=           -254.9183   ZZ=           -196.7980
   XY=            -52.0250   XZ=             15.7308   YZ=            -16.9180

 Normal termination of Gaussian 16 at Mon Jun  6 07:11:21 2022.
