 Gaussian 16, Revision C.01,
 Gaussian 16:  ES64L-G16RevC.01  3-Jul-2019

 ----------------------------------------------------------------------
 # B3LYP/6-31G* empiricaldispersion=gd3 guess=read geom=check nosymm in
 tegral(ultrafinegrid)
 ----------------------------------------------------------------------

 ------------------------------------------------------
 Candidate Structure: Conf:731 Charge calc in gas phase
 ------------------------------------------------------
 Structure from the checkpoint file:  "conf-731.chk"
 Charge =  1 Multiplicity = 1

                          Input orientation:
 ---------------------------------------------------------------------
 Center     Atomic      Atomic             Coordinates (Angstroms)
 Number     Number       Type             X           Y           Z
 ---------------------------------------------------------------------
      1          7           0       -3.434178   -0.980632   -2.368318
      2          1           0       -3.376424   -0.190751   -3.014422
      3          1           0       -4.415377   -1.255635   -2.351060
      4          6           0       -3.024860   -0.505545   -1.049009
      5          1           0       -3.325159   -1.248906   -0.300623
      6          6           0       -3.530813    0.903597   -0.682010
      7          6           0       -1.493388   -0.296522   -1.003932
      8          1           0       -1.217249    0.418590   -1.790394
      9          1           0       -1.216564    0.150143   -0.048728
     10          8           0       -3.637270    1.765070   -1.546814
     11          6           0       -0.560338   -1.475945   -1.171300
     12          7           0       -0.992319   -2.489656   -1.936378
     13          1           0       -0.388269   -3.282535   -2.107263
     14          1           0       -1.901836   -2.400134   -2.394482
     15          8           0        0.563534   -1.429842   -0.641588
     16          7           0       -3.630154    1.162988    0.665014
     17          1           0       -3.383696    0.391535    1.274903
     18          6           0       -3.172215    2.471453    1.167116
     19          1           0       -3.549838    3.212526    0.461586
     20          6           0       -1.635545    2.374294    1.065123
     21          6           0       -3.704482    2.810557    2.575185
     22          1           0       -4.778061    2.999700    2.435224
     23          8           0       -0.998559    1.636208    1.833297
     24          6           0       -3.054881    4.106969    3.103454
     25          1           0       -1.993240    3.915103    3.312621
     26          1           0       -3.516493    4.335566    4.071702
     27          6           0       -3.557416    1.675145    3.601226
     28          1           0       -2.508271    1.416708    3.764822
     29          1           0       -3.986940    1.988828    4.558324
     30          1           0       -4.098825    0.771978    3.295415
     31          6           0       -3.191011    5.325660    2.182054
     32          1           0       -2.838123    6.231175    2.685692
     33          1           0       -2.598014    5.218477    1.266148
     34          1           0       -4.235639    5.491167    1.891709
     35          7           0       -1.078840    3.011029    0.014256
     36          1           0       -1.725105    3.476626   -0.612442
     37          6           0        0.260605    2.782767   -0.566584
     38          1           0        0.179415    1.963085   -1.288761
     39          6           0        1.317971    2.411688    0.491554
     40          6           0        0.705489    4.047593   -1.301709
     41          1           0        1.656332    3.867090   -1.813290
     42          1           0       -0.036294    4.338433   -2.054355
     43          1           0        0.850217    4.866507   -0.593515
     44          8           0        1.919328    3.253629    1.139287
     45          7           0        1.597664    1.071796    0.576464
     46          1           0        1.028022    0.378350    0.087746
     47          6           0        2.476723    0.574355    1.623926
     48          1           0        3.372483    1.204726    1.656446
     49          6           0        2.867431   -0.844283    1.217468
     50          6           0        1.850342    0.509361    3.052101
     51          1           0        2.544356   -0.073435    3.671332
     52          8           0        2.224200   -1.861995    1.698974
     53          6           0        1.590417    1.838578    3.744539
     54          1           0        2.503571    2.438637    3.778714
     55          1           0        1.256927    1.633953    4.766418
     56          1           0        0.825853    2.415916    3.227751
     57          8           0        0.660862   -0.303661    2.971294
     58          1           0       -0.033769    0.246181    2.543199
     59          7           0        3.857458   -1.050105    0.397003
     60          1           0        4.357289   -0.258338   -0.018813
     61          6           0        4.318079   -2.338420   -0.119011
     62          1           0        4.521704   -3.021182    0.710856
     63          6           0        5.572946   -2.006828   -0.929179
     64          6           0        3.269389   -3.011583   -1.069099
     65          1           0        3.053075   -2.318356   -1.891494
     66          1           0        2.347298   -3.160220   -0.506790
     67          8           0        5.776037   -0.851305   -1.308398
     68          8           0        3.751291   -4.254977   -1.518885
     69          1           0        4.193095   -4.105242   -2.384810
     70          7           0        6.354711   -3.060366   -1.268650
     71          1           0        5.945905   -3.973814   -1.096258
     72          6           0        7.167738   -2.929888   -2.471216
     73          1           0        7.835614   -2.072821   -2.363315
     74          1           0        7.772570   -3.833665   -2.584907
     75          6           0        6.235854   -2.777623   -3.687527
     76          8           0        5.164328   -3.395891   -3.739852
     77          7           0        6.637581   -1.934728   -4.650791
     78          1           0        7.539333   -1.473800   -4.600451
     79          6           0        5.859563   -1.693961   -5.858997
     80          1           0        5.315731   -2.611461   -6.102278
     81          6           0        6.846757   -1.377328   -6.974878
     82          6           0        4.846563   -0.530472   -5.711014
     83          1           0        5.401159    0.408200   -5.577983
     84          1           0        4.307746   -0.451000   -6.662730
     85          8           0        8.009207   -1.086314   -6.793807
     86          6           0        3.854740   -0.712791   -4.553636
     87          1           0        3.421631   -1.719030   -4.598900
     88          1           0        4.394499   -0.650764   -3.600075
     89          6           0        2.731117    0.330002   -4.578152
     90          1           0        2.152975    0.223787   -5.507934
     91          1           0        3.156907    1.344519   -4.593372
     92          6           0        1.777667    0.203174   -3.381752
     93          1           0        1.411517   -0.827033   -3.297687
     94          1           0        2.316986    0.408156   -2.447420
     95          7           0        0.598384    1.086429   -3.423025
     96          1           0        0.028150    0.846198   -4.234382
     97          1           0        0.904108    2.046534   -3.587724
     98          8           0        6.252856   -1.414343   -8.179622
     99          1           0        6.923467   -1.165483   -8.844767
    100          1           0        1.410526   -1.504926    2.202526
 ---------------------------------------------------------------------

 SCF Done:  E(RB3LYP) =  -2418.60132336     A.U. after    1 cycles

 Alpha  occ. eigenvalues --  -19.32780 -19.28822 -19.26902 -19.24037 -19.23338
 Alpha  occ. eigenvalues --  -19.23186 -19.22911 -19.22468 -19.22093 -19.22011
 Alpha  occ. eigenvalues --  -19.21495 -14.52303 -14.47302 -14.47158 -14.46522
 Alpha  occ. eigenvalues --  -14.46177 -14.45787 -14.45062 -14.42624 -14.41603
 Alpha  occ. eigenvalues --  -10.45834 -10.41352 -10.40543 -10.39706 -10.39575
 Alpha  occ. eigenvalues --  -10.39291 -10.38871 -10.38457 -10.36360 -10.35579
 Alpha  occ. eigenvalues --  -10.35412 -10.33600 -10.33362 -10.33275 -10.33257
 Alpha  occ. eigenvalues --  -10.33147 -10.32662 -10.29792 -10.29097 -10.28019
 Alpha  occ. eigenvalues --  -10.27759 -10.27466 -10.26839 -10.26682 -10.26026
 Alpha  occ. eigenvalues --  -10.25792 -10.25087 -10.24776  -1.23822  -1.19846
 Alpha  occ. eigenvalues --   -1.16200  -1.15030  -1.14132  -1.13905  -1.13448
 Alpha  occ. eigenvalues --   -1.13379  -1.13163  -1.11054  -1.10923  -1.09253
 Alpha  occ. eigenvalues --   -1.03751  -1.03379  -1.02951  -1.02905  -1.02318
 Alpha  occ. eigenvalues --   -1.00842  -0.98978  -0.97751  -0.91083  -0.89783
 Alpha  occ. eigenvalues --   -0.89500  -0.88100  -0.86627  -0.86400  -0.85521
 Alpha  occ. eigenvalues --   -0.82837  -0.81553  -0.81408  -0.79486  -0.78753
 Alpha  occ. eigenvalues --   -0.78153  -0.75906  -0.74803  -0.74237  -0.72481
 Alpha  occ. eigenvalues --   -0.72076  -0.71334  -0.70536  -0.69991  -0.69584
 Alpha  occ. eigenvalues --   -0.68917  -0.68400  -0.68062  -0.67463  -0.67386
 Alpha  occ. eigenvalues --   -0.67074  -0.66375  -0.65490  -0.64489  -0.63658
 Alpha  occ. eigenvalues --   -0.62632  -0.62368  -0.61940  -0.61617  -0.61275
 Alpha  occ. eigenvalues --   -0.60278  -0.59725  -0.59344  -0.59053  -0.58700
 Alpha  occ. eigenvalues --   -0.58333  -0.57843  -0.57474  -0.57083  -0.56868
 Alpha  occ. eigenvalues --   -0.56491  -0.56266  -0.56076  -0.55798  -0.55391
 Alpha  occ. eigenvalues --   -0.54817  -0.54516  -0.53912  -0.53754  -0.53394
 Alpha  occ. eigenvalues --   -0.53067  -0.52748  -0.52514  -0.52064  -0.51696
 Alpha  occ. eigenvalues --   -0.51654  -0.51460  -0.51216  -0.50673  -0.50528
 Alpha  occ. eigenvalues --   -0.50287  -0.49863  -0.49567  -0.49472  -0.49272
 Alpha  occ. eigenvalues --   -0.49178  -0.49035  -0.48565  -0.48372  -0.47846
 Alpha  occ. eigenvalues --   -0.47783  -0.47427  -0.47108  -0.47060  -0.46856
 Alpha  occ. eigenvalues --   -0.46443  -0.45984  -0.45815  -0.45471  -0.44758
 Alpha  occ. eigenvalues --   -0.44544  -0.44442  -0.43878  -0.43540  -0.43462
 Alpha  occ. eigenvalues --   -0.43264  -0.42830  -0.41999  -0.41573  -0.41028
 Alpha  occ. eigenvalues --   -0.40820  -0.40812  -0.40248  -0.40077  -0.38507
 Alpha  occ. eigenvalues --   -0.38106  -0.37970  -0.37444  -0.37412  -0.37247
 Alpha  occ. eigenvalues --   -0.36918  -0.36758  -0.36243  -0.36032  -0.35833
 Alpha  occ. eigenvalues --   -0.35180  -0.34774  -0.34369  -0.33501  -0.33182
 Alpha virt. eigenvalues --   -0.14970  -0.10170  -0.10057  -0.08529  -0.08462
 Alpha virt. eigenvalues --   -0.08166  -0.07833  -0.07022  -0.03691  -0.02781
 Alpha virt. eigenvalues --   -0.02197  -0.01201  -0.01137  -0.00841  -0.00223

 Mulliken charges:
               1
     1  N   -0.731110
     2  H    0.331478
     3  H    0.330422
     4  C   -0.081671
     5  H    0.156912
     6  C    0.588423
     7  C   -0.422498
     8  H    0.230825
     9  H    0.169445
    10  O   -0.515039
    11  C    0.627848
    12  N   -0.744778
    13  H    0.351287
    14  H    0.391498
    15  O   -0.571099
    16  N   -0.582610
    17  H    0.339132
    18  C   -0.065503
    19  H    0.183878
    20  C    0.630279
    21  C   -0.081176
    22  H    0.152010
    23  O   -0.590346
    24  C   -0.273416
    25  H    0.150879
    26  H    0.154860
    27  C   -0.480404
    28  H    0.170612
    29  H    0.165443
    30  H    0.139764
    31  C   -0.458124
    32  H    0.166599
    33  H    0.131340
    34  H    0.156316
    35  N   -0.581215
    36  H    0.360466
    37  C   -0.071997
    38  H    0.220683
    39  C    0.638666
    40  C   -0.472985
    41  H    0.162491
    42  H    0.154431
    43  H    0.202307
    44  O   -0.505435
    45  N   -0.666853
    46  H    0.401788
    47  C   -0.050812
    48  H    0.202695
    49  C    0.652083
    50  C    0.088675
    51  H    0.167009
    52  O   -0.555863
    53  C   -0.466284
    54  H    0.172442
    55  H    0.169814
    56  H    0.199404
    57  O   -0.686694
    58  H    0.466281
    59  N   -0.584732
    60  H    0.395648
    61  C   -0.073644
    62  H    0.208732
    63  C    0.604849
    64  C   -0.056933
    65  H    0.161544
    66  H    0.198381
    67  O   -0.534939
    68  O   -0.646421
    69  H    0.445949
    70  N   -0.566466
    71  H    0.357970
    72  C   -0.253923
    73  H    0.204591
    74  H    0.209632
    75  C    0.645825
    76  O   -0.559548
    77  N   -0.588299
    78  H    0.361868
    79  C   -0.050287
    80  H    0.206252
    81  C    0.588734
    82  C   -0.267667
    83  H    0.152841
    84  H    0.169908
    85  O   -0.458876
    86  C   -0.284518
    87  H    0.157185
    88  H    0.156625
    89  C   -0.270374
    90  H    0.135533
    91  H    0.134910
    92  C   -0.153375
    93  H    0.153314
    94  H    0.137388
    95  N   -0.734009
    96  H    0.310405
    97  H    0.309801
    98  O   -0.558012
    99  H    0.429588
   100  H    0.481981
 Sum of Mulliken charges =   1.00000

 Dipole moment (field-independent basis, Debye):
    X=              7.5840    Y=             -2.0032    Z=             -7.1824  Tot=             10.6356
 Quadrupole moment (field-independent basis, Debye-Ang):
   XX=           -187.9416   YY=           -262.1385   ZZ=           -205.1518
   XY=            -29.9140   XZ=            -40.9792   YZ=             11.6911

 Normal termination of Gaussian 16 at Mon Jun  6 07:11:00 2022.
