 Gaussian 16, Revision C.01,
 Gaussian 16:  ES64L-G16RevC.01  3-Jul-2019

 ----------------------------------------------------------------------
 # B3LYP/6-31G* empiricaldispersion=gd3 guess=read geom=check nosymm in
 tegral(ultrafinegrid)
 ----------------------------------------------------------------------

 ------------------------------------------------------
 Candidate Structure: Conf:472 Charge calc in gas phase
 ------------------------------------------------------
 Structure from the checkpoint file:  "conf-472.chk"
 Charge =  1 Multiplicity = 1

                          Input orientation:
 ---------------------------------------------------------------------
 Center     Atomic      Atomic             Coordinates (Angstroms)
 Number     Number       Type             X           Y           Z
 ---------------------------------------------------------------------
      1          7           0       -5.437226   -0.179682    3.680271
      2          1           0       -6.108742    0.130899    2.974755
      3          1           0       -5.619058    0.397270    4.500692
      4          6           0       -4.094947    0.099232    3.165185
      5          1           0       -3.392060    0.042913    4.006755
      6          6           0       -3.984319    1.480791    2.492487
      7          6           0       -3.703713   -0.970650    2.112658
      8          1           0       -4.532665   -1.065116    1.399481
      9          1           0       -2.840071   -0.649095    1.531816
     10          8           0       -4.946754    2.009847    1.959936
     11          6           0       -3.401369   -2.338382    2.710508
     12          7           0       -4.269731   -2.778616    3.629349
     13          1           0       -4.114875   -3.678468    4.064385
     14          1           0       -5.033383   -2.160659    3.917084
     15          8           0       -2.406446   -3.007756    2.363553
     16          7           0       -2.728312    2.034649    2.534112
     17          1           0       -1.992182    1.432482    2.879404
     18          6           0       -2.314100    3.045650    1.570237
     19          1           0       -3.231646    3.579387    1.301337
     20          6           0       -1.869340    2.304804    0.283980
     21          6           0       -1.323119    4.036929    2.240629
     22          1           0       -1.844135    4.317679    3.164619
     23          8           0       -2.339685    1.189176    0.026872
     24          6           0       -1.067786    5.360893    1.478435
     25          1           0       -0.272933    5.240242    0.724748
     26          1           0       -0.633420    6.059133    2.204248
     27          6           0        0.006035    3.370620    2.635346
     28          1           0        0.545809    2.993586    1.758099
     29          1           0        0.658575    4.090410    3.139932
     30          1           0       -0.138770    2.533058    3.327664
     31          6           0       -2.302224    6.000367    0.835217
     32          1           0       -2.063659    6.995670    0.447787
     33          1           0       -2.684380    5.405481   -0.002810
     34          1           0       -3.114113    6.112031    1.562938
     35          7           0       -0.976575    2.900048   -0.539494
     36          1           0       -0.586483    3.796697   -0.287639
     37          6           0       -0.541081    2.312194   -1.815582
     38          1           0       -1.426629    1.858254   -2.275337
     39          6           0        0.488942    1.184932   -1.558432
     40          6           0        0.041561    3.393645   -2.717381
     41          1           0        0.335066    2.964711   -3.678152
     42          1           0       -0.700231    4.178092   -2.893505
     43          1           0        0.939812    3.830558   -2.270189
     44          8           0        1.672634    1.265441   -1.885117
     45          7           0       -0.021986    0.091359   -0.932316
     46          1           0       -1.008644    0.088003   -0.663106
     47          6           0        0.847861   -0.975206   -0.476176
     48          1           0        1.827510   -0.554350   -0.234977
     49          6           0        1.024149   -1.971980   -1.618028
     50          6           0        0.267392   -1.674784    0.765499
     51          1           0        0.953912   -2.491417    1.037677
     52          8           0        0.261964   -3.018730   -1.708378
     53          6           0        0.114620   -0.729275    1.951447
     54          1           0        1.090609   -0.341606    2.262672
     55          1           0       -0.332626   -1.270842    2.789757
     56          1           0       -0.531319    0.110834    1.685043
     57          8           0       -0.987035   -2.211338    0.330004
     58          1           0       -1.527129   -2.570610    1.110118
     59          7           0        1.913904   -1.745966   -2.544610
     60          1           0        2.531626   -0.940827   -2.423792
     61          6           0        2.344756   -2.726964   -3.534668
     62          1           0        1.471307   -3.206685   -3.987873
     63          6           0        3.215256   -3.770417   -2.784612
     64          6           0        3.178042   -1.956064   -4.589782
     65          1           0        2.524625   -1.227466   -5.081379
     66          1           0        3.541552   -2.648936   -5.359413
     67          8           0        3.433655   -3.673142   -1.584619
     68          8           0        4.220113   -1.250034   -3.963559
     69          1           0        4.981370   -1.862035   -3.864784
     70          7           0        3.756623   -4.758457   -3.555727
     71          1           0        3.696773   -4.646405   -4.559421
     72          6           0        4.992305   -5.364998   -3.077294
     73          1           0        4.819576   -5.796457   -2.089112
     74          1           0        5.280137   -6.166825   -3.763120
     75          6           0        6.094345   -4.284530   -3.040364
     76          8           0        6.061872   -3.347313   -3.846107
     77          7           0        7.041364   -4.424358   -2.096891
     78          1           0        6.988700   -5.194314   -1.442578
     79          6           0        8.078646   -3.417811   -1.867049
     80          1           0        8.252452   -2.909728   -2.818332
     81          6           0        9.397279   -4.047778   -1.442141
     82          6           0        7.654735   -2.369469   -0.804472
     83          1           0        7.512573   -2.880010    0.158350
     84          1           0        8.492237   -1.673601   -0.679572
     85          8           0       10.454926   -3.470037   -1.483116
     86          6           0        6.376197   -1.626268   -1.198319
     87          1           0        6.532423   -1.127370   -2.163301
     88          1           0        5.574385   -2.356253   -1.350162
     89          6           0        5.888977   -0.599765   -0.170177
     90          1           0        6.591797    0.236092   -0.073646
     91          1           0        5.817720   -1.070330    0.822240
     92          6           0        4.512645   -0.065614   -0.577598
     93          1           0        4.582905    0.405272   -1.564908
     94          1           0        3.851471   -0.945202   -0.701872
     95          7           0        4.001457    0.938895    0.355113
     96          1           0        3.745610    0.518067    1.246606
     97          1           0        3.178111    1.389483   -0.037655
     98          8           0        9.240392   -5.300160   -0.942644
     99          1           0       10.122375   -5.604335   -0.654736
    100          1           0       -0.419116   -2.972693   -0.945631
 ---------------------------------------------------------------------

 SCF Done:  E(RB3LYP) =  -2418.59997966     A.U. after    1 cycles

 Alpha  occ. eigenvalues --  -19.32607 -19.28128 -19.26365 -19.23677 -19.23406
 Alpha  occ. eigenvalues --  -19.23158 -19.22838 -19.22079 -19.21921 -19.21811
 Alpha  occ. eigenvalues --  -19.20654 -14.51338 -14.47460 -14.47140 -14.46860
 Alpha  occ. eigenvalues --  -14.46360 -14.45142 -14.44215 -14.41806 -14.38269
 Alpha  occ. eigenvalues --  -10.45300 -10.40265 -10.40202 -10.39846 -10.39709
 Alpha  occ. eigenvalues --  -10.39248 -10.38940 -10.37410 -10.36578 -10.36412
 Alpha  occ. eigenvalues --  -10.35726 -10.34595 -10.34246 -10.33473 -10.33001
 Alpha  occ. eigenvalues --  -10.32558 -10.32418 -10.29347 -10.29037 -10.28719
 Alpha  occ. eigenvalues --  -10.28048 -10.27683 -10.27533 -10.27407 -10.26839
 Alpha  occ. eigenvalues --  -10.26072 -10.25075 -10.24649  -1.23482  -1.18701
 Alpha  occ. eigenvalues --   -1.15719  -1.15360  -1.14489  -1.13900  -1.13609
 Alpha  occ. eigenvalues --   -1.12530  -1.12395  -1.11746  -1.09758  -1.08529
 Alpha  occ. eigenvalues --   -1.03983  -1.03447  -1.03383  -1.02649  -1.01935
 Alpha  occ. eigenvalues --   -1.00278  -0.98129  -0.94873  -0.91492  -0.90672
 Alpha  occ. eigenvalues --   -0.88853  -0.88215  -0.87079  -0.85730  -0.84519
 Alpha  occ. eigenvalues --   -0.83276  -0.82777  -0.81651  -0.80645  -0.77566
 Alpha  occ. eigenvalues --   -0.76876  -0.76053  -0.75703  -0.74797  -0.72722
 Alpha  occ. eigenvalues --   -0.72425  -0.70795  -0.70442  -0.70161  -0.69319
 Alpha  occ. eigenvalues --   -0.68381  -0.68022  -0.67956  -0.67628  -0.67298
 Alpha  occ. eigenvalues --   -0.66904  -0.66486  -0.65518  -0.64711  -0.63888
 Alpha  occ. eigenvalues --   -0.63618  -0.62303  -0.62152  -0.61492  -0.61163
 Alpha  occ. eigenvalues --   -0.60661  -0.59668  -0.59474  -0.58854  -0.58689
 Alpha  occ. eigenvalues --   -0.57106  -0.56985  -0.56756  -0.56246  -0.56000
 Alpha  occ. eigenvalues --   -0.55782  -0.55699  -0.55501  -0.55447  -0.55107
 Alpha  occ. eigenvalues --   -0.54886  -0.54529  -0.54276  -0.54176  -0.53306
 Alpha  occ. eigenvalues --   -0.53083  -0.52701  -0.52444  -0.52090  -0.51931
 Alpha  occ. eigenvalues --   -0.51695  -0.51417  -0.51257  -0.51129  -0.50946
 Alpha  occ. eigenvalues --   -0.50607  -0.50280  -0.50100  -0.49357  -0.49187
 Alpha  occ. eigenvalues --   -0.49025  -0.48810  -0.48686  -0.48510  -0.48363
 Alpha  occ. eigenvalues --   -0.47939  -0.47877  -0.47588  -0.47386  -0.47144
 Alpha  occ. eigenvalues --   -0.46508  -0.46163  -0.45858  -0.45646  -0.45125
 Alpha  occ. eigenvalues --   -0.44961  -0.44550  -0.43929  -0.43095  -0.42614
 Alpha  occ. eigenvalues --   -0.42412  -0.42368  -0.42029  -0.41861  -0.41307
 Alpha  occ. eigenvalues --   -0.40524  -0.39781  -0.39611  -0.39605  -0.38992
 Alpha  occ. eigenvalues --   -0.37928  -0.37369  -0.37263  -0.36856  -0.36759
 Alpha  occ. eigenvalues --   -0.36657  -0.36528  -0.36228  -0.35848  -0.35797
 Alpha  occ. eigenvalues --   -0.35325  -0.34826  -0.33993  -0.33274  -0.30198
 Alpha virt. eigenvalues --   -0.14580  -0.10060  -0.09894  -0.08494  -0.08132
 Alpha virt. eigenvalues --   -0.07693  -0.06970  -0.06054  -0.04271  -0.03414
 Alpha virt. eigenvalues --   -0.02982  -0.02311  -0.01292  -0.00309  -0.00023

 Mulliken charges:
               1
     1  N   -0.730266
     2  H    0.337437
     3  H    0.327608
     4  C   -0.112489
     5  H    0.154014
     6  C    0.621800
     7  C   -0.373251
     8  H    0.198350
     9  H    0.196566
    10  O   -0.500968
    11  C    0.610283
    12  N   -0.722020
    13  H    0.353550
    14  H    0.394832
    15  O   -0.580598
    16  N   -0.598781
    17  H    0.333010
    18  C   -0.091692
    19  H    0.223400
    20  C    0.636562
    21  C   -0.095965
    22  H    0.168708
    23  O   -0.549687
    24  C   -0.293850
    25  H    0.134155
    26  H    0.167708
    27  C   -0.476773
    28  H    0.140388
    29  H    0.177345
    30  H    0.143820
    31  C   -0.460695
    32  H    0.170441
    33  H    0.146256
    34  H    0.169467
    35  N   -0.615363
    36  H    0.359984
    37  C   -0.055755
    38  H    0.195694
    39  C    0.619560
    40  C   -0.472886
    41  H    0.185716
    42  H    0.171345
    43  H    0.177980
    44  O   -0.526827
    45  N   -0.621517
    46  H    0.404893
    47  C   -0.076056
    48  H    0.205726
    49  C    0.683864
    50  C    0.097731
    51  H    0.171210
    52  O   -0.572374
    53  C   -0.501057
    54  H    0.164541
    55  H    0.187484
    56  H    0.160714
    57  O   -0.719228
    58  H    0.479442
    59  N   -0.558124
    60  H    0.421640
    61  C   -0.102965
    62  H    0.207115
    63  C    0.624843
    64  C   -0.073812
    65  H    0.181683
    66  H    0.158450
    67  O   -0.507383
    68  O   -0.649122
    69  H    0.469193
    70  N   -0.559095
    71  H    0.346238
    72  C   -0.252314
    73  H    0.201726
    74  H    0.205278
    75  C    0.641463
    76  O   -0.565196
    77  N   -0.586437
    78  H    0.356855
    79  C   -0.066323
    80  H    0.214900
    81  C    0.595073
    82  C   -0.266914
    83  H    0.142517
    84  H    0.180555
    85  O   -0.438960
    86  C   -0.292127
    87  H    0.152136
    88  H    0.156268
    89  C   -0.249239
    90  H    0.159625
    91  H    0.123355
    92  C   -0.156437
    93  H    0.171533
    94  H    0.093357
    95  N   -0.728700
    96  H    0.285399
    97  H    0.313449
    98  O   -0.583843
    99  H    0.428136
   100  H    0.482722
 Sum of Mulliken charges =   1.00000

 Dipole moment (field-independent basis, Debye):
    X=              2.8104    Y=             -7.2295    Z=              0.1725  Tot=              7.7585
 Quadrupole moment (field-independent basis, Debye-Ang):
   XX=           -231.9537   YY=           -194.0444   ZZ=           -221.8826
   XY=            -60.6882   XZ=            -33.7010   YZ=             26.4872

 Normal termination of Gaussian 16 at Mon Jun  6 07:10:57 2022.
