 Gaussian 16, Revision C.01,
 Gaussian 16:  ES64L-G16RevC.01  3-Jul-2019

 ----------------------------------------------------------------------
 # B3LYP/6-31G* empiricaldispersion=gd3 guess=read geom=check nosymm in
 tegral(ultrafinegrid)
 ----------------------------------------------------------------------

 ------------------------------------------------------
 Candidate Structure: Conf:962 Charge calc in gas phase
 ------------------------------------------------------
 Structure from the checkpoint file:  "conf-962.chk"
 Charge =  1 Multiplicity = 1

                          Input orientation:
 ---------------------------------------------------------------------
 Center     Atomic      Atomic             Coordinates (Angstroms)
 Number     Number       Type             X           Y           Z
 ---------------------------------------------------------------------
      1          7           0       -4.179966   -3.895017    2.616943
      2          1           0       -4.522944   -3.604054    3.529421
      3          1           0       -4.316366   -4.900615    2.538715
      4          6           0       -2.773008   -3.562204    2.441757
      5          1           0       -2.095574   -4.009870    3.189254
      6          6           0       -2.596663   -2.040174    2.536659
      7          6           0       -2.315767   -4.082126    1.053019
      8          1           0       -1.419616   -3.545313    0.723514
      9          1           0       -2.059220   -5.141292    1.132987
     10          8           0       -3.438404   -1.243824    2.089062
     11          6           0       -3.404031   -3.997911   -0.018167
     12          7           0       -3.715666   -2.697065   -0.465531
     13          1           0       -4.581638   -2.715136   -1.001406
     14          1           0       -3.763681   -2.015685    0.298092
     15          8           0       -3.888338   -4.986717   -0.523619
     16          7           0       -1.453284   -1.624612    3.130563
     17          1           0       -0.647104   -2.263952    3.243566
     18          6           0       -1.174583   -0.191761    3.223366
     19          1           0       -2.125257    0.297184    3.451744
     20          6           0       -0.707201    0.267707    1.838232
     21          6           0       -0.154766    0.176030    4.316168
     22          1           0        0.829181   -0.178276    3.987612
     23          8           0        0.476134    0.157718    1.464923
     24          6           0       -0.476780   -0.502717    5.664461
     25          1           0        0.280408   -0.173889    6.387761
     26          1           0       -0.347006   -1.586975    5.559156
     27          6           0       -0.066071    1.707419    4.430537
     28          1           0       -1.026590    2.148801    4.717601
     29          1           0        0.671631    1.990497    5.187954
     30          1           0        0.240482    2.165435    3.482696
     31          6           0       -1.875472   -0.221426    6.226830
     32          1           0       -1.997924   -0.707176    7.200104
     33          1           0       -2.051721    0.849607    6.372501
     34          1           0       -2.661428   -0.607791    5.567807
     35          7           0       -1.676322    0.769542    1.047625
     36          1           0       -2.630837    0.578672    1.346807
     37          6           0       -1.477015    1.120888   -0.358612
     38          1           0       -1.523075    0.217840   -0.974819
     39          6           0       -0.093693    1.711094   -0.507517
     40          6           0       -2.542967    2.132910   -0.804349
     41          1           0       -2.417319    2.376841   -1.863214
     42          1           0       -3.537808    1.695188   -0.675647
     43          1           0       -2.478649    3.049368   -0.212301
     44          8           0        0.173048    2.768983    0.210066
     45          7           0        0.740470    1.202277   -1.371240
     46          1           0        0.503292    0.294879   -1.803170
     47          6           0        2.119700    1.642166   -1.605936
     48          1           0        2.153520    2.736449   -1.660380
     49          6           0        2.522405    1.015442   -2.950309
     50          6           0        3.016158    1.175239   -0.417397
     51          1           0        2.881962    0.091104   -0.313142
     52          8           0        1.887486    0.051687   -3.386883
     53          6           0        4.491498    1.513601   -0.562168
     54          1           0        4.966570    0.917605   -1.345110
     55          1           0        4.987180    1.291913    0.386425
     56          1           0        4.636223    2.580785   -0.768102
     57          8           0        2.507429    1.827644    0.764735
     58          1           0        1.161281    2.778387    0.413355
     59          7           0        3.590209    1.532829   -3.577845
     60          1           0        4.194514    2.204391   -3.111645
     61          6           0        4.266717    0.758022   -4.623033
     62          1           0        3.596702    0.644431   -5.481102
     63          6           0        4.660645   -0.607146   -4.022407
     64          6           0        5.533558    1.543701   -5.023571
     65          1           0        5.243930    2.449185   -5.564865
     66          1           0        6.145920    0.924303   -5.693217
     67          8           0        5.526342   -0.663073   -3.141924
     68          8           0        6.243719    1.964969   -3.872974
     69          1           0        6.507537    1.148479   -3.405533
     70          7           0        3.997389   -1.683847   -4.494820
     71          1           0        3.233101   -1.524211   -5.137409
     72          6           0        4.188091   -3.029692   -3.979947
     73          1           0        4.558054   -3.697359   -4.762754
     74          1           0        4.952986   -2.971871   -3.200155
     75          6           0        2.937421   -3.708459   -3.402462
     76          8           0        2.868821   -4.930904   -3.428536
     77          7           0        1.968113   -2.925955   -2.840874
     78          1           0        1.993207   -1.912974   -2.908681
     79          6           0        0.754152   -3.580911   -2.367303
     80          1           0        0.416074   -4.287697   -3.132221
     81          6           0       -0.366344   -2.594958   -2.105040
     82          6           0        0.964883   -4.401802   -1.062985
     83          1           0        0.019732   -4.912988   -0.844845
     84          1           0        1.699800   -5.175167   -1.300389
     85          8           0       -0.217340   -1.419282   -1.788166
     86          6           0        1.426689   -3.594207    0.156110
     87          1           0        2.421267   -3.170976   -0.043779
     88          1           0        0.758718   -2.737826    0.328123
     89          6           0        1.478037   -4.480918    1.408931
     90          1           0        2.080069   -5.372808    1.191538
     91          1           0        0.466807   -4.837561    1.645111
     92          6           0        2.065614   -3.804841    2.646781
     93          1           0        2.068661   -4.518271    3.477862
     94          1           0        3.116692   -3.536155    2.451306
     95          7           0        1.268178   -2.633888    3.072515
     96          1           0        1.387598   -1.869338    2.405769
     97          1           0        1.643860   -2.284881    3.954081
     98          8           0       -1.540491   -3.202354   -2.145649
     99          1           0       -2.266457   -2.670168   -1.712813
    100          1           0        1.967920    1.173200    1.261589
 ---------------------------------------------------------------------

 SCF Done:  E(RB3LYP) =  -2418.60813675     A.U. after    2 cycles

 Alpha  occ. eigenvalues --  -19.33787 -19.28881 -19.28872 -19.25854 -19.25676
 Alpha  occ. eigenvalues --  -19.25484 -19.24303 -19.23005 -19.22939 -19.20875
 Alpha  occ. eigenvalues --  -19.19785 -14.53078 -14.49236 -14.49085 -14.47569
 Alpha  occ. eigenvalues --  -14.46234 -14.44808 -14.43851 -14.42563 -14.40876
 Alpha  occ. eigenvalues --  -10.47200 -10.43091 -10.42851 -10.41975 -10.40085
 Alpha  occ. eigenvalues --  -10.39372 -10.38424 -10.38185 -10.37955 -10.37586
 Alpha  occ. eigenvalues --  -10.37569 -10.35000 -10.34053 -10.33945 -10.32954
 Alpha  occ. eigenvalues --  -10.32935 -10.32060 -10.30972 -10.30212 -10.29491
 Alpha  occ. eigenvalues --  -10.29112 -10.28883 -10.27492 -10.27420 -10.27284
 Alpha  occ. eigenvalues --  -10.27112 -10.27103 -10.25688  -1.24907  -1.20892
 Alpha  occ. eigenvalues --   -1.18075  -1.17162  -1.15774  -1.14894  -1.14367
 Alpha  occ. eigenvalues --   -1.12632  -1.12224  -1.11949  -1.11741  -1.10303
 Alpha  occ. eigenvalues --   -1.06026  -1.05436  -1.03595  -1.03064  -1.00956
 Alpha  occ. eigenvalues --   -0.99013  -0.98491  -0.98041  -0.93952  -0.91418
 Alpha  occ. eigenvalues --   -0.90316  -0.89346  -0.87627  -0.85663  -0.85392
 Alpha  occ. eigenvalues --   -0.84941  -0.83287  -0.82194  -0.80606  -0.79525
 Alpha  occ. eigenvalues --   -0.78823  -0.76780  -0.75518  -0.74886  -0.74071
 Alpha  occ. eigenvalues --   -0.73562  -0.73260  -0.72791  -0.72106  -0.71187
 Alpha  occ. eigenvalues --   -0.70311  -0.69577  -0.68692  -0.67531  -0.67368
 Alpha  occ. eigenvalues --   -0.66842  -0.66248  -0.65882  -0.65045  -0.64546
 Alpha  occ. eigenvalues --   -0.64018  -0.63068  -0.62296  -0.61716  -0.61485
 Alpha  occ. eigenvalues --   -0.61366  -0.61063  -0.60549  -0.60168  -0.59704
 Alpha  occ. eigenvalues --   -0.59285  -0.59134  -0.58210  -0.57844  -0.57442
 Alpha  occ. eigenvalues --   -0.57298  -0.56729  -0.56683  -0.55872  -0.55612
 Alpha  occ. eigenvalues --   -0.55513  -0.55012  -0.54832  -0.54493  -0.54075
 Alpha  occ. eigenvalues --   -0.53758  -0.53462  -0.52940  -0.52892  -0.52728
 Alpha  occ. eigenvalues --   -0.52198  -0.52051  -0.52029  -0.51794  -0.51672
 Alpha  occ. eigenvalues --   -0.51423  -0.51229  -0.50832  -0.50302  -0.50033
 Alpha  occ. eigenvalues --   -0.49794  -0.49601  -0.49388  -0.49264  -0.49195
 Alpha  occ. eigenvalues --   -0.48975  -0.48707  -0.48395  -0.48164  -0.47604
 Alpha  occ. eigenvalues --   -0.47505  -0.47153  -0.47041  -0.46198  -0.46074
 Alpha  occ. eigenvalues --   -0.45853  -0.45514  -0.45280  -0.44808  -0.44484
 Alpha  occ. eigenvalues --   -0.43904  -0.43069  -0.42823  -0.42220  -0.42053
 Alpha  occ. eigenvalues --   -0.41832  -0.41657  -0.41601  -0.41426  -0.40556
 Alpha  occ. eigenvalues --   -0.40129  -0.39818  -0.39463  -0.38455  -0.37863
 Alpha  occ. eigenvalues --   -0.37673  -0.37036  -0.36726  -0.35702  -0.35616
 Alpha  occ. eigenvalues --   -0.35120  -0.34124  -0.33885  -0.33262  -0.32890
 Alpha virt. eigenvalues --   -0.16371  -0.12307  -0.11735  -0.10163  -0.09347
 Alpha virt. eigenvalues --   -0.09284  -0.07489  -0.06415  -0.05076  -0.02997
 Alpha virt. eigenvalues --   -0.02736  -0.02348  -0.02004  -0.01773  -0.00420

 Mulliken charges:
               1
     1  N   -0.716641
     2  H    0.321128
     3  H    0.328141
     4  C   -0.064380
     5  H    0.150169
     6  C    0.620473
     7  C   -0.393138
     8  H    0.168808
     9  H    0.195636
    10  O   -0.557193
    11  C    0.579376
    12  N   -0.822408
    13  H    0.348055
    14  H    0.376579
    15  O   -0.441057
    16  N   -0.636049
    17  H    0.403610
    18  C   -0.052508
    19  H    0.182791
    20  C    0.661831
    21  C   -0.107872
    22  H    0.127942
    23  O   -0.608080
    24  C   -0.262758
    25  H    0.151183
    26  H    0.138757
    27  C   -0.467779
    28  H    0.162779
    29  H    0.169759
    30  H    0.142915
    31  C   -0.461434
    32  H    0.166464
    33  H    0.158143
    34  H    0.150356
    35  N   -0.598933
    36  H    0.382041
    37  C   -0.029304
    38  H    0.219401
    39  C    0.633455
    40  C   -0.483037
    41  H    0.186435
    42  H    0.188849
    43  H    0.200965
    44  O   -0.576588
    45  N   -0.583239
    46  H    0.459590
    47  C   -0.141023
    48  H    0.200428
    49  C    0.645340
    50  C    0.137806
    51  H    0.172585
    52  O   -0.541303
    53  C   -0.494706
    54  H    0.197678
    55  H    0.191832
    56  H    0.165836
    57  O   -0.675660
    58  H    0.468963
    59  N   -0.594683
    60  H    0.370931
    61  C   -0.074984
    62  H    0.175791
    63  C    0.622014
    64  C   -0.069989
    65  H    0.179968
    66  H    0.171024
    67  O   -0.542229
    68  O   -0.625502
    69  H    0.428470
    70  N   -0.584698
    71  H    0.352102
    72  C   -0.233510
    73  H    0.209374
    74  H    0.225519
    75  C    0.585946
    76  O   -0.499306
    77  N   -0.658144
    78  H    0.387772
    79  C   -0.005073
    80  H    0.205457
    81  C    0.578726
    82  C   -0.299450
    83  H    0.167491
    84  H    0.202934
    85  O   -0.516464
    86  C   -0.291376
    87  H    0.139815
    88  H    0.136576
    89  C   -0.259447
    90  H    0.158531
    91  H    0.142433
    92  C   -0.144144
    93  H    0.161436
    94  H    0.136364
    95  N   -0.784079
    96  H    0.333910
    97  H    0.326495
    98  O   -0.562090
    99  H    0.445418
   100  H    0.459663
 Sum of Mulliken charges =   1.00000

 Dipole moment (field-independent basis, Debye):
    X=              3.6919    Y=              2.3688    Z=              0.4707  Tot=              4.4117
 Quadrupole moment (field-independent basis, Debye-Ang):
   XX=           -255.3938   YY=           -277.8625   ZZ=           -209.5340
   XY=             -1.2465   XZ=            -28.2917   YZ=            -31.5195

 Normal termination of Gaussian 16 at Mon Jun  6 07:11:47 2022.
