 Gaussian 16, Revision C.01,
 Gaussian 16:  ES64L-G16RevC.01  3-Jul-2019

 ----------------------------------------------------------------------
 # B3LYP/6-31G* empiricaldispersion=gd3 guess=read geom=check nosymm in
 tegral(ultrafinegrid)
 ----------------------------------------------------------------------

 ------------------------------------------------------
 Candidate Structure: Conf:217 Charge calc in gas phase
 ------------------------------------------------------
 Structure from the checkpoint file:  "conf-217.chk"
 Charge =  1 Multiplicity = 1

                          Input orientation:
 ---------------------------------------------------------------------
 Center     Atomic      Atomic             Coordinates (Angstroms)
 Number     Number       Type             X           Y           Z
 ---------------------------------------------------------------------
      1          7           0       -7.315336    1.741165    5.084544
      2          1           0       -6.922790    2.609238    4.717853
      3          1           0       -7.368549    1.862216    6.093223
      4          6           0       -6.391212    0.658033    4.755404
      5          1           0       -6.379082   -0.070762    5.574016
      6          6           0       -4.959554    1.176954    4.514617
      7          6           0       -6.869263   -0.089241    3.476789
      8          1           0       -6.226514   -0.946355    3.258232
      9          1           0       -7.884400   -0.449156    3.666929
     10          8           0       -4.742902    2.375203    4.312597
     11          6           0       -6.819990    0.827840    2.259113
     12          7           0       -7.878828    1.669079    2.136060
     13          1           0       -7.843185    2.380719    1.418187
     14          1           0       -8.501226    1.804858    2.923617
     15          8           0       -5.871140    0.809758    1.477069
     16          7           0       -3.973418    0.243326    4.482652
     17          1           0       -4.225126   -0.734810    4.513598
     18          6           0       -2.593649    0.583927    4.127654
     19          1           0       -2.427384    1.580828    4.544260
     20          6           0       -2.502061    0.715457    2.590538
     21          6           0       -1.584655   -0.384971    4.781635
     22          1           0       -1.729879   -0.239600    5.861737
     23          8           0       -2.046835   -0.194169    1.856666
     24          6           0       -0.124756   -0.000297    4.461993
     25          1           0        0.094115   -0.247180    3.416815
     26          1           0        0.521387   -0.652074    5.062445
     27          6           0       -1.835277   -1.870366    4.468937
     28          1           0       -1.771847   -2.067784    3.396809
     29          1           0       -1.088004   -2.485911    4.980517
     30          1           0       -2.813420   -2.217152    4.824813
     31          6           0        0.240562    1.461650    4.744525
     32          1           0        1.316067    1.623522    4.617491
     33          1           0       -0.271740    2.159565    4.071804
     34          1           0       -0.016030    1.742940    5.772738
     35          7           0       -2.989327    1.862763    2.105972
     36          1           0       -3.476128    2.457567    2.778896
     37          6           0       -3.279047    2.113338    0.681301
     38          1           0       -3.852854    1.259653    0.309343
     39          6           0       -1.942214    2.247336   -0.072722
     40          6           0       -4.106803    3.386613    0.557761
     41          1           0       -4.371061    3.557092   -0.489603
     42          1           0       -5.028260    3.275281    1.134098
     43          1           0       -3.535316    4.249889    0.909837
     44          8           0       -1.285446    3.275763   -0.101196
     45          7           0       -1.535929    1.084972   -0.681266
     46          1           0       -2.061981    0.249494   -0.456028
     47          6           0       -0.157815    0.889155   -1.090840
     48          1           0        0.211725    1.815976   -1.535636
     49          6           0       -0.110065   -0.297125   -2.049413
     50          6           0        0.774967    0.500457    0.094852
     51          1           0        1.727046    0.149828   -0.310938
     52          8           0       -0.390118   -1.431459   -1.586885
     53          6           0        0.974666    1.538594    1.176165
     54          1           0        1.412456    2.437611    0.734820
     55          1           0        1.652691    1.149382    1.940386
     56          1           0        0.034782    1.830883    1.645847
     57          8           0        0.185095   -0.735159    0.712389
     58          1           0       -0.663529   -0.502293    1.246031
     59          7           0        0.249426   -0.106161   -3.317560
     60          1           0        0.596183    0.809818   -3.584653
     61          6           0        0.841474   -1.200091   -4.075667
     62          1           0        0.181019   -2.070234   -4.023238
     63          6           0        2.199045   -1.560487   -3.388712
     64          6           0        0.996912   -0.750526   -5.528336
     65          1           0       -0.000387   -0.589295   -5.962565
     66          1           0        1.498837   -1.533999   -6.112486
     67          8           0        2.563751   -1.001007   -2.356480
     68          8           0        1.755440    0.451458   -5.486474
     69          1           0        1.815305    0.822395   -6.379793
     70          7           0        2.896491   -2.534093   -3.995076
     71          1           0        2.604900   -2.977243   -4.862552
     72          6           0        4.191589   -2.976082   -3.527087
     73          1           0        4.867369   -2.121060   -3.402090
     74          1           0        4.109557   -3.469073   -2.549600
     75          6           0        4.741375   -3.954550   -4.575910
     76          8           0        4.085794   -4.233362   -5.578705
     77          7           0        5.965352   -4.457009   -4.302353
     78          1           0        6.429605   -4.203957   -3.440000
     79          6           0        6.626750   -5.433220   -5.162390
     80          1           0        5.853956   -5.877357   -5.794868
     81          6           0        7.255468   -6.566134   -4.361360
     82          6           0        7.709140   -4.798323   -6.065363
     83          1           0        8.479418   -4.340955   -5.428627
     84          1           0        8.193656   -5.611978   -6.617583
     85          8           0        7.607499   -7.612657   -4.847632
     86          6           0        7.146988   -3.758939   -7.039700
     87          1           0        6.370868   -4.226739   -7.660161
     88          1           0        6.646150   -2.960071   -6.476659
     89          6           0        8.236783   -3.147199   -7.926266
     90          1           0        8.752444   -3.948106   -8.477209
     91          1           0        8.999503   -2.655618   -7.308809
     92          6           0        7.688839   -2.124427   -8.924009
     93          1           0        6.918972   -2.612756   -9.551816
     94          1           0        7.177078   -1.323968   -8.372295
     95          7           0        8.785475   -1.512192   -9.680406
     96          1           0        8.418647   -0.809312  -10.319968
     97          1           0        9.231071   -2.217702  -10.266407
     98          8           0        7.443730   -6.246598   -3.054497
     99          1           0        7.896153   -7.007277   -2.642521
    100          1           0       -0.116442   -1.293909   -0.142357
 ---------------------------------------------------------------------

 SCF Done:  E(RB3LYP) =  -2418.56200585     A.U. after    3 cycles

 Alpha  occ. eigenvalues --  -19.34508 -19.27318 -19.26192 -19.25741 -19.24305
 Alpha  occ. eigenvalues --  -19.22372 -19.21708 -19.21295 -19.20975 -19.20558
 Alpha  occ. eigenvalues --  -19.19468 -14.48625 -14.46891 -14.46740 -14.46714
 Alpha  occ. eigenvalues --  -14.45268 -14.44729 -14.43260 -14.40441 -14.35571
 Alpha  occ. eigenvalues --  -10.42360 -10.40570 -10.39298 -10.38823 -10.38705
 Alpha  occ. eigenvalues --  -10.38516 -10.38061 -10.37909 -10.37025 -10.36101
 Alpha  occ. eigenvalues --  -10.34785 -10.34473 -10.33535 -10.32675 -10.32538
 Alpha  occ. eigenvalues --  -10.32046 -10.31223 -10.29002 -10.29000 -10.28136
 Alpha  occ. eigenvalues --  -10.27202 -10.26327 -10.26189 -10.26115 -10.25601
 Alpha  occ. eigenvalues --  -10.25460 -10.24119 -10.23073  -1.21953  -1.17868
 Alpha  occ. eigenvalues --   -1.17104  -1.15373  -1.13996  -1.13714  -1.13551
 Alpha  occ. eigenvalues --   -1.12843  -1.12244  -1.11021  -1.08887  -1.05320
 Alpha  occ. eigenvalues --   -1.03762  -1.03532  -1.02657  -1.01808  -1.01243
 Alpha  occ. eigenvalues --   -0.98777  -0.97337  -0.92369  -0.91448  -0.90595
 Alpha  occ. eigenvalues --   -0.88299  -0.87156  -0.87042  -0.85149  -0.83600
 Alpha  occ. eigenvalues --   -0.82812  -0.82381  -0.80468  -0.80304  -0.76175
 Alpha  occ. eigenvalues --   -0.75458  -0.75136  -0.74801  -0.73411  -0.72489
 Alpha  occ. eigenvalues --   -0.71654  -0.70505  -0.69730  -0.69222  -0.68849
 Alpha  occ. eigenvalues --   -0.68733  -0.68109  -0.67338  -0.66908  -0.66808
 Alpha  occ. eigenvalues --   -0.65841  -0.65363  -0.64414  -0.63723  -0.63431
 Alpha  occ. eigenvalues --   -0.62680  -0.62502  -0.61669  -0.61159  -0.60241
 Alpha  occ. eigenvalues --   -0.59792  -0.59446  -0.58631  -0.58094  -0.57682
 Alpha  occ. eigenvalues --   -0.56905  -0.56668  -0.56525  -0.55997  -0.55740
 Alpha  occ. eigenvalues --   -0.55151  -0.54979  -0.54464  -0.54434  -0.54163
 Alpha  occ. eigenvalues --   -0.53607  -0.53506  -0.53244  -0.52892  -0.52526
 Alpha  occ. eigenvalues --   -0.52224  -0.52014  -0.51663  -0.51634  -0.51460
 Alpha  occ. eigenvalues --   -0.51208  -0.50934  -0.50492  -0.50286  -0.50076
 Alpha  occ. eigenvalues --   -0.49724  -0.49606  -0.49188  -0.48873  -0.48713
 Alpha  occ. eigenvalues --   -0.48579  -0.48215  -0.47914  -0.47764  -0.47309
 Alpha  occ. eigenvalues --   -0.47091  -0.46949  -0.46319  -0.45976  -0.45917
 Alpha  occ. eigenvalues --   -0.45863  -0.45754  -0.45722  -0.45056  -0.44975
 Alpha  occ. eigenvalues --   -0.44354  -0.44306  -0.44291  -0.42620  -0.42577
 Alpha  occ. eigenvalues --   -0.42026  -0.41648  -0.41268  -0.40573  -0.39818
 Alpha  occ. eigenvalues --   -0.39320  -0.39060  -0.38939  -0.38568  -0.38472
 Alpha  occ. eigenvalues --   -0.38308  -0.38121  -0.36592  -0.36377  -0.36129
 Alpha  occ. eigenvalues --   -0.35582  -0.35078  -0.34953  -0.34742  -0.34445
 Alpha  occ. eigenvalues --   -0.34317  -0.33460  -0.32842  -0.32617  -0.27804
 Alpha virt. eigenvalues --   -0.11753  -0.10937  -0.08533  -0.07880  -0.07299
 Alpha virt. eigenvalues --   -0.06313  -0.06055  -0.05711  -0.03724  -0.02679
 Alpha virt. eigenvalues --   -0.02389  -0.01607  -0.01139  -0.00530   0.00101

 Mulliken charges:
               1
     1  N   -0.724602
     2  H    0.331319
     3  H    0.324100
     4  C   -0.097858
     5  H    0.166452
     6  C    0.629535
     7  C   -0.338999
     8  H    0.162368
     9  H    0.185749
    10  O   -0.546127
    11  C    0.583584
    12  N   -0.726981
    13  H    0.345657
    14  H    0.364237
    15  O   -0.532857
    16  N   -0.603170
    17  H    0.348149
    18  C   -0.074789
    19  H    0.196134
    20  C    0.662167
    21  C   -0.089566
    22  H    0.151386
    23  O   -0.629851
    24  C   -0.274541
    25  H    0.129967
    26  H    0.156588
    27  C   -0.477563
    28  H    0.173942
    29  H    0.167189
    30  H    0.136486
    31  C   -0.466732
    32  H    0.161372
    33  H    0.147308
    34  H    0.162875
    35  N   -0.591420
    36  H    0.397994
    37  C   -0.039428
    38  H    0.205215
    39  C    0.625010
    40  C   -0.489350
    41  H    0.172713
    42  H    0.176736
    43  H    0.184829
    44  O   -0.508458
    45  N   -0.599802
    46  H    0.350096
    47  C   -0.101045
    48  H    0.208675
    49  C    0.690610
    50  C    0.058661
    51  H    0.238895
    52  O   -0.596844
    53  C   -0.479778
    54  H    0.202659
    55  H    0.188062
    56  H    0.184572
    57  O   -0.675474
    58  H    0.510844
    59  N   -0.573940
    60  H    0.372922
    61  C   -0.104578
    62  H    0.214418
    63  C    0.660046
    64  C   -0.061119
    65  H    0.165973
    66  H    0.163545
    67  O   -0.542766
    68  O   -0.622869
    69  H    0.422022
    70  N   -0.623853
    71  H    0.365949
    72  C   -0.197658
    73  H    0.199288
    74  H    0.194196
    75  C    0.614315
    76  O   -0.527565
    77  N   -0.607421
    78  H    0.350829
    79  C   -0.063961
    80  H    0.213869
    81  C    0.592747
    82  C   -0.266344
    83  H    0.142386
    84  H    0.176535
    85  O   -0.442210
    86  C   -0.261818
    87  H    0.150410
    88  H    0.130422
    89  C   -0.252705
    90  H    0.133363
    91  H    0.150499
    92  C   -0.131177
    93  H    0.113925
    94  H    0.131135
    95  N   -0.715219
    96  H    0.298806
    97  H    0.296744
    98  O   -0.584626
    99  H    0.424673
   100  H    0.483913
 Sum of Mulliken charges =   1.00000

 Dipole moment (field-independent basis, Debye):
    X=             -3.4223    Y=             -1.9174    Z=             -0.0710  Tot=              3.9235
 Quadrupole moment (field-independent basis, Debye-Ang):
   XX=           -176.0258   YY=           -275.5990   ZZ=           -157.8216
   XY=            -37.3194   XZ=            -67.9092   YZ=              2.7296

 Normal termination of Gaussian 16 at Mon Jun  6 07:19:20 2022.
