 Gaussian 16, Revision C.01,
 Gaussian 16:  ES64L-G16RevC.01  3-Jul-2019

 ----------------------------------------------------------------------
 # B3LYP/6-31G* empiricaldispersion=gd3 guess=read geom=check nosymm in
 tegral(ultrafinegrid)
 ----------------------------------------------------------------------

 ------------------------------------------------------
 Candidate Structure: Conf:797 Charge calc in gas phase
 ------------------------------------------------------
 Structure from the checkpoint file:  "conf-797.chk"
 Charge =  1 Multiplicity = 1

                          Input orientation:
 ---------------------------------------------------------------------
 Center     Atomic      Atomic             Coordinates (Angstroms)
 Number     Number       Type             X           Y           Z
 ---------------------------------------------------------------------
      1          7           0       -2.395863   -2.849673   -2.363810
      2          1           0       -3.039811   -2.178713   -2.785681
      3          1           0       -2.981372   -3.534250   -1.887453
      4          6           0       -1.578602   -2.135555   -1.385607
      5          1           0       -1.076133   -2.867677   -0.745526
      6          6           0       -2.395382   -1.154069   -0.533083
      7          6           0       -0.513477   -1.331354   -2.149816
      8          1           0        0.028409   -2.033704   -2.795492
      9          1           0       -1.012956   -0.616302   -2.814825
     10          8           0       -3.225295   -0.408249   -1.060043
     11          6           0        0.506514   -0.591568   -1.289083
     12          7           0        1.250596    0.327130   -1.965360
     13          1           0        2.135076    0.605111   -1.544284
     14          1           0        1.192730    0.351289   -2.997202
     15          8           0        0.647978   -0.802690   -0.079207
     16          7           0       -2.111719   -1.141650    0.801269
     17          1           0       -1.207411   -1.535917    1.038883
     18          6           0       -2.536238   -0.005392    1.624538
     19          1           0       -3.542189    0.252214    1.288390
     20          6           0       -1.575503    1.133731    1.253410
     21          6           0       -2.592110   -0.342822    3.130391
     22          1           0       -3.443807   -1.030840    3.228648
     23          8           0       -0.482151    1.270333    1.835264
     24          6           0       -2.900676    0.913784    3.971558
     25          1           0       -2.022960    1.572394    3.963393
     26          1           0       -3.030899    0.589028    5.011301
     27          6           0       -1.346019   -1.066876    3.666949
     28          1           0       -0.449672   -0.451718    3.557729
     29          1           0       -1.481759   -1.290264    4.730547
     30          1           0       -1.177374   -2.024884    3.162027
     31          6           0       -4.142568    1.698905    3.530609
     32          1           0       -4.375904    2.488862    4.251671
     33          1           0       -3.999373    2.185104    2.558350
     34          1           0       -5.021267    1.046563    3.455417
     35          7           0       -1.972217    1.903920    0.227374
     36          1           0       -2.809565    1.584669   -0.255065
     37          6           0       -1.166259    2.885452   -0.518484
     38          1           0       -0.748239    2.368700   -1.393161
     39          6           0       -0.004801    3.434082    0.337596
     40          6           0       -2.062895    4.038144   -0.971253
     41          1           0       -1.500519    4.722549   -1.613677
     42          1           0       -2.919718    3.662023   -1.540301
     43          1           0       -2.418000    4.592294   -0.099302
     44          8           0       -0.152715    4.319025    1.164693
     45          7           0        1.208200    2.880433    0.031877
     46          1           0        1.240267    2.109241   -0.625874
     47          6           0        2.394861    3.137707    0.808490
     48          1           0        2.407193    4.195176    1.093320
     49          6           0        3.625526    2.765070   -0.022384
     50          6           0        2.456418    2.305623    2.138966
     51          1           0        3.500710    2.189038    2.440167
     52          8           0        3.587844    1.846582   -0.840516
     53          6           0        1.665822    2.885004    3.300899
     54          1           0        2.072547    3.870395    3.548350
     55          1           0        1.768489    2.232182    4.172533
     56          1           0        0.613794    3.003006    3.050863
     57          8           0        2.010349    0.926015    1.905997
     58          1           0        1.012374    0.880986    1.671837
     59          7           0        4.789922    3.371764    0.334964
     60          1           0        4.776933    4.314855    0.710522
     61          6           0        6.053149    2.944110   -0.271479
     62          1           0        6.002890    3.025811   -1.360961
     63          6           0        6.329161    1.460978    0.038804
     64          6           0        7.180820    3.830033    0.267649
     65          1           0        8.098460    3.596083   -0.287752
     66          1           0        7.354774    3.604063    1.331826
     67          8           0        6.875616    0.717523   -0.760818
     68          8           0        6.755498    5.173117    0.084824
     69          1           0        7.451528    5.770814    0.398313
     70          7           0        5.934379    1.048679    1.285984
     71          1           0        5.405910    1.702521    1.844060
     72          6           0        5.790273   -0.371173    1.571710
     73          1           0        6.757087   -0.870540    1.468661
     74          1           0        5.445088   -0.488591    2.601363
     75          6           0        4.745312   -0.963861    0.620423
     76          8           0        3.539815   -0.650407    0.687104
     77          7           0        5.207383   -1.788025   -0.324529
     78          1           0        6.212018   -1.855949   -0.436658
     79          6           0        4.399698   -2.154387   -1.487810
     80          1           0        3.357223   -2.192287   -1.167242
     81          6           0        4.763651   -3.527510   -2.024929
     82          6           0        4.566467   -1.081143   -2.591754
     83          1           0        4.393351   -0.115986   -2.105929
     84          1           0        5.610853   -1.070470   -2.927088
     85          8           0        4.004110   -4.220594   -2.657848
     86          6           0        3.606386   -1.245846   -3.774549
     87          1           0        3.899642   -2.095661   -4.401734
     88          1           0        2.612715   -1.488429   -3.380444
     89          6           0        3.533903    0.041397   -4.608205
     90          1           0        4.482069    0.193185   -5.140593
     91          1           0        3.415297    0.901880   -3.934995
     92          6           0        2.383427    0.066085   -5.617980
     93          1           0        2.391094    1.029145   -6.139112
     94          1           0        2.529303   -0.711437   -6.382279
     95          7           0        1.072939   -0.071153   -4.933055
     96          1           0        0.813505   -1.055451   -4.887399
     97          1           0        0.344708    0.370927   -5.491170
     98          8           0        6.059034   -3.840812   -1.787535
     99          1           0        6.231279   -4.706062   -2.206099
    100          1           0        2.646989    0.290191    1.362822
 ---------------------------------------------------------------------

 SCF Done:  E(RB3LYP) =  -2418.59845737     A.U. after    2 cycles

 Alpha  occ. eigenvalues --  -19.33914 -19.29171 -19.26190 -19.25469 -19.25311
 Alpha  occ. eigenvalues --  -19.23136 -19.23104 -19.22925 -19.21501 -19.21227
 Alpha  occ. eigenvalues --  -19.20816 -14.48819 -14.48137 -14.47993 -14.46775
 Alpha  occ. eigenvalues --  -14.46073 -14.44658 -14.43225 -14.41892 -14.39306
 Alpha  occ. eigenvalues --  -10.41973 -10.41669 -10.41395 -10.40300 -10.39618
 Alpha  occ. eigenvalues --  -10.38911 -10.38794 -10.38513 -10.37028 -10.36002
 Alpha  occ. eigenvalues --  -10.35281 -10.35174 -10.34802 -10.33625 -10.33447
 Alpha  occ. eigenvalues --  -10.31824 -10.30865 -10.29621 -10.28364 -10.28115
 Alpha  occ. eigenvalues --  -10.27817 -10.27264 -10.26767 -10.26699 -10.26476
 Alpha  occ. eigenvalues --  -10.25223 -10.24768 -10.24250  -1.21069  -1.19862
 Alpha  occ. eigenvalues --   -1.17361  -1.16531  -1.14974  -1.14722  -1.13514
 Alpha  occ. eigenvalues --   -1.13228  -1.12715  -1.12190  -1.10953  -1.05555
 Alpha  occ. eigenvalues --   -1.04799  -1.03637  -1.03340  -1.02984  -1.01321
 Alpha  occ. eigenvalues --   -0.98966  -0.97550  -0.96866  -0.91649  -0.90063
 Alpha  occ. eigenvalues --   -0.89047  -0.88483  -0.86997  -0.85916  -0.84651
 Alpha  occ. eigenvalues --   -0.83275  -0.82578  -0.80984  -0.79091  -0.78695
 Alpha  occ. eigenvalues --   -0.76040  -0.75623  -0.74733  -0.73547  -0.73378
 Alpha  occ. eigenvalues --   -0.72611  -0.72208  -0.70686  -0.70241  -0.69755
 Alpha  occ. eigenvalues --   -0.69649  -0.68917  -0.68393  -0.67282  -0.66298
 Alpha  occ. eigenvalues --   -0.65901  -0.65228  -0.64932  -0.64433  -0.64030
 Alpha  occ. eigenvalues --   -0.63558  -0.62482  -0.61781  -0.61146  -0.60997
 Alpha  occ. eigenvalues --   -0.60495  -0.59967  -0.59820  -0.58970  -0.58872
 Alpha  occ. eigenvalues --   -0.58141  -0.57827  -0.57445  -0.56990  -0.56668
 Alpha  occ. eigenvalues --   -0.56559  -0.56223  -0.55863  -0.55595  -0.55464
 Alpha  occ. eigenvalues --   -0.54414  -0.54226  -0.53962  -0.53780  -0.53452
 Alpha  occ. eigenvalues --   -0.53038  -0.52945  -0.52516  -0.51595  -0.51376
 Alpha  occ. eigenvalues --   -0.51295  -0.51064  -0.50657  -0.50403  -0.50257
 Alpha  occ. eigenvalues --   -0.50107  -0.49875  -0.49695  -0.49433  -0.49184
 Alpha  occ. eigenvalues --   -0.49074  -0.48902  -0.48449  -0.48430  -0.48274
 Alpha  occ. eigenvalues --   -0.48163  -0.47515  -0.47408  -0.47192  -0.46626
 Alpha  occ. eigenvalues --   -0.46190  -0.46086  -0.45738  -0.45490  -0.45110
 Alpha  occ. eigenvalues --   -0.44604  -0.44383  -0.44067  -0.43602  -0.43169
 Alpha  occ. eigenvalues --   -0.42998  -0.42038  -0.41920  -0.40834  -0.40623
 Alpha  occ. eigenvalues --   -0.40502  -0.40348  -0.39877  -0.39790  -0.39056
 Alpha  occ. eigenvalues --   -0.38733  -0.38319  -0.37540  -0.37133  -0.36771
 Alpha  occ. eigenvalues --   -0.36636  -0.36543  -0.35923  -0.35589  -0.35278
 Alpha  occ. eigenvalues --   -0.35140  -0.34585  -0.34253  -0.33200  -0.31563
 Alpha virt. eigenvalues --   -0.11774  -0.11251  -0.09640  -0.09486  -0.08380
 Alpha virt. eigenvalues --   -0.08080  -0.07986  -0.06544  -0.05912  -0.03205
 Alpha virt. eigenvalues --   -0.02969  -0.02197  -0.01856  -0.01097  -0.00338

 Mulliken charges:
               1
     1  N   -0.705539
     2  H    0.317090
     3  H    0.315402
     4  C   -0.066613
     5  H    0.158363
     6  C    0.595338
     7  C   -0.372874
     8  H    0.197380
     9  H    0.176643
    10  O   -0.549663
    11  C    0.596287
    12  N   -0.854840
    13  H    0.387392
    14  H    0.416311
    15  O   -0.560510
    16  N   -0.589840
    17  H    0.363887
    18  C   -0.077056
    19  H    0.186309
    20  C    0.661093
    21  C   -0.076000
    22  H    0.148267
    23  O   -0.623820
    24  C   -0.272104
    25  H    0.151409
    26  H    0.148034
    27  C   -0.478168
    28  H    0.160257
    29  H    0.160055
    30  H    0.143349
    31  C   -0.459763
    32  H    0.163052
    33  H    0.140212
    34  H    0.153971
    35  N   -0.588147
    36  H    0.377690
    37  C   -0.043583
    38  H    0.169856
    39  C    0.634374
    40  C   -0.463812
    41  H    0.170568
    42  H    0.162140
    43  H    0.199166
    44  O   -0.509990
    45  N   -0.646787
    46  H    0.380834
    47  C   -0.046352
    48  H    0.198543
    49  C    0.608588
    50  C    0.078187
    51  H    0.151574
    52  O   -0.516867
    53  C   -0.466711
    54  H    0.170179
    55  H    0.173781
    56  H    0.238827
    57  O   -0.693564
    58  H    0.533402
    59  N   -0.651066
    60  H    0.368920
    61  C   -0.032974
    62  H    0.209948
    63  C    0.614526
    64  C   -0.062368
    65  H    0.181502
    66  H    0.143525
    67  O   -0.512755
    68  O   -0.623939
    69  H    0.421824
    70  N   -0.591578
    71  H    0.351093
    72  C   -0.237967
    73  H    0.200434
    74  H    0.195398
    75  C    0.646416
    76  O   -0.583049
    77  N   -0.550408
    78  H    0.373432
    79  C   -0.085252
    80  H    0.214955
    81  C    0.602571
    82  C   -0.294489
    83  H    0.190256
    84  H    0.166212
    85  O   -0.444943
    86  C   -0.277079
    87  H    0.163009
    88  H    0.133524
    89  C   -0.258802
    90  H    0.151271
    91  H    0.138172
    92  C   -0.154177
    93  H    0.158199
    94  H    0.150613
    95  N   -0.762513
    96  H    0.326260
    97  H    0.324914
    98  O   -0.576699
    99  H    0.429707
   100  H    0.518168
 Sum of Mulliken charges =   1.00000

 Dipole moment (field-independent basis, Debye):
    X=             15.6887    Y=              5.1860    Z=              0.1958  Tot=             16.5248
 Quadrupole moment (field-independent basis, Debye-Ang):
   XX=           -159.5633   YY=           -242.4897   ZZ=           -233.2105
   XY=             29.3759   XZ=             10.3686   YZ=              6.3129

 Normal termination of Gaussian 16 at Mon Jun  6 07:11:45 2022.
