 Gaussian 16, Revision C.01,
 Gaussian 16:  ES64L-G16RevC.01  3-Jul-2019

 ----------------------------------------------------------------------
 # B3LYP/6-31G* empiricaldispersion=gd3 guess=read geom=check nosymm in
 tegral(ultrafinegrid)
 ----------------------------------------------------------------------

 -----------------------------------------------------
 Candidate Structure: Conf:34 Charge calc in gas phase
 -----------------------------------------------------
 Structure from the checkpoint file:  "conf-34.chk"
 Charge =  1 Multiplicity = 1

                          Input orientation:
 ---------------------------------------------------------------------
 Center     Atomic      Atomic             Coordinates (Angstroms)
 Number     Number       Type             X           Y           Z
 ---------------------------------------------------------------------
      1          7           0       -0.338019    1.513086   -1.093751
      2          1           0       -0.352346    2.408270   -0.608868
      3          1           0       -0.341879    1.699130   -2.093483
      4          6           0       -1.512926    0.732288   -0.724076
      5          1           0       -2.454435    1.135048   -1.142373
      6          6           0       -1.645229    0.727316    0.807598
      7          6           0       -1.372136   -0.758357   -1.153825
      8          1           0       -0.788041   -1.311865   -0.419382
      9          1           0       -2.366800   -1.223405   -1.177260
     10          8           0       -0.725253    1.054785    1.551818
     11          6           0       -0.713382   -0.989643   -2.508751
     12          7           0       -1.209957   -0.264166   -3.550991
     13          1           0       -0.867771   -0.475647   -4.479696
     14          1           0       -2.084340    0.237526   -3.479683
     15          8           0        0.211578   -1.786794   -2.655420
     16          7           0       -2.838481    0.284936    1.287712
     17          1           0       -3.493239   -0.138068    0.643379
     18          6           0       -2.962541   -0.085231    2.693544
     19          1           0       -2.804845    0.816970    3.296696
     20          6           0       -1.875339   -1.128400    3.013907
     21          6           0       -4.375201   -0.649955    2.981277
     22          1           0       -4.525935   -1.486866    2.281576
     23          8           0       -1.703122   -2.095611    2.265345
     24          6           0       -5.451708    0.425934    2.719997
     25          1           0       -5.252034    0.923971    1.762896
     26          1           0       -5.358003    1.206603    3.488011
     27          6           0       -4.463242   -1.206787    4.410162
     28          1           0       -4.243929   -0.425777    5.149112
     29          1           0       -5.468307   -1.583442    4.614878
     30          1           0       -3.765799   -2.033860    4.571520
     31          6           0       -6.884972   -0.117417    2.701888
     32          1           0       -7.594121    0.677861    2.450268
     33          1           0       -6.996441   -0.913249    1.955085
     34          1           0       -7.184557   -0.526354    3.671861
     35          7           0       -1.187178   -0.922432    4.161739
     36          1           0       -1.274329   -0.012238    4.592181
     37          6           0       -0.123133   -1.795241    4.683629
     38          1           0        0.185659   -1.350018    5.631497
     39          6           0        1.128398   -1.685627    3.792315
     40          6           0       -0.601035   -3.229997    4.931345
     41          1           0        0.219956   -3.826977    5.340479
     42          1           0       -1.418524   -3.221905    5.658737
     43          1           0       -0.959147   -3.700754    4.014749
     44          8           0        2.102904   -1.018953    4.148770
     45          7           0        1.086808   -2.353340    2.607386
     46          1           0        0.171978   -2.625320    2.241444
     47          6           0        2.207850   -2.262484    1.681861
     48          1           0        3.131810   -2.256412    2.265759
     49          6           0        2.126084   -0.923539    0.944915
     50          6           0        2.234554   -3.442940    0.700242
     51          1           0        3.146598   -3.325040    0.100998
     52          8           0        1.711590   -0.848740   -0.282960
     53          6           0        2.233832   -4.799758    1.390011
     54          1           0        3.107192   -4.904395    2.042596
     55          1           0        2.275116   -5.593597    0.637160
     56          1           0        1.328977   -4.934130    1.988797
     57          8           0        1.075731   -3.258611   -0.122895
     58          1           0        0.957937   -3.980165   -0.834620
     59          7           0        2.423394    0.166014    1.597726
     60          1           0        2.709076    0.029742    2.571866
     61          6           0        2.382225    1.531152    1.047817
     62          1           0        1.581982    1.564757    0.305581
     63          6           0        3.769555    1.757941    0.413837
     64          6           0        2.109274    2.543370    2.165311
     65          1           0        2.821564    2.386276    2.988707
     66          1           0        1.094214    2.389855    2.536232
     67          8           0        4.678179    2.301218    1.025913
     68          8           0        2.185198    3.854339    1.643388
     69          1           0        3.130486    4.055178    1.538670
     70          7           0        3.894784    1.226693   -0.840575
     71          1           0        3.078671    0.734079   -1.186082
     72          6           0        5.176408    0.721636   -1.302490
     73          1           0        5.392701    1.064745   -2.320410
     74          1           0        5.947264    1.119379   -0.635725
     75          6           0        5.131517   -0.813244   -1.212557
     76          8           0        4.596725   -1.372978   -0.252830
     77          7           0        5.640392   -1.495676   -2.265866
     78          1           0        6.009639   -0.996645   -3.064352
     79          6           0        5.321373   -2.909260   -2.439079
     80          1           0        5.298410   -3.365533   -1.447783
     81          6           0        6.370855   -3.648726   -3.249872
     82          6           0        3.932002   -3.066842   -3.114433
     83          1           0        3.272385   -2.303177   -2.684961
     84          1           0        4.030394   -2.831212   -4.183081
     85          8           0        6.524125   -4.846477   -3.217875
     86          6           0        3.279442   -4.437253   -2.923520
     87          1           0        3.988781   -5.237141   -3.162402
     88          1           0        3.027973   -4.554879   -1.861698
     89          6           0        2.009443   -4.579404   -3.780362
     90          1           0        2.284393   -4.915047   -4.787620
     91          1           0        1.524842   -3.600752   -3.898541
     92          6           0        0.983283   -5.548962   -3.189032
     93          1           0        0.275659   -5.870279   -3.966651
     94          1           0        1.480298   -6.450503   -2.812003
     95          7           0        0.275371   -4.909105   -2.054634
     96          1           0       -0.390377   -5.560810   -1.639840
     97          1           0       -0.265227   -4.118184   -2.409450
     98          8           0        7.057835   -2.823901   -4.076733
     99          1           0        7.679070   -3.377753   -4.587414
    100          1           0        1.387106   -1.780186   -0.572327
 ---------------------------------------------------------------------

 SCF Done:  E(RB3LYP) =  -2418.60383914     A.U. after    1 cycles

 Alpha  occ. eigenvalues --  -19.30387 -19.28769 -19.24481 -19.22801 -19.22653
 Alpha  occ. eigenvalues --  -19.22317 -19.22290 -19.22262 -19.21570 -19.21476
 Alpha  occ. eigenvalues --  -19.20890 -14.49498 -14.46960 -14.46924 -14.46370
 Alpha  occ. eigenvalues --  -14.46023 -14.45997 -14.44929 -14.42995 -14.41973
 Alpha  occ. eigenvalues --  -10.43339 -10.40962 -10.40416 -10.39153 -10.39067
 Alpha  occ. eigenvalues --  -10.39054 -10.38642 -10.37773 -10.34873 -10.34297
 Alpha  occ. eigenvalues --  -10.33925 -10.33629 -10.33242 -10.32913 -10.32066
 Alpha  occ. eigenvalues --  -10.32026 -10.30922 -10.30273 -10.30058 -10.29126
 Alpha  occ. eigenvalues --  -10.27962 -10.27150 -10.27007 -10.26853 -10.26515
 Alpha  occ. eigenvalues --  -10.26447 -10.26246 -10.25198  -1.21389  -1.19422
 Alpha  occ. eigenvalues --   -1.14815  -1.14353  -1.14108  -1.13563  -1.13329
 Alpha  occ. eigenvalues --   -1.12676  -1.11527  -1.10478  -1.09015  -1.06863
 Alpha  occ. eigenvalues --   -1.03144  -1.02944  -1.02528  -1.02423  -1.01764
 Alpha  occ. eigenvalues --   -1.01410  -0.99170  -0.98664  -0.90798  -0.89515
 Alpha  occ. eigenvalues --   -0.89249  -0.86978  -0.86705  -0.86019  -0.84960
 Alpha  occ. eigenvalues --   -0.82636  -0.81554  -0.80636  -0.79738  -0.78322
 Alpha  occ. eigenvalues --   -0.76583  -0.75277  -0.74868  -0.73226  -0.72707
 Alpha  occ. eigenvalues --   -0.72339  -0.70831  -0.70019  -0.69616  -0.69174
 Alpha  occ. eigenvalues --   -0.68515  -0.68430  -0.67528  -0.67110  -0.66828
 Alpha  occ. eigenvalues --   -0.65670  -0.65163  -0.65014  -0.64555  -0.63662
 Alpha  occ. eigenvalues --   -0.63074  -0.62125  -0.61916  -0.61044  -0.60217
 Alpha  occ. eigenvalues --   -0.60125  -0.59366  -0.58750  -0.58404  -0.58365
 Alpha  occ. eigenvalues --   -0.57934  -0.57627  -0.56955  -0.56504  -0.56376
 Alpha  occ. eigenvalues --   -0.55824  -0.55652  -0.55231  -0.55033  -0.54782
 Alpha  occ. eigenvalues --   -0.54641  -0.53736  -0.53616  -0.53081  -0.52653
 Alpha  occ. eigenvalues --   -0.52519  -0.52272  -0.51939  -0.51791  -0.51661
 Alpha  occ. eigenvalues --   -0.51485  -0.51240  -0.50750  -0.50403  -0.50316
 Alpha  occ. eigenvalues --   -0.50044  -0.49883  -0.49396  -0.49079  -0.48835
 Alpha  occ. eigenvalues --   -0.48615  -0.48380  -0.48218  -0.47835  -0.47510
 Alpha  occ. eigenvalues --   -0.47322  -0.47121  -0.46830  -0.46541  -0.46464
 Alpha  occ. eigenvalues --   -0.46430  -0.46294  -0.45800  -0.45491  -0.45307
 Alpha  occ. eigenvalues --   -0.45192  -0.44690  -0.44493  -0.43440  -0.42598
 Alpha  occ. eigenvalues --   -0.41984  -0.41955  -0.41641  -0.41439  -0.41435
 Alpha  occ. eigenvalues --   -0.41226  -0.40519  -0.40422  -0.38306  -0.38167
 Alpha  occ. eigenvalues --   -0.38117  -0.37315  -0.36910  -0.36853  -0.36402
 Alpha  occ. eigenvalues --   -0.36082  -0.35583  -0.35430  -0.35166  -0.34892
 Alpha  occ. eigenvalues --   -0.34805  -0.34392  -0.34094  -0.33821  -0.33457
 Alpha virt. eigenvalues --   -0.12794  -0.10101  -0.09159  -0.08724  -0.07961
 Alpha virt. eigenvalues --   -0.07839  -0.07231  -0.05823  -0.04557  -0.02667
 Alpha virt. eigenvalues --   -0.02412  -0.02219  -0.01670  -0.00382  -0.00030

 Mulliken charges:
               1
     1  N   -0.728990
     2  H    0.332053
     3  H    0.317980
     4  C   -0.061766
     5  H    0.131124
     6  C    0.624071
     7  C   -0.377427
     8  H    0.203377
     9  H    0.163181
    10  O   -0.527302
    11  C    0.600089
    12  N   -0.734560
    13  H    0.358689
    14  H    0.350607
    15  O   -0.521412
    16  N   -0.601735
    17  H    0.336645
    18  C   -0.015367
    19  H    0.161702
    20  C    0.641352
    21  C   -0.112825
    22  H    0.141540
    23  O   -0.568009
    24  C   -0.261408
    25  H    0.136193
    26  H    0.147543
    27  C   -0.473548
    28  H    0.148101
    29  H    0.173797
    30  H    0.164499
    31  C   -0.452115
    32  H    0.163389
    33  H    0.145017
    34  H    0.161356
    35  N   -0.592207
    36  H    0.354262
    37  C   -0.063096
    38  H    0.190740
    39  C    0.622498
    40  C   -0.463166
    41  H    0.174481
    42  H    0.173990
    43  H    0.183332
    44  O   -0.534803
    45  N   -0.606524
    46  H    0.396823
    47  C   -0.068685
    48  H    0.220439
    49  C    0.694238
    50  C    0.085538
    51  H    0.183578
    52  O   -0.613724
    53  C   -0.471089
    54  H    0.168625
    55  H    0.167208
    56  H    0.167480
    57  O   -0.743561
    58  H    0.486236
    59  N   -0.570497
    60  H    0.406307
    61  C   -0.120710
    62  H    0.243169
    63  C    0.615753
    64  C   -0.058264
    65  H    0.149509
    66  H    0.184449
    67  O   -0.505822
    68  O   -0.619629
    69  H    0.416185
    70  N   -0.577644
    71  H    0.358232
    72  C   -0.242219
    73  H    0.167545
    74  H    0.232246
    75  C    0.607938
    76  O   -0.538848
    77  N   -0.598421
    78  H    0.353651
    79  C   -0.052707
    80  H    0.206225
    81  C    0.594232
    82  C   -0.287415
    83  H    0.163413
    84  H    0.151392
    85  O   -0.442479
    86  C   -0.282184
    87  H    0.179014
    88  H    0.138552
    89  C   -0.278944
    90  H    0.152954
    91  H    0.164083
    92  C   -0.149833
    93  H    0.146134
    94  H    0.162390
    95  N   -0.783255
    96  H    0.328943
    97  H    0.341117
    98  O   -0.577903
    99  H    0.429154
   100  H    0.515730
 Sum of Mulliken charges =   1.00000

 Dipole moment (field-independent basis, Debye):
    X=             -1.9781    Y=             -7.7899    Z=             -4.6599  Tot=              9.2903
 Quadrupole moment (field-independent basis, Debye-Ang):
   XX=           -214.1539   YY=           -255.1547   ZZ=           -208.1771
   XY=            -10.6676   XZ=            -37.9081   YZ=              1.8503

 Normal termination of Gaussian 16 at Mon Jun  6 07:11:23 2022.
