 Gaussian 16, Revision C.01,
 Gaussian 16:  ES64L-G16RevC.01  3-Jul-2019

 ----------------------------------------------------------------------
 # B3LYP/6-31G* empiricaldispersion=gd3 guess=read geom=check nosymm in
 tegral(ultrafinegrid)
 ----------------------------------------------------------------------

 ------------------------------------------------------
 Candidate Structure: Conf:966 Charge calc in gas phase
 ------------------------------------------------------
 Structure from the checkpoint file:  "conf-966.chk"
 Charge =  1 Multiplicity = 1

                          Input orientation:
 ---------------------------------------------------------------------
 Center     Atomic      Atomic             Coordinates (Angstroms)
 Number     Number       Type             X           Y           Z
 ---------------------------------------------------------------------
      1          7           0       -7.394201   -1.720893    4.732871
      2          1           0       -8.242617   -2.249846    4.537553
      3          1           0       -7.299506   -1.689927    5.748504
      4          6           0       -7.593128   -0.363905    4.214056
      5          1           0       -7.926814   -0.479550    3.174796
      6          6           0       -6.265022    0.409871    4.141868
      7          6           0       -8.648552    0.477217    4.945462
      8          1           0       -8.404621    0.537195    6.016020
      9          1           0       -8.619541    1.505620    4.567470
     10          8           0       -6.232921    1.634224    4.011498
     11          6           0      -10.048849   -0.110105    4.783130
     12          7           0      -11.047387    0.616751    5.362830
     13          1           0      -12.000061    0.307229    5.228196
     14          1           0      -10.891192    1.543044    5.731587
     15          8           0      -10.268899   -1.164811    4.195760
     16          7           0       -5.163916   -0.378925    4.207781
     17          1           0       -5.321787   -1.382490    4.252348
     18          6           0       -3.813379    0.131114    4.066671
     19          1           0       -3.907733    1.195287    3.831890
     20          6           0       -3.161466   -0.629825    2.908640
     21          6           0       -2.969387   -0.051861    5.354270
     22          1           0       -2.885113   -1.136161    5.511173
     23          8           0       -3.088929   -1.856518    2.907499
     24          6           0       -3.662559    0.545827    6.595749
     25          1           0       -3.042390    0.301281    7.468878
     26          1           0       -4.617257    0.026730    6.743818
     27          6           0       -1.551251    0.505168    5.149891
     28          1           0       -1.570838    1.564092    4.865382
     29          1           0       -0.968865    0.419470    6.073856
     30          1           0       -1.014237   -0.041209    4.366533
     31          6           0       -3.917961    2.058610    6.555012
     32          1           0       -4.366631    2.390971    7.498018
     33          1           0       -2.989267    2.625589    6.420841
     34          1           0       -4.607931    2.326761    5.748485
     35          7           0       -2.663602    0.129239    1.895176
     36          1           0       -2.745146    1.138124    1.894098
     37          6           0       -2.022941   -0.485089    0.751295
     38          1           0       -1.392097   -1.304043    1.120199
     39          6           0       -1.153093    0.572103    0.076499
     40          6           0       -3.046262   -1.071774   -0.242556
     41          1           0       -2.548424   -1.569442   -1.082353
     42          1           0       -3.656452   -1.805786    0.288536
     43          1           0       -3.694039   -0.280766   -0.633608
     44          8           0       -1.291520    1.777882    0.264543
     45          7           0       -0.215942    0.090945   -0.793687
     46          1           0       -0.051780   -0.901528   -0.911673
     47          6           0        0.604181    0.994918   -1.561408
     48          1           0       -0.022496    1.799035   -1.962201
     49          6           0        1.280268    0.221197   -2.685317
     50          6           0        1.699692    1.668170   -0.676444
     51          1           0        1.170003    2.360692   -0.016967
     52          8           0        1.581566   -0.962910   -2.590080
     53          6           0        2.551281    0.693264    0.122312
     54          1           0        1.930888    0.149500    0.839326
     55          1           0        3.316576    1.237073    0.686217
     56          1           0        3.042891   -0.036093   -0.528841
     57          8           0        2.530545    2.450793   -1.593346
     58          1           0        3.564537    1.554856   -2.497277
     59          7           0        1.636799    0.972659   -3.774867
     60          1           0        1.548102    1.982136   -3.729309
     61          6           0        2.639675    0.460064   -4.676081
     62          1           0        2.335522   -0.526895   -5.038290
     63          6           0        3.979332    0.290600   -3.947597
     64          6           0        2.812449    1.421296   -5.858142
     65          1           0        1.854339    1.481918   -6.392032
     66          1           0        3.572572    1.026862   -6.547488
     67          8           0        4.288096    0.947556   -2.875595
     68          8           0        3.195930    2.662921   -5.286430
     69          1           0        3.214846    3.344678   -5.975892
     70          7           0        4.869739   -0.520541   -4.438878
     71          1           0        4.693915   -1.094721   -5.275373
     72          6           0        6.199429   -0.774386   -3.899712
     73          1           0        6.784133    0.150905   -3.874338
     74          1           0        6.125137   -1.162256   -2.878062
     75          6           0        6.825991   -1.813149   -4.856615
     76          8           0        6.170743   -2.206135   -5.823521
     77          7           0        8.070822   -2.196944   -4.548878
     78          1           0        8.485664   -1.928905   -3.661019
     79          6           0        8.782809   -3.260124   -5.258884
     80          1           0        8.042496   -3.912488   -5.731912
     81          6           0        9.549277   -4.042687   -4.198748
     82          6           0        9.754103   -2.731210   -6.337017
     83          1           0       10.512489   -2.101595   -5.850585
     84          1           0       10.264960   -3.601347   -6.759599
     85          8           0        9.728355   -3.649464   -3.064129
     86          6           0        9.049528   -1.960412   -7.456553
     87          1           0        8.326100   -2.627712   -7.935681
     88          1           0        8.480036   -1.123627   -7.032756
     89          6           0       10.020898   -1.411574   -8.514284
     90          1           0       10.660320   -0.634004   -8.073839
     91          1           0        9.431184   -0.914591   -9.297746
     92          6           0       10.923477   -2.471862   -9.161884
     93          1           0       11.512301   -1.988339   -9.960821
     94          1           0       11.650448   -2.835847   -8.425108
     95          7           0       10.135249   -3.627141   -9.607739
     96          1           0       10.750904   -4.339759   -9.995435
     97          1           0        9.516732   -3.347085  -10.368620
     98          8           0       10.034961   -5.191603   -4.687916
     99          1           0       10.548988   -5.622931   -3.978150
    100          1           0        2.976785    3.150260   -1.088726
 ---------------------------------------------------------------------

 SCF Done:  E(RB3LYP) =  -2418.55057346     A.U. after    1 cycles

 Alpha  occ. eigenvalues --  -19.35238 -19.31038 -19.29259 -19.29211 -19.25429
 Alpha  occ. eigenvalues --  -19.24535 -19.23905 -19.21245 -19.16536 -19.15392
 Alpha  occ. eigenvalues --  -19.14693 -14.54117 -14.49754 -14.47895 -14.46225
 Alpha  occ. eigenvalues --  -14.41826 -14.39666 -14.39119 -14.37624 -14.35668
 Alpha  occ. eigenvalues --  -10.48019 -10.42144 -10.41877 -10.41871 -10.39464
 Alpha  occ. eigenvalues --  -10.38565 -10.38170 -10.37617 -10.36952 -10.35417
 Alpha  occ. eigenvalues --  -10.33665 -10.33661 -10.33041 -10.31841 -10.30929
 Alpha  occ. eigenvalues --  -10.28788 -10.27124 -10.27115 -10.27115 -10.26172
 Alpha  occ. eigenvalues --  -10.25391 -10.25093 -10.24994 -10.23413 -10.23306
 Alpha  occ. eigenvalues --  -10.22181 -10.21748 -10.20267  -1.25829  -1.20383
 Alpha  occ. eigenvalues --   -1.17848  -1.16937  -1.16664  -1.16480  -1.13336
 Alpha  occ. eigenvalues --   -1.11599  -1.11032  -1.08724  -1.07123  -1.06771
 Alpha  occ. eigenvalues --   -1.06449  -1.04579  -1.02947  -0.98403  -0.96272
 Alpha  occ. eigenvalues --   -0.94355  -0.94314  -0.93374  -0.92619  -0.90384
 Alpha  occ. eigenvalues --   -0.89237  -0.87295  -0.85303  -0.84245  -0.83751
 Alpha  occ. eigenvalues --   -0.82132  -0.80465  -0.79652  -0.78491  -0.77497
 Alpha  occ. eigenvalues --   -0.76981  -0.75056  -0.74763  -0.74038  -0.72766
 Alpha  occ. eigenvalues --   -0.71644  -0.70889  -0.70604  -0.70149  -0.69354
 Alpha  occ. eigenvalues --   -0.69094  -0.68577  -0.67678  -0.66173  -0.65673
 Alpha  occ. eigenvalues --   -0.64521  -0.64043  -0.63835  -0.63092  -0.62589
 Alpha  occ. eigenvalues --   -0.62247  -0.61324  -0.61187  -0.60433  -0.59902
 Alpha  occ. eigenvalues --   -0.59559  -0.59187  -0.59040  -0.58352  -0.57913
 Alpha  occ. eigenvalues --   -0.57810  -0.57201  -0.56751  -0.56369  -0.55986
 Alpha  occ. eigenvalues --   -0.55502  -0.55154  -0.54920  -0.54648  -0.53915
 Alpha  occ. eigenvalues --   -0.53606  -0.53283  -0.52904  -0.52392  -0.52036
 Alpha  occ. eigenvalues --   -0.51565  -0.51437  -0.51322  -0.51241  -0.51024
 Alpha  occ. eigenvalues --   -0.50894  -0.50287  -0.50113  -0.49951  -0.49606
 Alpha  occ. eigenvalues --   -0.49399  -0.48641  -0.48288  -0.48215  -0.48111
 Alpha  occ. eigenvalues --   -0.47616  -0.47429  -0.46611  -0.46349  -0.45514
 Alpha  occ. eigenvalues --   -0.45055  -0.44868  -0.44783  -0.44673  -0.44555
 Alpha  occ. eigenvalues --   -0.44350  -0.43954  -0.43857  -0.43433  -0.42950
 Alpha  occ. eigenvalues --   -0.42720  -0.42382  -0.41882  -0.41796  -0.41754
 Alpha  occ. eigenvalues --   -0.41547  -0.41282  -0.40360  -0.40204  -0.39998
 Alpha  occ. eigenvalues --   -0.39813  -0.39631  -0.38999  -0.38913  -0.38707
 Alpha  occ. eigenvalues --   -0.37495  -0.36815  -0.36337  -0.36232  -0.35898
 Alpha  occ. eigenvalues --   -0.35668  -0.34881  -0.31233  -0.31105  -0.30894
 Alpha  occ. eigenvalues --   -0.30166  -0.29902  -0.28968  -0.28203  -0.27377
 Alpha virt. eigenvalues --   -0.16711  -0.11853  -0.09840  -0.08536  -0.07095
 Alpha virt. eigenvalues --   -0.06949  -0.05337  -0.04195  -0.03137  -0.02687
 Alpha virt. eigenvalues --   -0.01518  -0.01150  -0.00896  -0.00620  -0.00276

 Mulliken charges:
               1
     1  N   -0.750445
     2  H    0.340586
     3  H    0.298137
     4  C   -0.062318
     5  H    0.185228
     6  C    0.606985
     7  C   -0.387054
     8  H    0.161578
     9  H    0.193074
    10  O   -0.549009
    11  C    0.605751
    12  N   -0.748524
    13  H    0.346311
    14  H    0.341140
    15  O   -0.514436
    16  N   -0.608009
    17  H    0.368126
    18  C   -0.041035
    19  H    0.167725
    20  C    0.629273
    21  C   -0.076976
    22  H    0.144868
    23  O   -0.544709
    24  C   -0.253318
    25  H    0.132993
    26  H    0.133188
    27  C   -0.467079
    28  H    0.143170
    29  H    0.152433
    30  H    0.142356
    31  C   -0.476622
    32  H    0.143066
    33  H    0.135693
    34  H    0.187300
    35  N   -0.617333
    36  H    0.354238
    37  C   -0.035672
    38  H    0.178282
    39  C    0.617660
    40  C   -0.448240
    41  H    0.139386
    42  H    0.207261
    43  H    0.165499
    44  O   -0.527657
    45  N   -0.634337
    46  H    0.360680
    47  C   -0.015296
    48  H    0.195688
    49  C    0.587615
    50  C    0.087219
    51  H    0.207471
    52  O   -0.515055
    53  C   -0.472170
    54  H    0.189382
    55  H    0.164377
    56  H    0.167200
    57  O   -0.672200
    58  H    0.494622
    59  N   -0.610448
    60  H    0.371568
    61  C   -0.071740
    62  H    0.228870
    63  C    0.671525
    64  C   -0.055970
    65  H    0.189634
    66  H    0.169564
    67  O   -0.584846
    68  O   -0.629096
    69  H    0.430727
    70  N   -0.576091
    71  H    0.400564
    72  C   -0.224244
    73  H    0.224607
    74  H    0.227537
    75  C    0.625628
    76  O   -0.523598
    77  N   -0.602338
    78  H    0.359558
    79  C   -0.060687
    80  H    0.212586
    81  C    0.590328
    82  C   -0.268723
    83  H    0.139926
    84  H    0.195764
    85  O   -0.468012
    86  C   -0.238789
    87  H    0.166317
    88  H    0.117204
    89  C   -0.273782
    90  H    0.136120
    91  H    0.135400
    92  C   -0.141216
    93  H    0.130951
    94  H    0.142588
    95  N   -0.721931
    96  H    0.308426
    97  H    0.298595
    98  O   -0.549275
    99  H    0.430920
   100  H    0.437809
 Sum of Mulliken charges =   1.00000

 Dipole moment (field-independent basis, Debye):
    X=             22.3073    Y=              3.7132    Z=            -18.9016  Tot=             29.4733
 Quadrupole moment (field-independent basis, Debye-Ang):
   XX=            -65.4262   YY=           -259.2630   ZZ=           -122.2570
   XY=            -45.1140   XZ=           -158.0112   YZ=              8.9955

 Normal termination of Gaussian 16 at Mon Jun  6 07:10:56 2022.
