 Gaussian 16, Revision C.01,
 Gaussian 16:  ES64L-G16RevC.01  3-Jul-2019

 ----------------------------------------------------------------------
 # B3LYP/6-31G* empiricaldispersion=gd3 guess=read geom=check nosymm in
 tegral(ultrafinegrid)
 ----------------------------------------------------------------------

 ------------------------------------------------------
 Candidate Structure: Conf:684 Charge calc in gas phase
 ------------------------------------------------------
 Structure from the checkpoint file:  "conf-684.chk"
 Charge =  1 Multiplicity = 1

                          Input orientation:
 ---------------------------------------------------------------------
 Center     Atomic      Atomic             Coordinates (Angstroms)
 Number     Number       Type             X           Y           Z
 ---------------------------------------------------------------------
      1          7           0       -5.539017    0.238550    4.990066
      2          1           0       -5.436010    1.232897    4.783058
      3          1           0       -4.845342    0.025126    5.705144
      4          6           0       -5.253179   -0.514339    3.768295
      5          1           0       -5.117949   -1.568196    4.040928
      6          6           0       -4.007928    0.007541    3.041000
      7          6           0       -6.431535   -0.401010    2.770937
      8          1           0       -6.656011    0.664900    2.626793
      9          1           0       -6.147367   -0.808529    1.796633
     10          8           0       -3.733716    1.215621    3.048091
     11          6           0       -7.722722   -1.136182    3.168120
     12          7           0       -8.071869   -1.023320    4.474305
     13          1           0       -8.917420   -1.480781    4.785111
     14          1           0       -7.471961   -0.516648    5.120938
     15          8           0       -8.370071   -1.746592    2.329041
     16          7           0       -3.284076   -0.900589    2.340348
     17          1           0       -3.606395   -1.857933    2.295890
     18          6           0       -2.128089   -0.521808    1.523540
     19          1           0       -1.645572    0.295901    2.068675
     20          6           0       -2.606625    0.076569    0.187012
     21          6           0       -1.108249   -1.673577    1.374773
     22          1           0       -0.744345   -1.851949    2.396980
     23          8           0       -2.480089   -0.471812   -0.908373
     24          6           0        0.105705   -1.272348    0.501785
     25          1           0       -0.180903   -1.307881   -0.552292
     26          1           0        0.872008   -2.045076    0.644599
     27          6           0       -1.723373   -2.980242    0.845652
     28          1           0       -2.175147   -2.827083   -0.137580
     29          1           0       -0.942608   -3.742209    0.750221
     30          1           0       -2.480346   -3.401314    1.519664
     31          6           0        0.725859    0.096869    0.803682
     32          1           0        1.619257    0.249027    0.189277
     33          1           0        0.028584    0.915211    0.573609
     34          1           0        1.010986    0.195878    1.858392
     35          7           0       -3.154595    1.323502    0.297101
     36          1           0       -3.338474    1.689654    1.235369
     37          6           0       -3.716462    1.986287   -0.876035
     38          1           0       -4.066600    1.208939   -1.564287
     39          6           0       -2.550807    2.709439   -1.557749
     40          6           0       -4.858344    2.921917   -0.491878
     41          1           0       -5.265178    3.422831   -1.374015
     42          1           0       -5.653008    2.332732   -0.026617
     43          1           0       -4.525540    3.688357    0.213478
     44          8           0       -2.545855    4.002434   -1.492150
     45          7           0       -1.604896    1.984582   -2.108152
     46          1           0       -1.700096    0.953505   -2.012336
     47          6           0       -0.328302    2.381690   -2.735297
     48          1           0       -0.530693    2.969012   -3.639779
     49          6           0        0.316588    1.021958   -3.126426
     50          6           0        0.543499    3.253770   -1.791785
     51          1           0        0.452428    2.841147   -0.779217
     52          8           0       -0.144521   -0.017267   -2.672116
     53          6           0        2.011429    3.405731   -2.157082
     54          1           0        2.539506    2.451133   -2.077811
     55          1           0        2.479157    4.104689   -1.454190
     56          1           0        2.121054    3.834317   -3.160752
     57          8           0       -0.094027    4.562660   -1.851225
     58          1           0       -1.635639    4.395609   -1.718711
     59          7           0        1.355298    1.038029   -3.991531
     60          1           0        1.792844    1.921667   -4.214109
     61          6           0        2.175393   -0.169401   -4.080813
     62          1           0        1.564659   -0.973578   -4.498248
     63          6           0        2.694094   -0.549536   -2.673001
     64          6           0        3.367976    0.088730   -5.015295
     65          1           0        4.047997    0.806481   -4.533744
     66          1           0        3.003735    0.528228   -5.956193
     67          8           0        3.013746    0.344810   -1.882864
     68          8           0        4.003696   -1.157022   -5.250970
     69          1           0        4.962185   -1.029822   -5.387064
     70          7           0        2.821120   -1.866564   -2.438904
     71          1           0        2.578487   -2.547028   -3.184394
     72          6           0        3.583819   -2.371881   -1.308507
     73          1           0        3.782169   -1.543526   -0.623922
     74          1           0        3.017775   -3.135168   -0.768098
     75          6           0        4.916149   -3.019942   -1.729873
     76          8           0        5.476292   -3.831617   -1.010431
     77          7           0        5.379118   -2.605279   -2.948686
     78          1           0        4.743067   -2.059576   -3.519171
     79          6           0        6.364268   -3.371121   -3.693827
     80          1           0        6.899301   -4.008419   -2.987326
     81          6           0        7.397314   -2.463194   -4.341546
     82          6           0        5.661171   -4.217953   -4.783575
     83          1           0        5.065535   -3.532554   -5.398937
     84          1           0        6.413407   -4.660293   -5.448723
     85          8           0        8.584003   -2.652632   -4.382513
     86          6           0        4.766250   -5.323574   -4.192375
     87          1           0        5.395774   -6.187196   -3.952307
     88          1           0        4.343623   -4.993833   -3.238427
     89          6           0        3.612952   -5.746003   -5.130088
     90          1           0        3.515764   -6.837862   -5.137243
     91          1           0        3.844693   -5.462989   -6.167313
     92          6           0        2.236299   -5.188158   -4.750121
     93          1           0        1.498089   -5.577192   -5.467195
     94          1           0        1.952248   -5.569181   -3.761256
     95          7           0        2.191032   -3.704585   -4.679105
     96          1           0        1.219244   -3.411677   -4.786749
     97          1           0        2.689970   -3.295129   -5.469280
     98          8           0        6.822117   -1.377034   -4.972943
     99          1           0        7.560296   -0.885982   -5.382054
    100          1           0        0.347770    5.168915   -1.232628
 ---------------------------------------------------------------------

 SCF Done:  E(RB3LYP) =  -2418.56811910     A.U. after    1 cycles

 Alpha  occ. eigenvalues --  -19.34258 -19.32181 -19.29011 -19.25840 -19.25239
 Alpha  occ. eigenvalues --  -19.23419 -19.22483 -19.22351 -19.21104 -19.18134
 Alpha  occ. eigenvalues --  -19.16106 -14.52811 -14.49033 -14.47239 -14.46915
 Alpha  occ. eigenvalues --  -14.44307 -14.42643 -14.41412 -14.41194 -14.40015
 Alpha  occ. eigenvalues --  -10.46917 -10.42530 -10.40347 -10.39951 -10.39641
 Alpha  occ. eigenvalues --  -10.39180 -10.38774 -10.38141 -10.36933 -10.35737
 Alpha  occ. eigenvalues --  -10.35282 -10.34478 -10.34269 -10.33400 -10.32082
 Alpha  occ. eigenvalues --  -10.31227 -10.30227 -10.30109 -10.29604 -10.28997
 Alpha  occ. eigenvalues --  -10.28456 -10.27220 -10.26757 -10.25886 -10.25843
 Alpha  occ. eigenvalues --  -10.25712 -10.25674 -10.25386  -1.25101  -1.18993
 Alpha  occ. eigenvalues --   -1.18575  -1.17825  -1.15487  -1.13882  -1.13477
 Alpha  occ. eigenvalues --   -1.12506  -1.10228  -1.10162  -1.09861  -1.07994
 Alpha  occ. eigenvalues --   -1.05370  -1.04158  -1.02965  -1.01586  -0.99459
 Alpha  occ. eigenvalues --   -0.98505  -0.97115  -0.94875  -0.93780  -0.90619
 Alpha  occ. eigenvalues --   -0.89432  -0.87918  -0.87261  -0.85680  -0.84532
 Alpha  occ. eigenvalues --   -0.83705  -0.81976  -0.80534  -0.80299  -0.79360
 Alpha  occ. eigenvalues --   -0.77464  -0.77151  -0.75609  -0.74590  -0.73967
 Alpha  occ. eigenvalues --   -0.72796  -0.71717  -0.70988  -0.70843  -0.70004
 Alpha  occ. eigenvalues --   -0.68677  -0.68422  -0.67521  -0.67201  -0.66409
 Alpha  occ. eigenvalues --   -0.65892  -0.65655  -0.65446  -0.64216  -0.63868
 Alpha  occ. eigenvalues --   -0.63519  -0.63221  -0.62716  -0.61318  -0.61011
 Alpha  occ. eigenvalues --   -0.60539  -0.60044  -0.59396  -0.58897  -0.58677
 Alpha  occ. eigenvalues --   -0.58071  -0.57923  -0.57286  -0.56918  -0.56795
 Alpha  occ. eigenvalues --   -0.56186  -0.55790  -0.55323  -0.54915  -0.54538
 Alpha  occ. eigenvalues --   -0.54039  -0.53919  -0.53615  -0.53321  -0.52954
 Alpha  occ. eigenvalues --   -0.52596  -0.52544  -0.52169  -0.52099  -0.52066
 Alpha  occ. eigenvalues --   -0.51771  -0.51499  -0.51366  -0.51004  -0.50913
 Alpha  occ. eigenvalues --   -0.50682  -0.50563  -0.50188  -0.50104  -0.49733
 Alpha  occ. eigenvalues --   -0.49254  -0.48981  -0.48849  -0.48505  -0.48331
 Alpha  occ. eigenvalues --   -0.48156  -0.47486  -0.47216  -0.46756  -0.46664
 Alpha  occ. eigenvalues --   -0.46305  -0.45309  -0.45230  -0.45087  -0.44802
 Alpha  occ. eigenvalues --   -0.44519  -0.44106  -0.43941  -0.43724  -0.43364
 Alpha  occ. eigenvalues --   -0.43300  -0.42195  -0.41691  -0.41634  -0.41438
 Alpha  occ. eigenvalues --   -0.40886  -0.40780  -0.40597  -0.39700  -0.39558
 Alpha  occ. eigenvalues --   -0.39164  -0.38658  -0.38279  -0.37484  -0.36826
 Alpha  occ. eigenvalues --   -0.36456  -0.35718  -0.34933  -0.34842  -0.33829
 Alpha  occ. eigenvalues --   -0.33749  -0.32127  -0.31482  -0.31245  -0.29981
 Alpha virt. eigenvalues --   -0.16124  -0.11633  -0.09928  -0.08057  -0.07580
 Alpha virt. eigenvalues --   -0.07546  -0.07106  -0.04855  -0.04476  -0.02779
 Alpha virt. eigenvalues --   -0.02748  -0.02500  -0.02040  -0.01707  -0.01282

 Mulliken charges:
               1
     1  N   -0.717973
     2  H    0.328554
     3  H    0.322623
     4  C   -0.088575
     5  H    0.161798
     6  C    0.615841
     7  C   -0.358341
     8  H    0.172781
     9  H    0.166261
    10  O   -0.559876
    11  C    0.577927
    12  N   -0.749570
    13  H    0.343112
    14  H    0.376771
    15  O   -0.503090
    16  N   -0.610371
    17  H    0.353133
    18  C   -0.062228
    19  H    0.190234
    20  C    0.630646
    21  C   -0.087168
    22  H    0.144320
    23  O   -0.526056
    24  C   -0.286248
    25  H    0.196042
    26  H    0.143546
    27  C   -0.482963
    28  H    0.188592
    29  H    0.164172
    30  H    0.134412
    31  C   -0.491984
    32  H    0.188055
    33  H    0.108145
    34  H    0.152492
    35  N   -0.629672
    36  H    0.394285
    37  C   -0.056582
    38  H    0.216821
    39  C    0.634697
    40  C   -0.467538
    41  H    0.186112
    42  H    0.191315
    43  H    0.182775
    44  O   -0.561445
    45  N   -0.625262
    46  H    0.463925
    47  C   -0.084600
    48  H    0.213221
    49  C    0.640258
    50  C    0.121366
    51  H    0.187469
    52  O   -0.500367
    53  C   -0.529960
    54  H    0.245639
    55  H    0.173807
    56  H    0.158971
    57  O   -0.664355
    58  H    0.479087
    59  N   -0.612780
    60  H    0.346254
    61  C   -0.044820
    62  H    0.183262
    63  C    0.632212
    64  C   -0.067714
    65  H    0.159903
    66  H    0.157207
    67  O   -0.546447
    68  O   -0.649357
    69  H    0.444924
    70  N   -0.640720
    71  H    0.418437
    72  C   -0.242803
    73  H    0.217496
    74  H    0.190962
    75  C    0.590600
    76  O   -0.503295
    77  N   -0.619267
    78  H    0.368161
    79  C   -0.070078
    80  H    0.218772
    81  C    0.606888
    82  C   -0.291387
    83  H    0.142903
    84  H    0.168388
    85  O   -0.426696
    86  C   -0.265557
    87  H    0.162938
    88  H    0.162371
    89  C   -0.288311
    90  H    0.161840
    91  H    0.141819
    92  C   -0.133975
    93  H    0.141186
    94  H    0.156005
    95  N   -0.773173
    96  H    0.318480
    97  H    0.330866
    98  O   -0.614064
    99  H    0.425037
   100  H    0.438550
 Sum of Mulliken charges =   1.00000

 Dipole moment (field-independent basis, Debye):
    X=             -1.0516    Y=              8.5320    Z=            -10.2203  Tot=             13.3549
 Quadrupole moment (field-independent basis, Debye-Ang):
   XX=           -285.7835   YY=           -225.3697   ZZ=           -179.4412
   XY=             -6.0746   XZ=            -62.6251   YZ=             -3.5075

 Normal termination of Gaussian 16 at Mon Jun  6 07:10:56 2022.
