 Gaussian 16, Revision C.01,
 Gaussian 16:  ES64L-G16RevC.01  3-Jul-2019

 ----------------------------------------------------------------------
 # B3LYP/6-31G* empiricaldispersion=gd3 guess=read geom=check nosymm in
 tegral(ultrafinegrid)
 ----------------------------------------------------------------------

 ------------------------------------------------------
 Candidate Structure: Conf:883 Charge calc in gas phase
 ------------------------------------------------------
 Structure from the checkpoint file:  "conf-883.chk"
 Charge =  1 Multiplicity = 1

                          Input orientation:
 ---------------------------------------------------------------------
 Center     Atomic      Atomic             Coordinates (Angstroms)
 Number     Number       Type             X           Y           Z
 ---------------------------------------------------------------------
      1          7           0       -7.632659    4.826263    4.360138
      2          1           0       -7.217565    5.669689    3.960041
      3          1           0       -7.264465    4.771383    5.308949
      4          6           0       -7.146454    3.684618    3.581070
      5          1           0       -7.338201    2.770383    4.156876
      6          6           0       -5.642217    3.793900    3.274262
      7          6           0       -7.894553    3.584632    2.228896
      8          1           0       -7.809148    4.553444    1.717336
      9          1           0       -7.423497    2.836569    1.585428
     10          8           0       -5.066647    4.877217    3.257429
     11          6           0       -9.378742    3.195797    2.307273
     12          7           0      -10.079899    3.802381    3.298774
     13          1           0      -11.060185    3.579578    3.397019
     14          1           0       -9.597898    4.410250    3.958874
     15          8           0       -9.864922    2.414191    1.499596
     16          7           0       -5.021002    2.611808    2.980827
     17          1           0       -5.594469    1.789109    2.827456
     18          6           0       -3.734550    2.582770    2.307848
     19          1           0       -3.524265    3.606291    1.975657
     20          6           0       -3.875518    1.670728    1.085182
     21          6           0       -2.568411    2.126734    3.232821
     22          1           0       -1.653262    2.155297    2.619591
     23          8           0       -4.796646    0.867408    0.957363
     24          6           0       -2.767915    0.680063    3.723096
     25          1           0       -2.957583    0.025336    2.861742
     26          1           0       -3.676673    0.642216    4.338162
     27          6           0       -2.406980    3.126797    4.385890
     28          1           0       -3.270168    3.076844    5.058085
     29          1           0       -1.507100    2.912977    4.969870
     30          1           0       -2.340774    4.154562    4.015848
     31          6           0       -1.582844    0.122012    4.518501
     32          1           0       -1.747302   -0.930729    4.772529
     33          1           0       -0.652352    0.185300    3.939542
     34          1           0       -1.427783    0.664894    5.456157
     35          7           0       -2.888401    1.777116    0.149898
     36          1           0       -2.143280    2.456032    0.237099
     37          6           0       -2.914640    0.942988   -1.032273
     38          1           0       -3.214847   -0.065829   -0.723325
     39          6           0       -1.514854    0.906261   -1.627224
     40          6           0       -3.926266    1.451587   -2.083921
     41          1           0       -3.973259    0.789462   -2.956421
     42          1           0       -4.913580    1.478866   -1.618111
     43          1           0       -3.657955    2.458999   -2.417498
     44          8           0       -0.657016    1.756075   -1.378508
     45          7           0       -1.266110   -0.109663   -2.510764
     46          1           0       -2.001537   -0.765238   -2.736819
     47          6           0        0.056229   -0.265630   -3.100028
     48          1           0        0.794351    0.013130   -2.341735
     49          6           0        0.228897    0.737953   -4.245047
     50          6           0        0.392777   -1.706030   -3.540038
     51          1           0        1.446838   -1.684548   -3.816125
     52          8           0        0.134790    0.376655   -5.496364
     53          6           0        0.152032   -2.747779   -2.461467
     54          1           0        0.703710   -2.491984   -1.551604
     55          1           0        0.499555   -3.722916   -2.813708
     56          1           0       -0.908399   -2.831857   -2.194202
     57          8           0       -0.290991   -2.040755   -4.775960
     58          1           0       -1.144659   -2.468709   -4.599201
     59          7           0        0.427886    1.992224   -3.960089
     60          1           0        0.438629    2.211535   -2.957897
     61          6           0        0.773589    3.060896   -4.918349
     62          1           0        0.264873    2.866454   -5.865560
     63          6           0        2.312437    2.980321   -5.073766
     64          6           0        0.352423    4.429358   -4.357465
     65          1           0        0.759538    4.541923   -3.341916
     66          1           0       -0.739366    4.477188   -4.299846
     67          8           0        3.046334    3.704083   -4.418513
     68          8           0        0.781635    5.448185   -5.224227
     69          1           0        1.728213    5.588387   -5.053350
     70          7           0        2.749520    2.002880   -5.920961
     71          1           0        2.045240    1.392623   -6.315868
     72          6           0        4.054250    1.411948   -5.720226
     73          1           0        4.463892    1.064621   -6.674521
     74          1           0        4.720060    2.185743   -5.327141
     75          6           0        3.966503    0.245839   -4.712114
     76          8           0        2.926081    0.017195   -4.083076
     77          7           0        5.092871   -0.481516   -4.588990
     78          1           0        5.919283   -0.201934   -5.103604
     79          6           0        5.256460   -1.567380   -3.623258
     80          1           0        4.503389   -1.425235   -2.843956
     81          6           0        6.616331   -1.513336   -2.933663
     82          6           0        5.068375   -2.963956   -4.260358
     83          1           0        5.768199   -3.066140   -5.100318
     84          1           0        5.352299   -3.712522   -3.511935
     85          8           0        6.859333   -2.101308   -1.909701
     86          6           0        3.632591   -3.212045   -4.729922
     87          1           0        2.966842   -3.132512   -3.858952
     88          1           0        3.328775   -2.420159   -5.427916
     89          6           0        3.432591   -4.581465   -5.384510
     90          1           0        3.656301   -5.382150   -4.669281
     91          1           0        4.141998   -4.698832   -6.216903
     92          6           0        2.006835   -4.778396   -5.908714
     93          1           0        1.294333   -4.613540   -5.087238
     94          1           0        1.790551   -3.992761   -6.659918
     95          7           0        1.824830   -6.148081   -6.386826
     96          1           0        2.438050   -6.323055   -7.181893
     97          1           0        0.874814   -6.285078   -6.726639
     98          8           0        7.526466   -0.792458   -3.631713
     99          1           0        8.373752   -0.845748   -3.148858
    100          1           0       -0.085189   -0.605927   -5.529488
 ---------------------------------------------------------------------

 SCF Done:  E(RB3LYP) =  -2418.53835444     A.U. after    3 cycles

 Alpha  occ. eigenvalues --  -19.36611 -19.33040 -19.30302 -19.27212 -19.24809
 Alpha  occ. eigenvalues --  -19.24717 -19.24606 -19.23992 -19.20713 -19.17880
 Alpha  occ. eigenvalues --  -19.13727 -14.54715 -14.52116 -14.48596 -14.48575
 Alpha  occ. eigenvalues --  -14.45755 -14.42115 -14.38985 -14.38141 -14.37610
 Alpha  occ. eigenvalues --  -10.48866 -10.43791 -10.42433 -10.41742 -10.41723
 Alpha  occ. eigenvalues --  -10.40352 -10.39923 -10.37627 -10.37256 -10.35431
 Alpha  occ. eigenvalues --  -10.35198 -10.35096 -10.34950 -10.34470 -10.32254
 Alpha  occ. eigenvalues --  -10.31803 -10.30372 -10.29419 -10.29321 -10.29127
 Alpha  occ. eigenvalues --  -10.28694 -10.28538 -10.26900 -10.26498 -10.24623
 Alpha  occ. eigenvalues --  -10.24258 -10.23670 -10.23159  -1.27218  -1.20897
 Alpha  occ. eigenvalues --   -1.19440  -1.19061  -1.17027  -1.16007  -1.12880
 Alpha  occ. eigenvalues --   -1.12636  -1.11990  -1.11933  -1.09650  -1.08214
 Alpha  occ. eigenvalues --   -1.05545  -1.05139  -1.05024  -1.02513  -0.98979
 Alpha  occ. eigenvalues --   -0.95993  -0.95412  -0.94750  -0.92385  -0.91568
 Alpha  occ. eigenvalues --   -0.90818  -0.89094  -0.87396  -0.86862  -0.85614
 Alpha  occ. eigenvalues --   -0.83939  -0.81819  -0.80772  -0.79872  -0.79026
 Alpha  occ. eigenvalues --   -0.78517  -0.77592  -0.77160  -0.75820  -0.74072
 Alpha  occ. eigenvalues --   -0.72766  -0.72317  -0.71120  -0.70851  -0.70580
 Alpha  occ. eigenvalues --   -0.70052  -0.69918  -0.69401  -0.68506  -0.67774
 Alpha  occ. eigenvalues --   -0.67649  -0.66511  -0.65089  -0.64410  -0.63899
 Alpha  occ. eigenvalues --   -0.63631  -0.62500  -0.61833  -0.61585  -0.61489
 Alpha  occ. eigenvalues --   -0.61224  -0.60453  -0.60012  -0.59378  -0.59196
 Alpha  occ. eigenvalues --   -0.58412  -0.58383  -0.57829  -0.57589  -0.57136
 Alpha  occ. eigenvalues --   -0.56997  -0.56749  -0.56324  -0.56187  -0.55777
 Alpha  occ. eigenvalues --   -0.55403  -0.54952  -0.54771  -0.54228  -0.54141
 Alpha  occ. eigenvalues --   -0.53533  -0.53498  -0.53136  -0.52794  -0.52706
 Alpha  occ. eigenvalues --   -0.52139  -0.51844  -0.51522  -0.51262  -0.51109
 Alpha  occ. eigenvalues --   -0.50990  -0.50476  -0.50120  -0.49816  -0.49758
 Alpha  occ. eigenvalues --   -0.49421  -0.49290  -0.49060  -0.48569  -0.48139
 Alpha  occ. eigenvalues --   -0.48005  -0.47780  -0.47008  -0.46593  -0.46327
 Alpha  occ. eigenvalues --   -0.45643  -0.45549  -0.45232  -0.44712  -0.43955
 Alpha  occ. eigenvalues --   -0.43911  -0.43837  -0.43783  -0.43544  -0.42646
 Alpha  occ. eigenvalues --   -0.42557  -0.42326  -0.42204  -0.42009  -0.41809
 Alpha  occ. eigenvalues --   -0.41468  -0.40750  -0.39990  -0.39594  -0.39493
 Alpha  occ. eigenvalues --   -0.39397  -0.39228  -0.38494  -0.38373  -0.38096
 Alpha  occ. eigenvalues --   -0.37229  -0.36352  -0.35273  -0.34548  -0.32643
 Alpha  occ. eigenvalues --   -0.31821  -0.31196  -0.30608  -0.29140  -0.27518
 Alpha virt. eigenvalues --   -0.18163  -0.12721  -0.10805  -0.10381  -0.10004
 Alpha virt. eigenvalues --   -0.09167  -0.06538  -0.05988  -0.03966  -0.03922
 Alpha virt. eigenvalues --   -0.03364  -0.02935  -0.02274  -0.01570  -0.00881

 Mulliken charges:
               1
     1  N   -0.720987
     2  H    0.326770
     3  H    0.317100
     4  C   -0.095387
     5  H    0.157815
     6  C    0.592402
     7  C   -0.358212
     8  H    0.172416
     9  H    0.169923
    10  O   -0.522829
    11  C    0.574445
    12  N   -0.750532
    13  H    0.335001
    14  H    0.376336
    15  O   -0.514154
    16  N   -0.595509
    17  H    0.353354
    18  C   -0.074879
    19  H    0.179859
    20  C    0.631926
    21  C   -0.068284
    22  H    0.109705
    23  O   -0.535736
    24  C   -0.266626
    25  H    0.134111
    26  H    0.148962
    27  C   -0.453765
    28  H    0.159689
    29  H    0.153244
    30  H    0.164281
    31  C   -0.450040
    32  H    0.152653
    33  H    0.134550
    34  H    0.160891
    35  N   -0.620870
    36  H    0.355194
    37  C   -0.034534
    38  H    0.190563
    39  C    0.637213
    40  C   -0.452491
    41  H    0.135466
    42  H    0.225340
    43  H    0.166680
    44  O   -0.540325
    45  N   -0.619629
    46  H    0.344921
    47  C   -0.060213
    48  H    0.237009
    49  C    0.679671
    50  C    0.043512
    51  H    0.237868
    52  O   -0.588284
    53  C   -0.492062
    54  H    0.195655
    55  H    0.211390
    56  H    0.154393
    57  O   -0.654591
    58  H    0.427493
    59  N   -0.559805
    60  H    0.416674
    61  C   -0.118432
    62  H    0.212102
    63  C    0.628660
    64  C   -0.037943
    65  H    0.161331
    66  H    0.171875
    67  O   -0.495817
    68  O   -0.600196
    69  H    0.423304
    70  N   -0.566897
    71  H    0.350958
    72  C   -0.268339
    73  H    0.197072
    74  H    0.237718
    75  C    0.626808
    76  O   -0.563011
    77  N   -0.592985
    78  H    0.363754
    79  C   -0.060144
    80  H    0.195974
    81  C    0.594822
    82  C   -0.266958
    83  H    0.154093
    84  H    0.184772
    85  O   -0.435084
    86  C   -0.268052
    87  H    0.130251
    88  H    0.129986
    89  C   -0.257156
    90  H    0.165406
    91  H    0.139200
    92  C   -0.130144
    93  H    0.121561
    94  H    0.106033
    95  N   -0.710976
    96  H    0.303205
    97  H    0.301907
    98  O   -0.581544
    99  H    0.434188
   100  H    0.483963
 Sum of Mulliken charges =   1.00000

 Dipole moment (field-independent basis, Debye):
    X=              7.9847    Y=             -2.0757    Z=            -19.1090  Tot=             20.8139
 Quadrupole moment (field-independent basis, Debye-Ang):
   XX=           -251.0799   YY=           -276.0234   ZZ=           -148.7848
   XY=             -5.2412   XZ=            -65.4424   YZ=             31.8545

 Normal termination of Gaussian 16 at Mon Jun  6 07:11:43 2022.
