 Gaussian 16, Revision C.01,
 Gaussian 16:  ES64L-G16RevC.01  3-Jul-2019

 ----------------------------------------------------------------------
 # B3LYP/6-31G* empiricaldispersion=gd3 guess=read geom=check nosymm in
 tegral(ultrafinegrid)
 ----------------------------------------------------------------------

 ------------------------------------------------------
 Candidate Structure: Conf:885 Charge calc in gas phase
 ------------------------------------------------------
 Structure from the checkpoint file:  "conf-885.chk"
 Charge =  1 Multiplicity = 1

                          Input orientation:
 ---------------------------------------------------------------------
 Center     Atomic      Atomic             Coordinates (Angstroms)
 Number     Number       Type             X           Y           Z
 ---------------------------------------------------------------------
      1          7           0       -7.079215   -1.078875    3.122558
      2          1           0       -7.328314   -0.129324    2.844021
      3          1           0       -7.183914   -1.111894    4.135211
      4          6           0       -5.690911   -1.320294    2.758192
      5          1           0       -5.338036   -2.219383    3.271217
      6          6           0       -4.767552   -0.134746    3.088101
      7          6           0       -5.610492   -1.574340    1.235806
      8          1           0       -6.254354   -2.432365    1.010876
      9          1           0       -6.023845   -0.707828    0.705585
     10          8           0       -5.151994    1.031356    2.920103
     11          6           0       -4.189083   -1.872050    0.766987
     12          7           0       -3.860453   -1.436509   -0.477357
     13          1           0       -2.915844   -1.629228   -0.841631
     14          1           0       -4.580632   -1.134780   -1.118964
     15          8           0       -3.375177   -2.441288    1.499678
     16          7           0       -3.513199   -0.443137    3.511358
     17          1           0       -3.203289   -1.393762    3.323750
     18          6           0       -2.478118    0.582166    3.661767
     19          1           0       -2.980076    1.474534    4.047360
     20          6           0       -1.958605    0.900055    2.247526
     21          6           0       -1.364076    0.149992    4.629189
     22          1           0       -0.810015   -0.664851    4.143914
     23          8           0       -0.864434    0.445398    1.824801
     24          6           0       -1.940434   -0.394780    5.955647
     25          1           0       -1.090649   -0.666988    6.594186
     26          1           0       -2.480516   -1.327879    5.756561
     27          6           0       -0.385177    1.313290    4.860444
     28          1           0       -0.890240    2.188100    5.284583
     29          1           0        0.401627    1.012474    5.559503
     30          1           0        0.102562    1.624603    3.931262
     31          6           0       -2.866109    0.562608    6.716493
     32          1           0       -3.186241    0.109497    7.660217
     33          1           0       -2.370379    1.508244    6.960946
     34          1           0       -3.771442    0.793176    6.142981
     35          7           0       -2.795754    1.613969    1.487757
     36          1           0       -3.708912    1.817562    1.907650
     37          6           0       -2.674542    1.784270    0.036177
     38          1           0       -2.932432    0.831379   -0.440870
     39          6           0       -1.234000    2.154030   -0.292990
     40          6           0       -3.628996    2.889008   -0.426877
     41          1           0       -3.591927    2.990507   -1.515437
     42          1           0       -4.656422    2.641708   -0.140604
     43          1           0       -3.348780    3.843052    0.027346
     44          8           0       -0.698321    3.153754    0.220070
     45          7           0       -0.565672    1.331392   -1.130361
     46          1           0       -0.948045    0.413741   -1.355780
     47          6           0        0.855214    1.548799   -1.385053
     48          1           0        1.010608    2.625700   -1.504958
     49          6           0        1.243925    0.791387   -2.666252
     50          6           0        1.718701    1.044393   -0.200699
     51          1           0        1.562337   -0.027960   -0.068469
     52          8           0        0.839692   -0.354288   -2.847275
     53          6           0        3.185960    1.397560   -0.271076
     54          1           0        3.664700    0.912540   -1.126308
     55          1           0        3.688143    1.066573    0.641365
     56          1           0        3.324739    2.480099   -0.370133
     57          8           0        1.169689    1.651218    1.061349
     58          1           0        0.691269    2.519522    0.822015
     59          7           0        2.022491    1.467017   -3.547328
     60          1           0        2.534027    2.265459   -3.183090
     61          6           0        2.734526    0.747257   -4.607509
     62          1           0        2.119809   -0.112190   -4.882128
     63          6           0        4.090631    0.312059   -4.031953
     64          6           0        2.895466    1.654009   -5.842151
     65          1           0        3.480623    1.122757   -6.598719
     66          1           0        3.465339    2.554608   -5.560056
     67          8           0        4.613727    0.958466   -3.126539
     68          8           0        1.652655    1.957259   -6.432292
     69          1           0        1.151174    2.510010   -5.812573
     70          7           0        4.663136   -0.793637   -4.563053
     71          1           0        4.214116   -1.287528   -5.322235
     72          6           0        5.912122   -1.291324   -3.996255
     73          1           0        6.290833   -2.094986   -4.634605
     74          1           0        6.655943   -0.493721   -3.954936
     75          6           0        5.772865   -1.848870   -2.572027
     76          8           0        6.706487   -1.812179   -1.792058
     77          7           0        4.556974   -2.420821   -2.256191
     78          1           0        3.966863   -2.670400   -3.040779
     79          6           0        4.534610   -3.352291   -1.138071
     80          1           0        4.909062   -2.830973   -0.253381
     81          6           0        5.476257   -4.528969   -1.428609
     82          6           0        3.122263   -3.898881   -0.871140
     83          1           0        2.801970   -4.501425   -1.733808
     84          1           0        3.196609   -4.591131   -0.024786
     85          8           0        5.840536   -4.856882   -2.534495
     86          6           0        2.062328   -2.830673   -0.575834
     87          1           0        2.444493   -2.149528    0.199909
     88          1           0        1.894547   -2.220153   -1.472063
     89          6           0        0.746952   -3.460468   -0.090214
     90          1           0        0.921040   -3.926717    0.889136
     91          1           0        0.459585   -4.280067   -0.765962
     92          6           0       -0.433962   -2.486881    0.028046
     93          1           0       -1.234924   -2.925690    0.628424
     94          1           0       -0.134158   -1.579474    0.566503
     95          7           0       -1.036954   -2.064587   -1.257322
     96          1           0       -1.347757   -2.898272   -1.759657
     97          1           0       -0.331168   -1.637277   -1.857777
     98          8           0        5.794342   -5.187352   -0.297218
     99          1           0        6.369589   -5.935047   -0.548883
    100          1           0        0.356169    1.081604    1.436969
 ---------------------------------------------------------------------

 SCF Done:  E(RB3LYP) =  -2418.58003945     A.U. after    1 cycles

 Alpha  occ. eigenvalues --  -19.36714 -19.27111 -19.26527 -19.26504 -19.26307
 Alpha  occ. eigenvalues --  -19.24614 -19.22854 -19.22247 -19.21382 -19.21245
 Alpha  occ. eigenvalues --  -19.19762 -14.50721 -14.49746 -14.48921 -14.47724
 Alpha  occ. eigenvalues --  -14.46127 -14.44623 -14.44234 -14.42149 -14.39692
 Alpha  occ. eigenvalues --  -10.43438 -10.43394 -10.42435 -10.40465 -10.39934
 Alpha  occ. eigenvalues --  -10.39340 -10.38766 -10.38541 -10.38393 -10.37023
 Alpha  occ. eigenvalues --  -10.36247 -10.34757 -10.34418 -10.33757 -10.32075
 Alpha  occ. eigenvalues --  -10.31879 -10.31591 -10.29864 -10.29840 -10.29290
 Alpha  occ. eigenvalues --  -10.28790 -10.28614 -10.28157 -10.27761 -10.27054
 Alpha  occ. eigenvalues --  -10.26397 -10.26317 -10.24862  -1.24075  -1.18478
 Alpha  occ. eigenvalues --   -1.17981  -1.17963  -1.17125  -1.15025  -1.13819
 Alpha  occ. eigenvalues --   -1.12691  -1.12317  -1.11890  -1.09068  -1.07121
 Alpha  occ. eigenvalues --   -1.05891  -1.05766  -1.03553  -1.02754  -1.00705
 Alpha  occ. eigenvalues --   -0.99644  -0.98007  -0.97400  -0.93989  -0.90877
 Alpha  occ. eigenvalues --   -0.89663  -0.89294  -0.88527  -0.85245  -0.85051
 Alpha  occ. eigenvalues --   -0.84214  -0.82639  -0.81612  -0.79898  -0.77782
 Alpha  occ. eigenvalues --   -0.77586  -0.76925  -0.75435  -0.74876  -0.73706
 Alpha  occ. eigenvalues --   -0.73190  -0.72578  -0.72138  -0.71604  -0.70751
 Alpha  occ. eigenvalues --   -0.70370  -0.68752  -0.68708  -0.68160  -0.67412
 Alpha  occ. eigenvalues --   -0.66810  -0.66705  -0.66056  -0.64813  -0.64497
 Alpha  occ. eigenvalues --   -0.64004  -0.63126  -0.62757  -0.62262  -0.61356
 Alpha  occ. eigenvalues --   -0.60874  -0.60413  -0.59759  -0.59565  -0.59071
 Alpha  occ. eigenvalues --   -0.58963  -0.58662  -0.58326  -0.57676  -0.57319
 Alpha  occ. eigenvalues --   -0.56987  -0.56166  -0.55960  -0.55517  -0.55419
 Alpha  occ. eigenvalues --   -0.54996  -0.54788  -0.54309  -0.53962  -0.53828
 Alpha  occ. eigenvalues --   -0.53653  -0.53131  -0.52872  -0.52653  -0.52354
 Alpha  occ. eigenvalues --   -0.52091  -0.51980  -0.51789  -0.51468  -0.50986
 Alpha  occ. eigenvalues --   -0.50900  -0.50810  -0.50207  -0.50104  -0.49873
 Alpha  occ. eigenvalues --   -0.49609  -0.49279  -0.49184  -0.49047  -0.48893
 Alpha  occ. eigenvalues --   -0.48776  -0.48449  -0.48090  -0.47820  -0.47644
 Alpha  occ. eigenvalues --   -0.47122  -0.46779  -0.46509  -0.46378  -0.45086
 Alpha  occ. eigenvalues --   -0.44996  -0.44748  -0.44262  -0.43863  -0.43578
 Alpha  occ. eigenvalues --   -0.43426  -0.42271  -0.41635  -0.41613  -0.41414
 Alpha  occ. eigenvalues --   -0.41149  -0.40999  -0.40694  -0.40509  -0.39836
 Alpha  occ. eigenvalues --   -0.39343  -0.39183  -0.39087  -0.38180  -0.37818
 Alpha  occ. eigenvalues --   -0.37095  -0.36268  -0.35901  -0.35748  -0.35439
 Alpha  occ. eigenvalues --   -0.35170  -0.34638  -0.34272  -0.32590  -0.32179
 Alpha virt. eigenvalues --   -0.13697  -0.12842  -0.12646  -0.09481  -0.08567
 Alpha virt. eigenvalues --   -0.07300  -0.06935  -0.05881  -0.05501  -0.04461
 Alpha virt. eigenvalues --   -0.03670  -0.03130  -0.02284  -0.01566  -0.00922

 Mulliken charges:
               1
     1  N   -0.697971
     2  H    0.318374
     3  H    0.316178
     4  C   -0.063946
     5  H    0.171357
     6  C    0.584453
     7  C   -0.357523
     8  H    0.211990
     9  H    0.154744
    10  O   -0.559480
    11  C    0.597507
    12  N   -0.794368
    13  H    0.402460
    14  H    0.338833
    15  O   -0.536100
    16  N   -0.591739
    17  H    0.376096
    18  C   -0.065134
    19  H    0.196622
    20  C    0.663581
    21  C   -0.098766
    22  H    0.146284
    23  O   -0.635905
    24  C   -0.256570
    25  H    0.150593
    26  H    0.141454
    27  C   -0.466451
    28  H    0.160859
    29  H    0.168861
    30  H    0.132311
    31  C   -0.464246
    32  H    0.165285
    33  H    0.155594
    34  H    0.152503
    35  N   -0.597218
    36  H    0.400675
    37  C   -0.032972
    38  H    0.192437
    39  C    0.619735
    40  C   -0.489063
    41  H    0.177734
    42  H    0.185325
    43  H    0.203532
    44  O   -0.573582
    45  N   -0.603803
    46  H    0.384997
    47  C   -0.110104
    48  H    0.199658
    49  C    0.634608
    50  C    0.078776
    51  H    0.210747
    52  O   -0.516862
    53  C   -0.488635
    54  H    0.237355
    55  H    0.198872
    56  H    0.169365
    57  O   -0.666358
    58  H    0.478293
    59  N   -0.590976
    60  H    0.355455
    61  C   -0.115835
    62  H    0.197990
    63  C    0.636489
    64  C   -0.035369
    65  H    0.173990
    66  H    0.151098
    67  O   -0.520386
    68  O   -0.590589
    69  H    0.400630
    70  N   -0.612349
    71  H    0.348329
    72  C   -0.241648
    73  H    0.206031
    74  H    0.220619
    75  C    0.623704
    76  O   -0.487636
    77  N   -0.589580
    78  H    0.319730
    79  C   -0.031506
    80  H    0.194432
    81  C    0.599927
    82  C   -0.305481
    83  H    0.148941
    84  H    0.179147
    85  O   -0.470086
    86  C   -0.277950
    87  H    0.131343
    88  H    0.145703
    89  C   -0.265720
    90  H    0.151339
    91  H    0.137078
    92  C   -0.186672
    93  H    0.195582
    94  H    0.142961
    95  N   -0.808176
    96  H    0.316468
    97  H    0.360363
    98  O   -0.564481
    99  H    0.423805
   100  H    0.522034
 Sum of Mulliken charges =   1.00000

 Dipole moment (field-independent basis, Debye):
    X=             -2.5033    Y=              0.4490    Z=             -3.5521  Tot=              4.3687
 Quadrupole moment (field-independent basis, Debye-Ang):
   XX=           -253.3818   YY=           -253.4674   ZZ=           -223.1464
   XY=             -8.2064   XZ=            -27.9999   YZ=             -0.3632

 Normal termination of Gaussian 16 at Mon Jun  6 07:11:11 2022.
