 Gaussian 16, Revision C.01,
 Gaussian 16:  ES64L-G16RevC.01  3-Jul-2019

 ----------------------------------------------------------------------
 # B3LYP/6-31G* empiricaldispersion=gd3 guess=read geom=check nosymm in
 tegral(ultrafinegrid)
 ----------------------------------------------------------------------

 ------------------------------------------------------
 Candidate Structure: Conf:727 Charge calc in gas phase
 ------------------------------------------------------
 Structure from the checkpoint file:  "conf-727.chk"
 Charge =  1 Multiplicity = 1

                          Input orientation:
 ---------------------------------------------------------------------
 Center     Atomic      Atomic             Coordinates (Angstroms)
 Number     Number       Type             X           Y           Z
 ---------------------------------------------------------------------
      1          7           0       -6.906557    1.464780    0.790090
      2          1           0       -7.003575    2.280942    1.396361
      3          1           0       -7.023678    0.659435    1.403371
      4          6           0       -5.549942    1.474437    0.240914
      5          1           0       -5.342400    0.479078   -0.173563
      6          6           0       -4.496151    1.802207    1.314193
      7          6           0       -5.431788    2.515363   -0.898796
      8          1           0       -5.803601    3.479414   -0.525750
      9          1           0       -4.386386    2.656848   -1.183260
     10          8           0       -4.784745    2.375941    2.360104
     11          6           0       -6.172963    2.153968   -2.195229
     12          7           0       -7.445402    1.712736   -2.022883
     13          1           0       -7.969726    1.435952   -2.840891
     14          1           0       -7.795787    1.539698   -1.083036
     15          8           0       -5.632253    2.290784   -3.284875
     16          7           0       -3.211751    1.457880    1.004925
     17          1           0       -2.986637    0.977091    0.142879
     18          6           0       -2.108132    1.830178    1.868080
     19          1           0       -2.378029    2.778443    2.341799
     20          6           0       -0.869742    1.987016    1.000911
     21          6           0       -1.863301    0.772123    2.997354
     22          1           0       -2.819687    0.750373    3.535614
     23          8           0       -0.644819    1.237129    0.046727
     24          6           0       -0.774415    1.190706    4.006262
     25          1           0        0.202863    1.253423    3.502755
     26          1           0       -0.681314    0.376934    4.737944
     27          6           0       -1.595511   -0.628606    2.429873
     28          1           0       -0.675411   -0.675994    1.837119
     29          1           0       -1.520065   -1.356162    3.245903
     30          1           0       -2.410792   -0.951777    1.776348
     31          6           0       -1.056546    2.492129    4.768385
     32          1           0       -0.305478    2.665300    5.546403
     33          1           0       -1.059256    3.378149    4.121094
     34          1           0       -2.038827    2.454320    5.251231
     35          7           0        0.027798    2.942491    1.374537
     36          1           0       -0.160166    3.530697    2.175768
     37          6           0        1.309862    3.087308    0.682152
     38          1           0        1.134676    2.872381   -0.372910
     39          6           0        2.227725    2.000587    1.235396
     40          6           0        1.876167    4.489837    0.871198
     41          1           0        2.857895    4.561959    0.400764
     42          1           0        1.200262    5.216020    0.412156
     43          1           0        1.994235    4.731910    1.931696
     44          8           0        3.121092    2.376037    2.102075
     45          7           0        1.993347    0.744534    0.942179
     46          1           0        1.178342    0.542565    0.341789
     47          6           0        2.772049   -0.430000    1.358725
     48          1           0        3.837555   -0.194273    1.252716
     49          6           0        2.358837   -1.557803    0.382115
     50          6           0        2.501378   -0.821615    2.825552
     51          1           0        1.415848   -0.837458    2.979226
     52          8           0        1.212188   -1.587919   -0.055601
     53          6           0        3.125259   -2.145447    3.245849
     54          1           0        2.653842   -2.986922    2.731956
     55          1           0        2.985445   -2.288471    4.322450
     56          1           0        4.200313   -2.159020    3.038787
     57          8           0        3.083579    0.262361    3.590870
     58          1           0        3.359504    1.621989    2.721125
     59          7           0        3.338772   -2.429675    0.106945
     60          1           0        4.273985   -2.321790    0.497593
     61          6           0        3.259121   -3.550500   -0.818041
     62          1           0        2.465547   -4.247798   -0.526513
     63          6           0        4.640017   -4.222365   -0.731421
     64          6           0        2.959978   -3.033501   -2.268660
     65          1           0        3.647902   -2.205031   -2.480051
     66          1           0        1.940229   -2.641191   -2.260275
     67          8           0        5.537120   -3.725975   -0.044230
     68          8           0        3.052019   -4.043870   -3.249211
     69          1           0        3.946161   -3.969403   -3.648523
     70          7           0        4.839737   -5.303191   -1.531815
     71          1           0        4.088702   -5.463889   -2.199976
     72          6           0        6.198587   -5.474651   -2.062488
     73          1           0        6.886441   -5.724782   -1.252373
     74          1           0        6.185571   -6.293628   -2.784404
     75          6           0        6.559924   -4.153487   -2.768406
     76          8           0        5.804305   -3.686173   -3.630100
     77          7           0        7.643740   -3.485597   -2.319380
     78          1           0        8.116005   -3.835343   -1.495727
     79          6           0        7.767911   -2.050588   -2.586971
     80          1           0        7.555799   -1.887054   -3.645950
     81          6           0        9.166671   -1.525914   -2.316852
     82          6           0        6.730542   -1.267730   -1.737818
     83          1           0        5.787410   -1.803619   -1.862448
     84          1           0        6.998172   -1.361618   -0.677663
     85          8           0        9.553452   -0.444996   -2.693254
     86          6           0        6.510903    0.197556   -2.121562
     87          1           0        7.384620    0.804405   -1.860214
     88          1           0        6.398743    0.274312   -3.211300
     89          6           0        5.242403    0.744309   -1.448847
     90          1           0        5.328569    0.668154   -0.354647
     91          1           0        4.390050    0.108900   -1.737519
     92          6           0        4.926088    2.191007   -1.827751
     93          1           0        5.633483    2.869370   -1.337425
     94          1           0        5.064194    2.317228   -2.913541
     95          7           0        3.560847    2.561204   -1.392323
     96          1           0        2.896657    2.007953   -1.937797
     97          1           0        3.385219    3.526192   -1.674227
     98          8           0        9.902463   -2.361719   -1.546508
     99          1           0       10.766728   -1.931654   -1.399491
    100          1           0        2.772255    0.235901    4.509738
 ---------------------------------------------------------------------

 SCF Done:  E(RB3LYP) =  -2418.56289029     A.U. after    3 cycles

 Alpha  occ. eigenvalues --  -19.34257 -19.31605 -19.28952 -19.24462 -19.24216
 Alpha  occ. eigenvalues --  -19.23464 -19.23217 -19.22742 -19.22141 -19.19657
 Alpha  occ. eigenvalues --  -19.14891 -14.52812 -14.49499 -14.48090 -14.46212
 Alpha  occ. eigenvalues --  -14.46026 -14.44588 -14.42865 -14.39496 -14.38734
 Alpha  occ. eigenvalues --  -10.47052 -10.41783 -10.41199 -10.41145 -10.39801
 Alpha  occ. eigenvalues --  -10.39145 -10.39075 -10.38344 -10.37570 -10.36399
 Alpha  occ. eigenvalues --  -10.34279 -10.33388 -10.33219 -10.33095 -10.33025
 Alpha  occ. eigenvalues --  -10.32941 -10.30612 -10.30438 -10.30297 -10.30243
 Alpha  occ. eigenvalues --  -10.29226 -10.28970 -10.28303 -10.28180 -10.27664
 Alpha  occ. eigenvalues --  -10.27297 -10.26401 -10.25561  -1.25115  -1.19608
 Alpha  occ. eigenvalues --   -1.18086  -1.16695  -1.16432  -1.15405  -1.13691
 Alpha  occ. eigenvalues --   -1.11609  -1.10772  -1.10620  -1.09925  -1.06709
 Alpha  occ. eigenvalues --   -1.05717  -1.04817  -1.02717  -1.02660  -1.01281
 Alpha  occ. eigenvalues --   -0.98804  -0.96827  -0.93873  -0.93564  -0.91480
 Alpha  occ. eigenvalues --   -0.90067  -0.89811  -0.87492  -0.85813  -0.85120
 Alpha  occ. eigenvalues --   -0.84346  -0.82196  -0.81736  -0.80538  -0.79440
 Alpha  occ. eigenvalues --   -0.78686  -0.76596  -0.75885  -0.75066  -0.73491
 Alpha  occ. eigenvalues --   -0.72845  -0.72771  -0.72437  -0.71177  -0.70755
 Alpha  occ. eigenvalues --   -0.69242  -0.68859  -0.68601  -0.68127  -0.67559
 Alpha  occ. eigenvalues --   -0.67111  -0.66935  -0.65609  -0.63883  -0.63355
 Alpha  occ. eigenvalues --   -0.62854  -0.62704  -0.62115  -0.62041  -0.60732
 Alpha  occ. eigenvalues --   -0.60089  -0.59543  -0.59249  -0.59111  -0.58761
 Alpha  occ. eigenvalues --   -0.58131  -0.57710  -0.57511  -0.57125  -0.56991
 Alpha  occ. eigenvalues --   -0.56617  -0.56274  -0.56001  -0.55646  -0.55390
 Alpha  occ. eigenvalues --   -0.54988  -0.54896  -0.54742  -0.53795  -0.53701
 Alpha  occ. eigenvalues --   -0.53356  -0.53135  -0.52713  -0.52415  -0.51976
 Alpha  occ. eigenvalues --   -0.51953  -0.51666  -0.51498  -0.51241  -0.50932
 Alpha  occ. eigenvalues --   -0.50834  -0.50724  -0.50570  -0.50299  -0.50184
 Alpha  occ. eigenvalues --   -0.49950  -0.49811  -0.49709  -0.49221  -0.48868
 Alpha  occ. eigenvalues --   -0.48678  -0.48180  -0.47875  -0.47500  -0.47270
 Alpha  occ. eigenvalues --   -0.46977  -0.46549  -0.46086  -0.45481  -0.44912
 Alpha  occ. eigenvalues --   -0.44867  -0.44328  -0.43971  -0.43804  -0.43665
 Alpha  occ. eigenvalues --   -0.43286  -0.43274  -0.42907  -0.42723  -0.42429
 Alpha  occ. eigenvalues --   -0.42194  -0.41815  -0.40657  -0.40552  -0.39645
 Alpha  occ. eigenvalues --   -0.39044  -0.38441  -0.38042  -0.37713  -0.37506
 Alpha  occ. eigenvalues --   -0.36800  -0.36069  -0.35395  -0.35163  -0.34302
 Alpha  occ. eigenvalues --   -0.33896  -0.33757  -0.32141  -0.30261  -0.28676
 Alpha virt. eigenvalues --   -0.16188  -0.11023  -0.10242  -0.09920  -0.08521
 Alpha virt. eigenvalues --   -0.07924  -0.07629  -0.05528  -0.04913  -0.04522
 Alpha virt. eigenvalues --   -0.03972  -0.02324  -0.01748  -0.01560  -0.01320

 Mulliken charges:
               1
     1  N   -0.716353
     2  H    0.328347
     3  H    0.317533
     4  C   -0.096424
     5  H    0.157692
     6  C    0.599821
     7  C   -0.350466
     8  H    0.176002
     9  H    0.162905
    10  O   -0.524692
    11  C    0.572405
    12  N   -0.747687
    13  H    0.338039
    14  H    0.375404
    15  O   -0.509457
    16  N   -0.617158
    17  H    0.356339
    18  C   -0.034713
    19  H    0.183382
    20  C    0.627631
    21  C   -0.083803
    22  H    0.176849
    23  O   -0.542462
    24  C   -0.282187
    25  H    0.102232
    26  H    0.148040
    27  C   -0.476292
    28  H    0.156938
    29  H    0.149524
    30  H    0.166635
    31  C   -0.458506
    32  H    0.156005
    33  H    0.130110
    34  H    0.186703
    35  N   -0.617261
    36  H    0.358530
    37  C   -0.042006
    38  H    0.210440
    39  C    0.687410
    40  C   -0.476779
    41  H    0.194350
    42  H    0.190208
    43  H    0.175472
    44  O   -0.572394
    45  N   -0.604328
    46  H    0.442235
    47  C   -0.102168
    48  H    0.196720
    49  C    0.617157
    50  C    0.138017
    51  H    0.183179
    52  O   -0.511019
    53  C   -0.473301
    54  H    0.190173
    55  H    0.173852
    56  H    0.177732
    57  O   -0.671716
    58  H    0.480648
    59  N   -0.634392
    60  H    0.369880
    61  C   -0.062640
    62  H    0.202642
    63  C    0.592732
    64  C   -0.057921
    65  H    0.154807
    66  H    0.195683
    67  O   -0.540415
    68  O   -0.639316
    69  H    0.442280
    70  N   -0.571784
    71  H    0.362455
    72  C   -0.236069
    73  H    0.191152
    74  H    0.205919
    75  C    0.611909
    76  O   -0.549490
    77  N   -0.567829
    78  H    0.360933
    79  C   -0.061444
    80  H    0.215310
    81  C    0.595586
    82  C   -0.279639
    83  H    0.158421
    84  H    0.148824
    85  O   -0.445204
    86  C   -0.266748
    87  H    0.172364
    88  H    0.154968
    89  C   -0.275959
    90  H    0.129236
    91  H    0.127904
    92  C   -0.140098
    93  H    0.161699
    94  H    0.148789
    95  N   -0.761835
    96  H    0.309246
    97  H    0.316139
    98  O   -0.576407
    99  H    0.428368
   100  H    0.436458
 Sum of Mulliken charges =   1.00000

 Dipole moment (field-independent basis, Debye):
    X=             15.9828    Y=             -1.0933    Z=              9.9607  Tot=             18.8643
 Quadrupole moment (field-independent basis, Debye-Ang):
   XX=           -163.1553   YY=           -230.6902   ZZ=           -263.8095
   XY=            -25.8781   XZ=             -9.3795   YZ=             14.5349

 Normal termination of Gaussian 16 at Mon Jun  6 07:11:38 2022.
