 Gaussian 16, Revision C.01,
 Gaussian 16:  ES64L-G16RevC.01  3-Jul-2019

 ----------------------------------------------------------------------
 # B3LYP/6-31G* empiricaldispersion=gd3 guess=read geom=check nosymm in
 tegral(ultrafinegrid)
 ----------------------------------------------------------------------

 ------------------------------------------------------
 Candidate Structure: Conf:234 Charge calc in gas phase
 ------------------------------------------------------
 Structure from the checkpoint file:  "conf-234.chk"
 Charge =  1 Multiplicity = 1

                          Input orientation:
 ---------------------------------------------------------------------
 Center     Atomic      Atomic             Coordinates (Angstroms)
 Number     Number       Type             X           Y           Z
 ---------------------------------------------------------------------
      1          7           0       -0.989160   -3.740027    1.115868
      2          1           0       -0.168293   -4.330373    1.000763
      3          1           0       -1.474573   -3.690523    0.221494
      4          6           0       -0.614563   -2.392064    1.528109
      5          1           0       -0.268936   -2.428358    2.566745
      6          6           0       -1.895309   -1.545408    1.422989
      7          6           0        0.493828   -1.756313    0.659253
      8          1           0        1.318097   -2.473267    0.545731
      9          1           0        0.094031   -1.575489   -0.346798
     10          8           0       -2.558441   -1.540779    0.393237
     11          6           0        1.077389   -0.456030    1.190435
     12          7           0        2.006158    0.111978    0.414927
     13          1           0        2.491320    0.964483    0.667716
     14          1           0        2.335111   -0.304932   -0.455264
     15          8           0        0.708541    0.014326    2.294455
     16          7           0       -2.239231   -0.861360    2.552318
     17          1           0       -1.478235   -0.689613    3.196147
     18          6           0       -3.316281    0.110123    2.546329
     19          1           0       -4.059381   -0.257883    1.830001
     20          6           0       -2.770796    1.446267    1.997625
     21          6           0       -3.955620    0.177265    3.965007
     22          1           0       -4.087266   -0.878741    4.232515
     23          8           0       -1.628518    1.543347    1.545987
     24          6           0       -5.362614    0.819076    4.000535
     25          1           0       -5.884546    0.627716    3.052329
     26          1           0       -5.279218    1.910818    4.112145
     27          6           0       -3.011422    0.821273    4.994400
     28          1           0       -2.786432    1.861667    4.733247
     29          1           0       -3.462477    0.813810    5.991201
     30          1           0       -2.061948    0.278604    5.076828
     31          6           0       -6.228086    0.291842    5.152525
     32          1           0       -7.206336    0.783275    5.164176
     33          1           0       -6.393905   -0.786431    5.051532
     34          1           0       -5.756076    0.469533    6.124807
     35          7           0       -3.574776    2.542047    2.051208
     36          1           0       -4.479667    2.490409    2.495296
     37          6           0       -3.034299    3.857579    1.733732
     38          1           0       -2.961053    3.972867    0.644853
     39          6           0       -1.627126    3.948931    2.334745
     40          6           0       -3.928066    4.954729    2.320367
     41          1           0       -3.545794    5.943830    2.052487
     42          1           0       -4.944821    4.866906    1.924194
     43          1           0       -3.957132    4.873931    3.411267
     44          8           0       -1.436268    3.676595    3.543046
     45          7           0       -0.641450    4.346342    1.524670
     46          1           0       -0.789487    4.357713    0.516606
     47          6           0        0.766907    4.463893    1.883873
     48          1           0        0.892451    5.193975    2.691875
     49          6           0        1.448509    4.907044    0.557294
     50          6           0        1.441816    3.109211    2.272407
     51          1           0        1.466042    2.504454    1.367769
     52          8           0        0.858329    4.726222   -0.504114
     53          6           0        2.821458    3.216791    2.908307
     54          1           0        3.582934    3.435201    2.161289
     55          1           0        3.070245    2.247245    3.348898
     56          1           0        2.831594    3.961112    3.712454
     57          8           0        0.624925    2.344460    3.228045
     58          1           0       -0.277681    2.833225    3.476486
     59          7           0        2.731713    5.343743    0.592386
     60          1           0        3.199205    5.396514    1.487680
     61          6           0        3.561662    5.068467   -0.585798
     62          1           0        3.279291    5.742140   -1.399726
     63          6           0        3.340463    3.601142   -0.989758
     64          6           0        5.057905    5.247892   -0.252696
     65          1           0        5.279069    4.701505    0.674580
     66          1           0        5.266942    6.312643   -0.088618
     67          8           0        3.363830    2.713214   -0.131464
     68          8           0        5.838320    4.756525   -1.323593
     69          1           0        6.319726    3.977646   -0.976569
     70          7           0        3.179500    3.322941   -2.298437
     71          1           0        3.073624    4.078863   -2.960355
     72          6           0        2.922611    1.949034   -2.707122
     73          1           0        1.984871    1.584403   -2.278286
     74          1           0        2.843705    1.918153   -3.797304
     75          6           0        4.029960    0.987802   -2.248651
     76          8           0        3.762286   -0.155133   -1.884440
     77          7           0        5.290504    1.485885   -2.333111
     78          1           0        5.390499    2.482787   -2.492408
     79          6           0        6.437603    0.788585   -1.772303
     80          1           0        6.187707   -0.272330   -1.725733
     81          6           0        6.702703    1.293267   -0.355588
     82          6           0        7.692887    1.012982   -2.639203
     83          1           0        7.452874    0.658816   -3.648975
     84          1           0        7.876587    2.094438   -2.714484
     85          8           0        6.699450    2.468880   -0.025281
     86          6           0        8.944810    0.310011   -2.104411
     87          1           0        9.211301    0.691144   -1.112568
     88          1           0        8.736527   -0.761700   -1.977609
     89          6           0       10.156697    0.488720   -3.025221
     90          1           0       10.311912    1.560199   -3.224526
     91          1           0        9.964181    0.019226   -3.999389
     92          6           0       11.442261   -0.098201   -2.429765
     93          1           0       11.278484   -1.158159   -2.196057
     94          1           0       12.239137   -0.062932   -3.192594
     95          7           0       11.788337    0.586070   -1.175457
     96          1           0       12.131159    1.523346   -1.385304
     97          1           0       12.559940    0.103077   -0.718884
     98          8           0        6.995043    0.306221    0.495069
     99          1           0        7.241429    0.708334    1.351240
    100          1           0        0.549414    1.363547    2.837745
 ---------------------------------------------------------------------

 SCF Done:  E(RB3LYP) =  -2418.58101146     A.U. after    3 cycles

 Alpha  occ. eigenvalues --  -19.32694 -19.30227 -19.25213 -19.25186 -19.25174
 Alpha  occ. eigenvalues --  -19.23960 -19.23922 -19.23574 -19.21973 -19.21562
 Alpha  occ. eigenvalues --  -19.18541 -14.48880 -14.48695 -14.48350 -14.46087
 Alpha  occ. eigenvalues --  -14.46033 -14.45231 -14.42954 -14.37999 -14.37158
 Alpha  occ. eigenvalues --  -10.42730 -10.42213 -10.41997 -10.40684 -10.40374
 Alpha  occ. eigenvalues --  -10.39393 -10.38526 -10.38313 -10.37564 -10.35464
 Alpha  occ. eigenvalues --  -10.34900 -10.34844 -10.34232 -10.33807 -10.33172
 Alpha  occ. eigenvalues --  -10.31425 -10.29833 -10.29552 -10.28869 -10.28233
 Alpha  occ. eigenvalues --  -10.27842 -10.27623 -10.26893 -10.26668 -10.25499
 Alpha  occ. eigenvalues --  -10.25168 -10.24739 -10.24650  -1.21423  -1.20549
 Alpha  occ. eigenvalues --   -1.17751  -1.16579  -1.15788  -1.14278  -1.13644
 Alpha  occ. eigenvalues --   -1.13499  -1.12437  -1.11141  -1.10431  -1.05642
 Alpha  occ. eigenvalues --   -1.05116  -1.04577  -1.02607  -1.02485  -1.00895
 Alpha  occ. eigenvalues --   -0.99990  -0.95676  -0.93842  -0.92177  -0.89598
 Alpha  occ. eigenvalues --   -0.89250  -0.87654  -0.87570  -0.84595  -0.84384
 Alpha  occ. eigenvalues --   -0.83566  -0.82121  -0.81830  -0.78809  -0.77098
 Alpha  occ. eigenvalues --   -0.76511  -0.75563  -0.74689  -0.73945  -0.72987
 Alpha  occ. eigenvalues --   -0.72575  -0.72117  -0.71347  -0.70668  -0.70007
 Alpha  occ. eigenvalues --   -0.69377  -0.68296  -0.68063  -0.67716  -0.66603
 Alpha  occ. eigenvalues --   -0.66152  -0.65169  -0.64687  -0.64510  -0.63573
 Alpha  occ. eigenvalues --   -0.63396  -0.62924  -0.62404  -0.61675  -0.60853
 Alpha  occ. eigenvalues --   -0.60820  -0.60513  -0.59632  -0.58864  -0.58344
 Alpha  occ. eigenvalues --   -0.57718  -0.57370  -0.57144  -0.56638  -0.56352
 Alpha  occ. eigenvalues --   -0.55797  -0.55745  -0.55107  -0.55021  -0.54622
 Alpha  occ. eigenvalues --   -0.54488  -0.54327  -0.54098  -0.53522  -0.53320
 Alpha  occ. eigenvalues --   -0.53097  -0.52687  -0.52504  -0.52050  -0.51745
 Alpha  occ. eigenvalues --   -0.51441  -0.51365  -0.51225  -0.50603  -0.50502
 Alpha  occ. eigenvalues --   -0.50125  -0.49887  -0.49739  -0.49563  -0.49511
 Alpha  occ. eigenvalues --   -0.49374  -0.49257  -0.48874  -0.48525  -0.48150
 Alpha  occ. eigenvalues --   -0.47597  -0.47099  -0.46765  -0.46670  -0.46424
 Alpha  occ. eigenvalues --   -0.46171  -0.46017  -0.45242  -0.44671  -0.44558
 Alpha  occ. eigenvalues --   -0.43956  -0.43835  -0.43200  -0.43192  -0.42879
 Alpha  occ. eigenvalues --   -0.42522  -0.41245  -0.40873  -0.40790  -0.40482
 Alpha  occ. eigenvalues --   -0.40251  -0.40087  -0.39727  -0.39687  -0.39364
 Alpha  occ. eigenvalues --   -0.39021  -0.38746  -0.38517  -0.38066  -0.37714
 Alpha  occ. eigenvalues --   -0.37235  -0.36750  -0.35942  -0.35819  -0.35122
 Alpha  occ. eigenvalues --   -0.34986  -0.33398  -0.32075  -0.30106  -0.29414
 Alpha virt. eigenvalues --   -0.12229  -0.11501  -0.10004  -0.09468  -0.08787
 Alpha virt. eigenvalues --   -0.08115  -0.07295  -0.04662  -0.03687  -0.03043
 Alpha virt. eigenvalues --   -0.02345  -0.01929  -0.01071  -0.00393  -0.00230

 Mulliken charges:
               1
     1  N   -0.712978
     2  H    0.302111
     3  H    0.322706
     4  C   -0.047829
     5  H    0.151758
     6  C    0.636628
     7  C   -0.397575
     8  H    0.180138
     9  H    0.199879
    10  O   -0.527752
    11  C    0.671162
    12  N   -0.799188
    13  H    0.386487
    14  H    0.400071
    15  O   -0.616822
    16  N   -0.589479
    17  H    0.343701
    18  C   -0.097156
    19  H    0.206339
    20  C    0.633250
    21  C   -0.077635
    22  H    0.168466
    23  O   -0.555829
    24  C   -0.294329
    25  H    0.148373
    26  H    0.130167
    27  C   -0.497577
    28  H    0.171049
    29  H    0.169214
    30  H    0.141369
    31  C   -0.454603
    32  H    0.160788
    33  H    0.163617
    34  H    0.158104
    35  N   -0.609974
    36  H    0.356456
    37  C    0.006070
    38  H    0.175589
    39  C    0.650824
    40  C   -0.497356
    41  H    0.181808
    42  H    0.182907
    43  H    0.191998
    44  O   -0.598531
    45  N   -0.596054
    46  H    0.383897
    47  C   -0.091300
    48  H    0.197437
    49  C    0.621333
    50  C    0.122092
    51  H    0.188960
    52  O   -0.514825
    53  C   -0.490742
    54  H    0.187991
    55  H    0.190944
    56  H    0.168956
    57  O   -0.696183
    58  H    0.500602
    59  N   -0.601382
    60  H    0.345677
    61  C   -0.044056
    62  H    0.185547
    63  C    0.653646
    64  C   -0.064935
    65  H    0.157233
    66  H    0.171986
    67  O   -0.565573
    68  O   -0.659072
    69  H    0.445255
    70  N   -0.594310
    71  H    0.360876
    72  C   -0.226632
    73  H    0.201860
    74  H    0.202661
    75  C    0.625837
    76  O   -0.537629
    77  N   -0.586888
    78  H    0.348956
    79  C   -0.054958
    80  H    0.210191
    81  C    0.621771
    82  C   -0.282608
    83  H    0.166923
    84  H    0.147001
    85  O   -0.502190
    86  C   -0.267245
    87  H    0.171759
    88  H    0.142748
    89  C   -0.257634
    90  H    0.130806
    91  H    0.139661
    92  C   -0.144022
    93  H    0.144520
    94  H    0.130076
    95  N   -0.720657
    96  H    0.297265
    97  H    0.306965
    98  O   -0.533272
    99  H    0.425069
   100  H    0.519251
 Sum of Mulliken charges =   1.00000

 Dipole moment (field-independent basis, Debye):
    X=             11.3950    Y=             14.7132    Z=              3.9258  Tot=             19.0193
 Quadrupole moment (field-independent basis, Debye-Ang):
   XX=           -127.4659   YY=           -217.8803   ZZ=           -239.3842
   XY=              6.8420   XZ=            -36.2390   YZ=             14.2406

 Normal termination of Gaussian 16 at Mon Jun  6 07:11:40 2022.
