 Gaussian 16, Revision C.01,
 Gaussian 16:  ES64L-G16RevC.01  3-Jul-2019

 ----------------------------------------------------------------------
 # B3LYP/6-31G* empiricaldispersion=gd3bj guess=read geom=check nosymm
 integral(ultrafinegrid)
 ----------------------------------------------------------------------

 ------------------------------------------------------
 Candidate Structure: Conf:315 Charge calc in gas phase
 ------------------------------------------------------
 Structure from the checkpoint file:  "conf-315.chk"
 Charge =  1 Multiplicity = 1

                          Input orientation:
 ---------------------------------------------------------------------
 Center     Atomic      Atomic             Coordinates (Angstroms)
 Number     Number       Type             X           Y           Z
 ---------------------------------------------------------------------
      1          7           0       -5.667934    1.227737    1.777565
      2          1           0       -5.712518    0.328516    1.219785
      3          1           0       -6.052341    1.095556    2.719078
      4          1           0       -6.199245    1.926341    1.233874
      5          6           0       -4.189609    1.541921    1.750180
      6          1           0       -4.087364    2.598803    1.505027
      7          6           0       -3.719916    0.709543    0.523611
      8          6           0       -3.495014    1.251948    3.090287
      9          1           0       -2.410082    1.266965    2.914416
     10          1           0       -3.746303    2.045786    3.802063
     11          8           0       -4.470020   -0.177072    0.104480
     12          6           0       -3.896155   -0.118708    3.612558
     13          7           0       -4.934081   -0.110877    4.518796
     14          1           0       -5.155490   -1.014021    4.928232
     15          1           0       -5.017456    0.672311    5.156707
     16          8           0       -3.439161   -1.154136    3.152261
     17          7           0       -2.611135    1.140849   -0.072717
     18          1           0       -1.941019    1.683924    0.466636
     19          6           0       -2.280107    0.798842   -1.466062
     20          1           0       -2.530191   -0.255368   -1.613053
     21          6           0       -0.755403    1.018891   -1.528328
     22          6           0       -3.036941    1.717822   -2.464069
     23          1           0       -2.408487    2.599094   -2.619814
     24          1           0       -3.102993    1.190969   -3.421977
     25          8           0       -0.269407    2.082452   -1.916399
     26          6           0       -4.409632    2.139374   -1.990873
     27          6           0       -5.549328    1.368032   -2.252143
     28          1           0       -5.457202    0.470051   -2.856094
     29          6           0       -4.552467    3.291294   -1.205099
     30          1           0       -3.682235    3.915142   -1.016946
     31          6           0       -6.791629    1.719707   -1.726001
     32          1           0       -7.662832    1.110676   -1.948205
     33          6           0       -5.793236    3.652358   -0.670301
     34          1           0       -5.887744    4.568812   -0.093182
     35          6           0       -6.920056    2.859971   -0.923860
     36          1           0       -7.895801    3.157838   -0.548289
     37          7           0       -0.054727    0.035216   -0.937650
     38          1           0       -0.441064   -0.930031   -0.839435
     39          6           0        1.246992    0.321478   -0.341942
     40          1           0        1.318828    1.408761   -0.269583
     41          6           0        2.341418   -0.210582   -1.276864
     42          6           0        1.308104   -0.298839    1.058917
     43          1           0        2.101733    0.183531    1.638047
     44          1           0        1.558132   -1.358769    0.971308
     45          8           0        2.855327   -1.317924   -1.125459
     46          6           0       -0.027433   -0.086723    1.764457
     47          7           0       -0.662202   -1.211138    2.146163
     48          1           0       -1.615824   -1.177396    2.503573
     49          1           0       -0.287566   -2.114496    1.900297
     50          8           0       -0.503567    1.046416    1.941473
     51          7           0        2.598800    0.621703   -2.317904
     52          1           0        2.053608    1.475595   -2.384393
     53          6           0        3.387179    0.204665   -3.461179
     54          1           0        3.860673   -0.735944   -3.174758
     55          6           0        4.514381    1.167685   -3.805559
     56          6           0        2.524993   -0.003616   -4.737285
     57          1           0        2.276911    0.976760   -5.162640
     58          1           0        3.145806   -0.517756   -5.478268
     59          8           0        5.416524    0.886701   -4.558479
     60          6           0        1.217343   -0.754169   -4.467922
     61          1           0        0.642609   -0.184768   -3.730172
     62          1           0        0.622912   -0.768487   -5.389210
     63          6           0        1.394479   -2.189315   -3.942895
     64          1           0        1.559235   -2.876496   -4.782528
     65          1           0        2.265296   -2.246751   -3.286222
     66          7           0        0.223769   -2.597158   -3.158371
     67          1           0       -0.624846   -2.071086   -3.319854
     68          7           0        1.268043   -4.043934   -1.652137
     69          1           0        1.762981   -3.934623   -0.776908
     70          1           0        1.886742   -4.260452   -2.422560
     71          7           0       -0.591798   -2.714836   -1.003575
     72          1           0       -0.591923   -3.352177   -0.207142
     73          6           0        0.287933   -3.102243   -1.887824
     74          8           0        4.360879    2.383667   -3.236397
     75          1           0        5.104990    2.931288   -3.552659
 ---------------------------------------------------------------------

 SCF Done:  E(RB3LYP) =  -1917.52537082     A.U. after    2 cycles

 Alpha  occ. eigenvalues --  -19.26955 -19.26334 -19.25926 -19.21634 -19.21255
 Alpha  occ. eigenvalues --  -19.20803 -19.20288 -14.58286 -14.50073 -14.48454
 Alpha  occ. eigenvalues --  -14.44715 -14.44285 -14.43954 -14.43057 -14.42637
 Alpha  occ. eigenvalues --  -14.37236 -10.43609 -10.42576 -10.40392 -10.39132
 Alpha  occ. eigenvalues --  -10.38800 -10.38245 -10.37244 -10.36941 -10.34194
 Alpha  occ. eigenvalues --  -10.34134 -10.32275 -10.31527 -10.30154 -10.30122
 Alpha  occ. eigenvalues --  -10.29945 -10.29938 -10.29531 -10.29528 -10.29166
 Alpha  occ. eigenvalues --  -10.28735 -10.28458 -10.27360 -10.27073  -1.18703
 Alpha  occ. eigenvalues --   -1.17891  -1.17725  -1.13517  -1.12585  -1.12469
 Alpha  occ. eigenvalues --   -1.11925  -1.08674  -1.06119  -1.05540  -1.04693
 Alpha  occ. eigenvalues --   -1.01793  -1.00870  -0.99778  -0.96869  -0.96226
 Alpha  occ. eigenvalues --   -0.93424  -0.92546  -0.89486  -0.88267  -0.86918
 Alpha  occ. eigenvalues --   -0.85020  -0.84697  -0.82540  -0.82066  -0.77842
 Alpha  occ. eigenvalues --   -0.76173  -0.74944  -0.73487  -0.72430  -0.71947
 Alpha  occ. eigenvalues --   -0.71024  -0.70636  -0.69738  -0.68906  -0.68555
 Alpha  occ. eigenvalues --   -0.68471  -0.68040  -0.67330  -0.66883  -0.66333
 Alpha  occ. eigenvalues --   -0.64874  -0.63063  -0.62957  -0.61617  -0.61555
 Alpha  occ. eigenvalues --   -0.60921  -0.59863  -0.59713  -0.59446  -0.59049
 Alpha  occ. eigenvalues --   -0.58441  -0.58041  -0.57227  -0.56714  -0.55895
 Alpha  occ. eigenvalues --   -0.55645  -0.55513  -0.55431  -0.55036  -0.54534
 Alpha  occ. eigenvalues --   -0.54174  -0.53932  -0.53660  -0.52743  -0.52343
 Alpha  occ. eigenvalues --   -0.51992  -0.51896  -0.51389  -0.51111  -0.50738
 Alpha  occ. eigenvalues --   -0.50259  -0.50102  -0.49371  -0.49247  -0.48543
 Alpha  occ. eigenvalues --   -0.47906  -0.47414  -0.47071  -0.46746  -0.46389
 Alpha  occ. eigenvalues --   -0.46269  -0.45539  -0.45433  -0.44221  -0.43916
 Alpha  occ. eigenvalues --   -0.43732  -0.43521  -0.42330  -0.42193  -0.41840
 Alpha  occ. eigenvalues --   -0.40615  -0.39564  -0.38702  -0.38627  -0.36940
 Alpha  occ. eigenvalues --   -0.36284  -0.36158  -0.35878  -0.35570  -0.35494
 Alpha  occ. eigenvalues --   -0.35090  -0.34562  -0.34172  -0.32852  -0.32515
 Alpha  occ. eigenvalues --   -0.30808
 Alpha virt. eigenvalues --   -0.13327  -0.12509  -0.11312  -0.10544  -0.08865
 Alpha virt. eigenvalues --   -0.08235  -0.07202  -0.06401  -0.05937  -0.05045
 Alpha virt. eigenvalues --   -0.04433  -0.03125  -0.02596  -0.01869  -0.00896

 Mulliken charges:
               1
     1  N   -0.769578
     2  H    0.431892
     3  H    0.399634
     4  H    0.406905
     5  C   -0.110630
     6  H    0.220812
     7  C    0.672010
     8  C   -0.401277
     9  H    0.267626
    10  H    0.171112
    11  O   -0.529950
    12  C    0.565173
    13  N   -0.747300
    14  H    0.372594
    15  H    0.358799
    16  O   -0.464133
    17  N   -0.617496
    18  H    0.386391
    19  C   -0.030375
    20  H    0.203848
    21  C    0.563686
    22  C   -0.366815
    23  H    0.201980
    24  H    0.167452
    25  O   -0.529497
    26  C    0.149530
    27  C   -0.143208
    28  H    0.154105
    29  C   -0.188815
    30  H    0.151830
    31  C   -0.132718
    32  H    0.159942
    33  C   -0.171127
    34  H    0.153931
    35  C   -0.191986
    36  H    0.156381
    37  N   -0.630114
    38  H    0.419380
    39  C   -0.072377
    40  H    0.195721
    41  C    0.646662
    42  C   -0.374658
    43  H    0.198106
    44  H    0.169851
    45  O   -0.548204
    46  C    0.615297
    47  N   -0.759214
    48  H    0.394798
    49  H    0.345139
    50  O   -0.569304
    51  N   -0.594027
    52  H    0.362016
    53  C   -0.069547
    54  H    0.212744
    55  C    0.592678
    56  C   -0.286447
    57  H    0.159538
    58  H    0.183378
    59  O   -0.448025
    60  C   -0.307270
    61  H    0.151998
    62  H    0.160064
    63  C   -0.146409
    64  H    0.162683
    65  H    0.181123
    66  N   -0.579413
    67  H    0.326261
    68  N   -0.731351
    69  H    0.345607
    70  H    0.343591
    71  N   -0.752415
    72  H    0.278029
    73  C    0.646247
    74  O   -0.565762
    75  H    0.422901
 Sum of Mulliken charges =   1.00000

 Dipole moment (field-independent basis, Debye):
    X=            -18.2980    Y=              4.1875    Z=              6.4728  Tot=             19.8557
 Quadrupole moment (field-independent basis, Debye-Ang):
   XX=           -105.8488   YY=           -202.3638   ZZ=           -163.2117
   XY=            -33.6400   XZ=            -52.2409   YZ=              9.8612

 Normal termination of Gaussian 16 at Mon Jun 27 16:18:04 2022.
