 Gaussian 16, Revision C.01,
 Gaussian 16:  ES64L-G16RevC.01  3-Jul-2019

 ----------------------------------------------------------------------
 # B3LYP/6-31G* empiricaldispersion=gd3bj guess=read geom=check nosymm
 integral(ultrafinegrid)
 ----------------------------------------------------------------------

 ------------------------------------------------------
 Candidate Structure: Conf:304 Charge calc in gas phase
 ------------------------------------------------------
 Structure from the checkpoint file:  "conf-304.chk"
 Charge =  1 Multiplicity = 1

                          Input orientation:
 ---------------------------------------------------------------------
 Center     Atomic      Atomic             Coordinates (Angstroms)
 Number     Number       Type             X           Y           Z
 ---------------------------------------------------------------------
      1          7           0       -4.211578   -0.890313    4.547105
      2          1           0       -4.364391   -1.524275    3.729926
      3          1           0       -3.317935   -1.189224    5.037437
      4          1           0       -5.007895   -0.901010    5.186509
      5          6           0       -3.934787    0.457147    3.935015
      6          1           0       -4.843197    1.062049    3.991690
      7          6           0       -3.606324    0.133199    2.452339
      8          6           0       -2.762815    1.140059    4.666015
      9          1           0       -2.550318    2.111545    4.215699
     10          1           0       -3.035836    1.328140    5.709692
     11          8           0       -3.798825   -1.009457    2.039191
     12          6           0       -1.552205    0.209151    4.664749
     13          7           0       -0.444022    0.627507    4.045407
     14          1           0        0.339891   -0.013819    4.015754
     15          1           0       -0.448396    1.411751    3.390894
     16          8           0       -1.661115   -0.898125    5.220794
     17          7           0       -3.101765    1.153684    1.753178
     18          1           0       -2.820045    1.997337    2.238256
     19          6           0       -2.445295    1.009530    0.463646
     20          1           0       -2.301366   -0.060348    0.286275
     21          6           0       -1.079126    1.710062    0.617961
     22          6           0       -3.303452    1.607528   -0.679011
     23          1           0       -3.352692    2.694607   -0.549163
     24          1           0       -2.794522    1.422696   -1.631517
     25          8           0       -0.785677    2.295398    1.677375
     26          6           0       -4.689982    1.010859   -0.687714
     27          6           0       -4.914011   -0.257533   -1.234520
     28          1           0       -4.092549   -0.794850   -1.702906
     29          6           0       -5.758974    1.689547   -0.093212
     30          1           0       -5.597701    2.681331    0.322852
     31          6           0       -6.180805   -0.836491   -1.189150
     32          1           0       -6.341439   -1.818209   -1.624467
     33          6           0       -7.029315    1.114060   -0.046914
     34          1           0       -7.854129    1.659409    0.403050
     35          6           0       -7.241904   -0.151967   -0.593496
     36          1           0       -8.231275   -0.598787   -0.566051
     37          7           0       -0.279624    1.663175   -0.445308
     38          1           0       -0.552222    1.212574   -1.318824
     39          6           0        1.002373    2.340713   -0.542260
     40          1           0        0.939090    3.327704   -0.078360
     41          6           0        1.296445    2.432471   -2.049522
     42          6           0        2.119923    1.531774    0.155498
     43          1           0        2.217466    0.555431   -0.327703
     44          1           0        1.812771    1.370406    1.195470
     45          8           0        0.718895    1.690302   -2.842125
     46          6           0        3.459787    2.272391    0.177594
     47          7           0        4.560942    1.489860    0.206176
     48          1           0        5.468285    1.941550    0.055806
     49          1           0        4.482269    0.556143   -0.173747
     50          8           0        3.506176    3.506387    0.220361
     51          7           0        2.271553    3.305996   -2.375337
     52          1           0        2.718878    3.764961   -1.584262
     53          6           0        3.117799    3.106577   -3.546218
     54          1           0        2.589131    3.373598   -4.464485
     55          6           0        3.531525    1.633447   -3.632764
     56          6           0        4.367392    3.985918   -3.328341
     57          1           0        4.043445    5.034301   -3.338263
     58          1           0        4.706208    3.767280   -2.309564
     59          8           0        3.731221    0.911472   -2.678417
     60          6           0        5.541337    3.769060   -4.282657
     61          1           0        5.702793    2.705376   -4.459736
     62          1           0        5.350210    4.237854   -5.255078
     63          6           0        6.851023    4.335612   -3.702561
     64          1           0        7.683247    4.032872   -4.343159
     65          1           0        6.829234    5.430169   -3.677681
     66          7           0        7.153153    3.898700   -2.339616
     67          1           0        6.720740    4.439013   -1.601851
     68          7           0        7.408534    2.321820   -0.650417
     69          1           0        7.861079    1.434846   -0.449477
     70          1           0        7.898173    3.061324   -0.150610
     71          7           0        7.397746    1.678749   -2.976670
     72          1           0        7.635908    0.761051   -2.599822
     73          6           0        7.337281    2.563029   -2.051133
     74          8           0        3.700476    1.245870   -4.905943
     75          1           0        4.039922    0.330688   -4.885584
 ---------------------------------------------------------------------

 SCF Done:  E(RB3LYP) =  -1917.53192272     A.U. after    1 cycles

 Alpha  occ. eigenvalues --  -19.26977 -19.26529 -19.25645 -19.23934 -19.21459
 Alpha  occ. eigenvalues --  -19.20780 -19.19559 -14.57545 -14.49537 -14.48365
 Alpha  occ. eigenvalues --  -14.47071 -14.43514 -14.42939 -14.42255 -14.41518
 Alpha  occ. eigenvalues --  -14.35403 -10.43501 -10.43135 -10.41000 -10.40740
 Alpha  occ. eigenvalues --  -10.39414 -10.37385 -10.37227 -10.35389 -10.35360
 Alpha  occ. eigenvalues --  -10.35082 -10.33039 -10.31354 -10.29793 -10.28833
 Alpha  occ. eigenvalues --  -10.28130 -10.27851 -10.27188 -10.26992 -10.26967
 Alpha  occ. eigenvalues --  -10.26787 -10.26715 -10.26360 -10.24124  -1.19076
 Alpha  occ. eigenvalues --   -1.18062  -1.17237  -1.15509  -1.12685  -1.12194
 Alpha  occ. eigenvalues --   -1.11096  -1.08970  -1.06752  -1.04703  -1.03910
 Alpha  occ. eigenvalues --   -1.03549  -1.01143  -0.97765  -0.95890  -0.94558
 Alpha  occ. eigenvalues --   -0.93518  -0.91290  -0.89985  -0.87952  -0.86012
 Alpha  occ. eigenvalues --   -0.84029  -0.82435  -0.81886  -0.80974  -0.77725
 Alpha  occ. eigenvalues --   -0.75952  -0.74651  -0.73877  -0.73243  -0.72613
 Alpha  occ. eigenvalues --   -0.71232  -0.69658  -0.69462  -0.68578  -0.67973
 Alpha  occ. eigenvalues --   -0.67017  -0.66446  -0.65874  -0.65822  -0.64918
 Alpha  occ. eigenvalues --   -0.63826  -0.63065  -0.61732  -0.60826  -0.60583
 Alpha  occ. eigenvalues --   -0.60435  -0.59630  -0.59519  -0.59115  -0.58919
 Alpha  occ. eigenvalues --   -0.58639  -0.58119  -0.57662  -0.55951  -0.55469
 Alpha  occ. eigenvalues --   -0.55298  -0.55105  -0.54362  -0.54178  -0.53907
 Alpha  occ. eigenvalues --   -0.53554  -0.53220  -0.52964  -0.52563  -0.52306
 Alpha  occ. eigenvalues --   -0.51888  -0.51768  -0.51101  -0.50800  -0.50031
 Alpha  occ. eigenvalues --   -0.49913  -0.49248  -0.49050  -0.48826  -0.48579
 Alpha  occ. eigenvalues --   -0.47913  -0.47738  -0.47552  -0.46527  -0.45972
 Alpha  occ. eigenvalues --   -0.44817  -0.44263  -0.44027  -0.43901  -0.42585
 Alpha  occ. eigenvalues --   -0.42100  -0.41826  -0.41213  -0.41112  -0.40352
 Alpha  occ. eigenvalues --   -0.40322  -0.39610  -0.39227  -0.38738  -0.38072
 Alpha  occ. eigenvalues --   -0.37178  -0.36234  -0.34690  -0.34646  -0.33925
 Alpha  occ. eigenvalues --   -0.33802  -0.33155  -0.32975  -0.32578  -0.32531
 Alpha  occ. eigenvalues --   -0.29352
 Alpha virt. eigenvalues --   -0.12868  -0.11268  -0.10167  -0.08371  -0.08091
 Alpha virt. eigenvalues --   -0.07914  -0.07368  -0.06456  -0.05538  -0.04342
 Alpha virt. eigenvalues --   -0.03089  -0.01906  -0.01721  -0.01355  -0.00767

 Mulliken charges:
               1
     1  N   -0.765661
     2  H    0.427255
     3  H    0.441984
     4  H    0.404891
     5  C   -0.128487
     6  H    0.231970
     7  C    0.645409
     8  C   -0.395574
     9  H    0.204432
    10  H    0.219598
    11  O   -0.512259
    12  C    0.613562
    13  N   -0.746828
    14  H    0.366094
    15  H    0.410614
    16  O   -0.535976
    17  N   -0.578586
    18  H    0.354613
    19  C   -0.085785
    20  H    0.210708
    21  C    0.641565
    22  C   -0.371238
    23  H    0.166186
    24  H    0.179579
    25  O   -0.583834
    26  C    0.179168
    27  C   -0.167337
    28  H    0.132483
    29  C   -0.190223
    30  H    0.122280
    31  C   -0.126334
    32  H    0.149143
    33  C   -0.136322
    34  H    0.141439
    35  C   -0.129985
    36  H    0.147471
    37  N   -0.614936
    38  H    0.373240
    39  C   -0.056680
    40  H    0.206742
    41  C    0.624659
    42  C   -0.354085
    43  H    0.178120
    44  H    0.176884
    45  O   -0.539276
    46  C    0.608218
    47  N   -0.755093
    48  H    0.393000
    49  H    0.346073
    50  O   -0.547510
    51  N   -0.633498
    52  H    0.381898
    53  C   -0.001373
    54  H    0.192658
    55  C    0.606444
    56  C   -0.322617
    57  H    0.162652
    58  H    0.153115
    59  O   -0.497355
    60  C   -0.285938
    61  H    0.197710
    62  H    0.148105
    63  C   -0.132144
    64  H    0.184707
    65  H    0.147715
    66  N   -0.588374
    67  H    0.327674
    68  N   -0.787298
    69  H    0.332083
    70  H    0.337022
    71  N   -0.635605
    72  H    0.272994
    73  C    0.591832
    74  O   -0.549450
    75  H    0.421671
 Sum of Mulliken charges =   1.00000

 Dipole moment (field-independent basis, Debye):
    X=             -6.2447    Y=              4.0564    Z=             11.8893  Tot=             14.0288
 Quadrupole moment (field-independent basis, Debye-Ang):
   XX=            -89.5443   YY=           -203.2665   ZZ=           -161.6011
   XY=             15.8666   XZ=            -64.1804   YZ=             -2.1312

 Normal termination of Gaussian 16 at Mon Jun 27 16:17:33 2022.
