 Gaussian 16, Revision C.01,
 Gaussian 16:  ES64L-G16RevC.01  3-Jul-2019

 ----------------------------------------------------------------------
 # B3LYP/6-31G* empiricaldispersion=gd3bj guess=read geom=check nosymm
 integral(ultrafinegrid)
 ----------------------------------------------------------------------

 ------------------------------------------------------
 Candidate Structure: Conf:962 Charge calc in gas phase
 ------------------------------------------------------
 Structure from the checkpoint file:  "conf-962.chk"
 Charge =  1 Multiplicity = 1

                          Input orientation:
 ---------------------------------------------------------------------
 Center     Atomic      Atomic             Coordinates (Angstroms)
 Number     Number       Type             X           Y           Z
 ---------------------------------------------------------------------
      1          7           0       -5.959613   -0.136563    2.429482
      2          1           0       -6.398986    0.747170    2.105947
      3          1           0       -5.904876   -0.744506    1.580485
      4          1           0       -6.515848   -0.559886    3.176508
      5          6           0       -4.516590    0.110775    2.787823
      6          1           0       -4.448256    1.060326    3.315510
      7          6           0       -3.864017    0.181544    1.388356
      8          6           0       -3.932661   -1.018210    3.641051
      9          1           0       -4.438426   -1.063079    4.613498
     10          1           0       -4.060548   -1.982185    3.136889
     11          8           0       -4.377335   -0.491374    0.487292
     12          6           0       -2.443491   -0.690764    3.865772
     13          7           0       -1.592380   -1.718819    3.847704
     14          1           0       -0.575764   -1.533463    3.772152
     15          1           0       -1.911379   -2.654931    3.642087
     16          8           0       -2.111469    0.492858    4.021308
     17          7           0       -2.822676    1.000700    1.276823
     18          1           0       -2.460465    1.438517    2.120242
     19          6           0       -2.283878    1.443593   -0.010921
     20          1           0       -2.427949    0.631461   -0.725184
     21          6           0       -0.806188    1.700810    0.292759
     22          6           0       -3.011431    2.732037   -0.478232
     23          1           0       -2.588236    3.564052    0.091567
     24          1           0       -2.760264    2.891487   -1.530973
     25          8           0       -0.503642    2.672265    0.994402
     26          6           0       -4.501577    2.647805   -0.243071
     27          6           0       -5.352736    2.004936   -1.151406
     28          1           0       -4.946242    1.627002   -2.085287
     29          6           0       -5.047301    3.122045    0.957586
     30          1           0       -4.405619    3.644484    1.662771
     31          6           0       -6.704625    1.822414   -0.864656
     32          1           0       -7.346341    1.324825   -1.585387
     33          6           0       -6.404243    2.947126    1.254691
     34          1           0       -6.816478    3.367659    2.169170
     35          6           0       -7.238019    2.287686    0.342213
     36          1           0       -8.299160    2.177431    0.549560
     37          7           0        0.046167    0.726122   -0.067121
     38          1           0       -0.199535    0.104729   -0.834705
     39          6           0        1.481475    0.896482    0.078101
     40          1           0        1.674156    1.952606    0.281461
     41          6           0        2.096628    0.488296   -1.269731
     42          6           0        2.055371   -0.008145    1.198489
     43          1           0        3.059117    0.338340    1.472805
     44          1           0        2.148454   -1.033324    0.832758
     45          8           0        1.480836   -0.263956   -2.026418
     46          6           0        1.192759   -0.100588    2.458301
     47          7           0        0.727912    1.052138    2.987927
     48          1           0        0.006816    0.965355    3.700134
     49          1           0        0.664792    1.889320    2.414988
     50          8           0        0.983948   -1.206952    2.970906
     51          7           0        3.337664    0.949619   -1.512550
     52          1           0        3.805526    1.575908   -0.866588
     53          6           0        4.117279    0.542873   -2.672634
     54          1           0        4.192473   -0.551210   -2.692485
     55          6           0        5.511112    1.115172   -2.475683
     56          6           0        3.490742    1.007044   -4.003662
     57          1           0        4.056394    0.553818   -4.823353
     58          1           0        2.489880    0.569110   -4.024190
     59          8           0        5.823295    1.854039   -1.565423
     60          6           0        3.429608    2.534322   -4.165700
     61          1           0        3.459052    3.031603   -3.189604
     62          1           0        4.306030    2.886708   -4.722931
     63          6           0        2.151781    2.991307   -4.885907
     64          1           0        2.263753    4.024865   -5.227931
     65          1           0        1.986467    2.394912   -5.789453
     66          7           0        0.937203    2.883050   -4.077426
     67          1           0        0.589416    1.941145   -3.939705
     68          7           0        1.367239    4.878961   -2.935273
     69          1           0        1.031693    5.513827   -2.222565
     70          1           0        1.461527    5.335406   -3.834427
     71          7           0        0.019990    3.158640   -1.973435
     72          1           0       -0.109870    3.854220   -1.238435
     73          6           0        0.733899    3.639174   -2.938017
     74          8           0        6.351320    0.722244   -3.445584
     75          1           0        7.216818    1.135600   -3.262703
 ---------------------------------------------------------------------

 SCF Done:  E(RB3LYP) =  -1917.53791680     A.U. after    3 cycles

 Alpha  occ. eigenvalues --  -19.28306 -19.25529 -19.23137 -19.22916 -19.21640
 Alpha  occ. eigenvalues --  -19.20615 -19.19847 -14.59446 -14.48531 -14.45677
 Alpha  occ. eigenvalues --  -14.45071 -14.44876 -14.42324 -14.42286 -14.41577
 Alpha  occ. eigenvalues --  -14.35638 -10.42424 -10.41131 -10.40808 -10.39955
 Alpha  occ. eigenvalues --  -10.38722 -10.37774 -10.37267 -10.35594 -10.34380
 Alpha  occ. eigenvalues --  -10.34148 -10.32578 -10.32343 -10.30221 -10.30114
 Alpha  occ. eigenvalues --  -10.30015 -10.29704 -10.29478 -10.29477 -10.29221
 Alpha  occ. eigenvalues --  -10.28617 -10.28199 -10.26370 -10.25638  -1.19440
 Alpha  occ. eigenvalues --   -1.18338  -1.14706  -1.13913  -1.13269  -1.12528
 Alpha  occ. eigenvalues --   -1.11204  -1.10543  -1.05616  -1.04964  -1.02154
 Alpha  occ. eigenvalues --   -1.01537  -1.01320  -0.97773  -0.96278  -0.95989
 Alpha  occ. eigenvalues --   -0.93279  -0.91556  -0.89536  -0.88404  -0.86398
 Alpha  occ. eigenvalues --   -0.85051  -0.84596  -0.82090  -0.81421  -0.77728
 Alpha  occ. eigenvalues --   -0.75866  -0.75032  -0.73990  -0.72691  -0.71371
 Alpha  occ. eigenvalues --   -0.71020  -0.70488  -0.69943  -0.69115  -0.68858
 Alpha  occ. eigenvalues --   -0.67769  -0.67051  -0.66642  -0.65961  -0.64709
 Alpha  occ. eigenvalues --   -0.63918  -0.63481  -0.62393  -0.61683  -0.60587
 Alpha  occ. eigenvalues --   -0.60207  -0.59362  -0.59238  -0.58888  -0.58375
 Alpha  occ. eigenvalues --   -0.57724  -0.57338  -0.57040  -0.56268  -0.56217
 Alpha  occ. eigenvalues --   -0.55785  -0.55474  -0.55034  -0.54603  -0.54450
 Alpha  occ. eigenvalues --   -0.53557  -0.53243  -0.52947  -0.52528  -0.52326
 Alpha  occ. eigenvalues --   -0.52303  -0.51278  -0.51252  -0.50420  -0.50222
 Alpha  occ. eigenvalues --   -0.49721  -0.49418  -0.48851  -0.48682  -0.48615
 Alpha  occ. eigenvalues --   -0.48276  -0.47289  -0.47141  -0.46612  -0.46354
 Alpha  occ. eigenvalues --   -0.46222  -0.45475  -0.44684  -0.44339  -0.44160
 Alpha  occ. eigenvalues --   -0.43891  -0.43029  -0.41779  -0.41359  -0.40457
 Alpha  occ. eigenvalues --   -0.40152  -0.38907  -0.37891  -0.37484  -0.36615
 Alpha  occ. eigenvalues --   -0.36481  -0.36158  -0.35500  -0.35105  -0.34502
 Alpha  occ. eigenvalues --   -0.34453  -0.34253  -0.34015  -0.33095  -0.33021
 Alpha  occ. eigenvalues --   -0.29350
 Alpha virt. eigenvalues --   -0.12433  -0.11530  -0.10988  -0.10042  -0.08859
 Alpha virt. eigenvalues --   -0.07880  -0.07799  -0.06872  -0.04816  -0.03543
 Alpha virt. eigenvalues --   -0.02571  -0.02194  -0.02070  -0.00997  -0.00421

 Mulliken charges:
               1
     1  N   -0.758460
     2  H    0.411413
     3  H    0.422201
     4  H    0.405341
     5  C   -0.106182
     6  H    0.227319
     7  C    0.641391
     8  C   -0.379477
     9  H    0.205287
    10  H    0.181389
    11  O   -0.544192
    12  C    0.625987
    13  N   -0.751914
    14  H    0.414676
    15  H    0.348626
    16  O   -0.549115
    17  N   -0.599384
    18  H    0.384462
    19  C   -0.032731
    20  H    0.191093
    21  C    0.666059
    22  C   -0.369190
    23  H    0.182162
    24  H    0.198741
    25  O   -0.572146
    26  C    0.153666
    27  C   -0.145540
    28  H    0.156257
    29  C   -0.188523
    30  H    0.150910
    31  C   -0.124408
    32  H    0.161206
    33  C   -0.199187
    34  H    0.156080
    35  C   -0.171425
    36  H    0.157068
    37  N   -0.581222
    38  H    0.362262
    39  C   -0.086420
    40  H    0.187872
    41  C    0.656786
    42  C   -0.356017
    43  H    0.187521
    44  H    0.192240
    45  O   -0.546273
    46  C    0.593399
    47  N   -0.758661
    48  H    0.363459
    49  H    0.373539
    50  O   -0.542154
    51  N   -0.625647
    52  H    0.361424
    53  C   -0.034952
    54  H    0.199793
    55  C    0.592127
    56  C   -0.286437
    57  H    0.171698
    58  H    0.180491
    59  O   -0.467199
    60  C   -0.273537
    61  H    0.167808
    62  H    0.150711
    63  C   -0.165213
    64  H    0.147450
    65  H    0.166013
    66  N   -0.573518
    67  H    0.337635
    68  N   -0.743312
    69  H    0.332539
    70  H    0.337808
    71  N   -0.718804
    72  H    0.280272
    73  C    0.597269
    74  O   -0.559017
    75  H    0.428807
 Sum of Mulliken charges =   1.00000

 Dipole moment (field-independent basis, Debye):
    X=            -14.8167    Y=              4.4513    Z=              2.8314  Tot=             15.7278
 Quadrupole moment (field-independent basis, Debye-Ang):
   XX=            -62.8924   YY=           -194.0818   ZZ=           -176.0329
   XY=             10.8410   XZ=            -78.8680   YZ=            -26.4674

 Normal termination of Gaussian 16 at Mon Jun 27 16:35:51 2022.
