 Gaussian 16, Revision C.01,
 Gaussian 16:  ES64L-G16RevC.01  3-Jul-2019

 ----------------------------------------------------------------------
 # B3LYP/6-31G* empiricaldispersion=gd3bj guess=read geom=check nosymm
 integral(ultrafinegrid)
 ----------------------------------------------------------------------

 ------------------------------------------------------
 Candidate Structure: Conf:879 Charge calc in gas phase
 ------------------------------------------------------
 Structure from the checkpoint file:  "conf-879.chk"
 Charge =  1 Multiplicity = 1

                          Input orientation:
 ---------------------------------------------------------------------
 Center     Atomic      Atomic             Coordinates (Angstroms)
 Number     Number       Type             X           Y           Z
 ---------------------------------------------------------------------
      1          7           0       -5.626985    0.368587    2.329096
      2          1           0       -6.006375    1.099822    1.701552
      3          1           0       -5.668002   -0.526763    1.819450
      4          1           0       -6.130242    0.334437    3.255223
      5          6           0       -4.182374    0.623277    2.648456
      6          1           0       -4.085954    1.692289    2.849395
      7          6           0       -3.432813    0.184610    1.377514
      8          6           0       -3.760202   -0.214566    3.868605
      9          1           0       -3.821143   -1.278106    3.603123
     10          1           0       -2.709526    0.001510    4.085447
     11          8           0       -3.833102   -0.823261    0.799030
     12          6           0       -4.642773    0.027319    5.100024
     13          7           0       -4.045612   -0.087031    6.293734
     14          1           0       -4.610193    0.003284    7.130213
     15          1           0       -3.066673   -0.312422    6.398962
     16          8           0       -5.849783    0.291990    4.988537
     17          7           0       -2.391648    0.950068    0.983589
     18          1           0       -2.227907    1.815721    1.483985
     19          6           0       -1.918104    0.931674   -0.412158
     20          1           0       -2.242196   -0.030334   -0.815487
     21          6           0       -0.382956    1.015904   -0.391759
     22          6           0       -2.536964    2.092801   -1.233509
     23          1           0       -2.006303    3.010574   -0.964071
     24          1           0       -2.316844    1.900006   -2.288876
     25          8           0        0.204748    2.057053   -0.690969
     26          6           0       -4.026219    2.259348   -1.018872
     27          6           0       -4.947008    1.385284   -1.613876
     28          1           0       -4.591399    0.611518   -2.288306
     29          6           0       -4.510289    3.247215   -0.149808
     30          1           0       -3.813687    3.952996    0.296891
     31          6           0       -6.312151    1.492689   -1.350141
     32          1           0       -7.009642    0.815653   -1.833935
     33          6           0       -5.878036    3.364032    0.121103
     34          1           0       -6.236145    4.158378    0.770355
     35          6           0       -6.785843    2.482020   -0.479082
     36          1           0       -7.852296    2.588354   -0.299576
     37          7           0        0.235475   -0.104706    0.034592
     38          1           0       -0.313444   -0.937222    0.206297
     39          6           0        1.670623   -0.165463    0.345904
     40          1           0        1.941338    0.815693    0.750445
     41          6           0        2.492619   -0.416765   -0.943943
     42          6           0        1.913537   -1.255012    1.394014
     43          1           0        1.898253   -2.233941    0.904927
     44          1           0        1.125679   -1.203986    2.149092
     45          8           0        3.081313   -1.479446   -1.139410
     46          6           0        3.230639   -1.028866    2.147848
     47          7           0        4.335921   -1.471305    1.499442
     48          1           0        5.239351   -1.264928    1.902692
     49          1           0        4.273713   -1.772137    0.532744
     50          8           0        3.239693   -0.479362    3.239697
     51          7           0        2.472944    0.616723   -1.809790
     52          1           0        1.926236    1.436948   -1.560764
     53          6           0        3.133056    0.575412   -3.107485
     54          1           0        3.493713   -0.452067   -3.224185
     55          6           0        4.379311    1.470351   -3.107365
     56          6           0        2.188382    0.938425   -4.253730
     57          1           0        2.767501    0.873165   -5.179218
     58          1           0        1.405171    0.173386   -4.310054
     59          8           0        4.672319    2.281693   -3.982520
     60          6           0        1.560943    2.338127   -4.120761
     61          1           0        0.682280    2.315933   -3.462419
     62          1           0        2.279204    3.021395   -3.651995
     63          6           0        1.165002    2.941223   -5.475916
     64          1           0        0.390741    2.335035   -5.956072
     65          1           0        0.741606    3.941175   -5.311368
     66          7           0        2.313244    3.020855   -6.386239
     67          1           0        3.206276    3.042514   -5.899978
     68          7           0        1.240743    2.104374   -8.240874
     69          1           0        1.344963    1.602604   -9.114260
     70          1           0        0.802901    3.009649   -8.375988
     71          7           0        3.487422    1.474161   -7.648747
     72          1           0        3.481076    1.001099   -8.554862
     73          6           0        2.410009    2.150148   -7.470910
     74          8           0        5.150154    1.246405   -2.018213
     75          1           0        5.930293    1.825747   -2.110073
 ---------------------------------------------------------------------

 SCF Done:  E(RB3LYP) =  -1917.49954245     A.U. after    3 cycles

 Alpha  occ. eigenvalues --  -19.28077 -19.27765 -19.26407 -19.23930 -19.20829
 Alpha  occ. eigenvalues --  -19.20161 -19.17196 -14.59567 -14.52024 -14.51034
 Alpha  occ. eigenvalues --  -14.48154 -14.43923 -14.41061 -14.39188 -14.37774
 Alpha  occ. eigenvalues --  -14.32461 -10.45422 -10.45327 -10.42587 -10.40940
 Alpha  occ. eigenvalues --  -10.38892 -10.37299 -10.37250 -10.36848 -10.35257
 Alpha  occ. eigenvalues --  -10.33490 -10.31851 -10.31786 -10.31266 -10.31058
 Alpha  occ. eigenvalues --  -10.31040 -10.31039 -10.30849 -10.30677 -10.30641
 Alpha  occ. eigenvalues --  -10.27750 -10.26834 -10.24635 -10.24598  -1.20575
 Alpha  occ. eigenvalues --   -1.19278  -1.16875  -1.15749  -1.14287  -1.11938
 Alpha  occ. eigenvalues --   -1.09125  -1.08354  -1.07594  -1.06068  -1.04255
 Alpha  occ. eigenvalues --   -1.01416  -1.00762  -0.97596  -0.96225  -0.95568
 Alpha  occ. eigenvalues --   -0.92794  -0.91489  -0.88506  -0.88273  -0.86476
 Alpha  occ. eigenvalues --   -0.86266  -0.85448  -0.83775  -0.80423  -0.78595
 Alpha  occ. eigenvalues --   -0.76232  -0.75391  -0.74760  -0.74259  -0.73314
 Alpha  occ. eigenvalues --   -0.72338  -0.72194  -0.71325  -0.70248  -0.69029
 Alpha  occ. eigenvalues --   -0.67938  -0.67780  -0.66871  -0.65357  -0.64543
 Alpha  occ. eigenvalues --   -0.64255  -0.63949  -0.63750  -0.62675  -0.61659
 Alpha  occ. eigenvalues --   -0.61350  -0.60667  -0.59711  -0.59432  -0.58774
 Alpha  occ. eigenvalues --   -0.58515  -0.57904  -0.57081  -0.56902  -0.56667
 Alpha  occ. eigenvalues --   -0.55961  -0.55621  -0.55281  -0.55178  -0.54851
 Alpha  occ. eigenvalues --   -0.54336  -0.53683  -0.53245  -0.53114  -0.52523
 Alpha  occ. eigenvalues --   -0.52011  -0.51552  -0.51328  -0.50881  -0.50566
 Alpha  occ. eigenvalues --   -0.50071  -0.49349  -0.48839  -0.48406  -0.47904
 Alpha  occ. eigenvalues --   -0.47836  -0.47371  -0.46667  -0.46519  -0.45780
 Alpha  occ. eigenvalues --   -0.45564  -0.45523  -0.45179  -0.44189  -0.43545
 Alpha  occ. eigenvalues --   -0.42689  -0.42573  -0.42181  -0.42048  -0.41376
 Alpha  occ. eigenvalues --   -0.40748  -0.40624  -0.39045  -0.38570  -0.37969
 Alpha  occ. eigenvalues --   -0.37607  -0.37058  -0.36399  -0.35826  -0.33497
 Alpha  occ. eigenvalues --   -0.32720  -0.32205  -0.31021  -0.30498  -0.29729
 Alpha  occ. eigenvalues --   -0.26535
 Alpha virt. eigenvalues --   -0.15310  -0.13105  -0.12423  -0.12329  -0.10805
 Alpha virt. eigenvalues --   -0.09257  -0.07352  -0.06814  -0.05792  -0.05561
 Alpha virt. eigenvalues --   -0.03931  -0.03614  -0.02591  -0.02085  -0.01667

 Mulliken charges:
               1
     1  N   -0.754519
     2  H    0.412068
     3  H    0.415317
     4  H    0.440942
     5  C   -0.120998
     6  H    0.208723
     7  C    0.645516
     8  C   -0.397476
     9  H    0.231360
    10  H    0.205837
    11  O   -0.514119
    12  C    0.643531
    13  N   -0.724914
    14  H    0.384745
    15  H    0.372845
    16  O   -0.531085
    17  N   -0.589922
    18  H    0.351414
    19  C   -0.095707
    20  H    0.208192
    21  C    0.641819
    22  C   -0.373544
    23  H    0.194102
    24  H    0.192333
    25  O   -0.525341
    26  C    0.163584
    27  C   -0.167329
    28  H    0.155395
    29  C   -0.213636
    30  H    0.146048
    31  C   -0.138428
    32  H    0.165988
    33  C   -0.160775
    34  H    0.162546
    35  C   -0.171195
    36  H    0.165156
    37  N   -0.598607
    38  H    0.347142
    39  C   -0.070812
    40  H    0.203493
    41  C    0.643377
    42  C   -0.380546
    43  H    0.186989
    44  H    0.151422
    45  O   -0.531986
    46  C    0.565519
    47  N   -0.743457
    48  H    0.345455
    49  H    0.380075
    50  O   -0.505955
    51  N   -0.617670
    52  H    0.386787
    53  C   -0.070393
    54  H    0.217593
    55  C    0.598522
    56  C   -0.275756
    57  H    0.213793
    58  H    0.135299
    59  O   -0.459202
    60  C   -0.312300
    61  H    0.129000
    62  H    0.155387
    63  C   -0.137681
    64  H    0.159925
    65  H    0.139089
    66  N   -0.582709
    67  H    0.352401
    68  N   -0.738069
    69  H    0.323286
    70  H    0.328909
    71  N   -0.633660
    72  H    0.264619
    73  C    0.537764
    74  O   -0.557723
    75  H    0.422208
 Sum of Mulliken charges =   1.00000

 Dipole moment (field-independent basis, Debye):
    X=            -21.3277    Y=              3.4662    Z=              9.6011  Tot=             23.6445
 Quadrupole moment (field-independent basis, Debye-Ang):
   XX=           -124.1206   YY=           -217.5979   ZZ=           -143.4421
   XY=            -19.1454   XZ=            -38.9555   YZ=             -1.7310

 Normal termination of Gaussian 16 at Mon Jun 27 16:35:58 2022.
