 Gaussian 16, Revision C.01,
 Gaussian 16:  ES64L-G16RevC.01  3-Jul-2019

 ----------------------------------------------------------------------
 # B3LYP/6-31G* empiricaldispersion=gd3bj guess=read geom=check nosymm
 integral(ultrafinegrid)
 ----------------------------------------------------------------------

 ------------------------------------------------------
 Candidate Structure: Conf:156 Charge calc in gas phase
 ------------------------------------------------------
 Structure from the checkpoint file:  "conf-156.chk"
 Charge =  1 Multiplicity = 1

                          Input orientation:
 ---------------------------------------------------------------------
 Center     Atomic      Atomic             Coordinates (Angstroms)
 Number     Number       Type             X           Y           Z
 ---------------------------------------------------------------------
      1          7           0       -4.692990    0.623067    3.293455
      2          1           0       -5.035348    0.321744    2.358113
      3          1           0       -4.291762   -0.244565    3.785307
      4          1           0       -5.428426    1.068555    3.844167
      5          6           0       -3.506119    1.507748    3.024812
      6          1           0       -3.820038    2.553186    3.083750
      7          6           0       -3.090407    1.147946    1.572879
      8          6           0       -2.391959    1.200381    4.047683
      9          1           0       -1.524545    1.836480    3.859959
     10          1           0       -2.746666    1.434159    5.057365
     11          8           0       -3.812067    0.400436    0.916147
     12          6           0       -2.051932   -0.290734    3.990382
     13          7           0       -0.796404   -0.629138    3.717517
     14          1           0       -0.543550   -1.601528    3.539632
     15          1           0       -0.119657    0.061118    3.405775
     16          8           0       -2.976085   -1.110574    4.172421
     17          7           0       -1.925231    1.670100    1.160478
     18          1           0       -1.339274    2.164679    1.824597
     19          6           0       -1.146572    1.088309    0.071884
     20          1           0       -1.745273    0.282863   -0.359649
     21          6           0        0.126779    0.551141    0.736203
     22          6           0       -0.795257    2.131571   -1.011571
     23          1           0       -0.206294    2.939317   -0.563828
     24          1           0       -0.147805    1.656173   -1.756751
     25          8           0        0.581229    1.115672    1.744752
     26          6           0       -2.033930    2.681156   -1.673856
     27          6           0       -2.552035    2.079537   -2.826931
     28          1           0       -2.040225    1.223309   -3.260256
     29          6           0       -2.697169    3.792475   -1.137233
     30          1           0       -2.293354    4.278349   -0.252916
     31          6           0       -3.705613    2.577696   -3.433892
     32          1           0       -4.090713    2.104430   -4.332170
     33          6           0       -3.850868    4.292999   -1.741234
     34          1           0       -4.345480    5.164468   -1.322334
     35          6           0       -4.358220    3.685789   -2.891060
     36          1           0       -5.251276    4.079174   -3.366874
     37          7           0        0.698956   -0.523155    0.171803
     38          1           0        0.332756   -0.872782   -0.705548
     39          6           0        1.994491   -1.042108    0.628202
     40          1           0        2.070542   -0.767845    1.680501
     41          6           0        3.083932   -0.341500   -0.202635
     42          6           0        2.049754   -2.555615    0.497218
     43          1           0        3.064365   -2.887689    0.748031
     44          1           0        1.886928   -2.862813   -0.541386
     45          8           0        3.577538   -0.867601   -1.192987
     46          6           0        1.068013   -3.228281    1.452314
     47          7           0        0.690102   -4.483138    1.113518
     48          1           0        0.134203   -5.013292    1.771739
     49          1           0        1.111042   -4.978598    0.340710
     50          8           0        0.656663   -2.664767    2.465744
     51          7           0        3.365892    0.912219    0.229430
     52          1           0        2.839131    1.303707    1.002434
     53          6           0        4.172974    1.820312   -0.575409
     54          1           0        4.960834    1.233099   -1.051393
     55          6           0        4.842766    2.865055    0.298775
     56          6           0        3.316743    2.506463   -1.667155
     57          1           0        2.783263    1.705916   -2.193514
     58          1           0        2.563534    3.137574   -1.180418
     59          8           0        5.869618    3.436437    0.022264
     60          6           0        4.130328    3.324087   -2.672749
     61          1           0        4.719305    4.088353   -2.152072
     62          1           0        4.855845    2.674577   -3.179637
     63          6           0        3.247813    4.000608   -3.729706
     64          1           0        3.885580    4.514787   -4.458236
     65          1           0        2.673313    3.247225   -4.275146
     66          7           0        2.307156    4.962028   -3.156361
     67          1           0        2.699503    5.571472   -2.447249
     68          7           0        0.348277    3.875200   -3.815035
     69          1           0       -0.656304    3.822806   -3.694059
     70          1           0        0.600117    4.080779   -4.776369
     71          7           0        0.464651    5.147421   -1.778873
     72          1           0       -0.550311    5.044310   -1.806640
     73          6           0        0.985720    4.682180   -2.864498
     74          8           0        4.110868    3.147755    1.406602
     75          1           0        4.587020    3.854884    1.882048
 ---------------------------------------------------------------------

 SCF Done:  E(RB3LYP) =  -1917.53125048     A.U. after    1 cycles

 Alpha  occ. eigenvalues --  -19.27962 -19.26772 -19.25030 -19.24902 -19.22465
 Alpha  occ. eigenvalues --  -19.21835 -19.20577 -14.57056 -14.49851 -14.49336
 Alpha  occ. eigenvalues --  -14.46997 -14.46325 -14.44772 -14.41368 -14.40571
 Alpha  occ. eigenvalues --  -14.34540 -10.43787 -10.42392 -10.41714 -10.40929
 Alpha  occ. eigenvalues --  -10.40119 -10.40043 -10.37829 -10.35916 -10.35081
 Alpha  occ. eigenvalues --  -10.34466 -10.34120 -10.31806 -10.30429 -10.29680
 Alpha  occ. eigenvalues --  -10.29056 -10.28517 -10.28026 -10.28022 -10.27884
 Alpha  occ. eigenvalues --  -10.27846 -10.27636 -10.26634 -10.25399  -1.19245
 Alpha  occ. eigenvalues --   -1.18665  -1.16736  -1.16577  -1.14133  -1.12572
 Alpha  occ. eigenvalues --   -1.11808  -1.09636  -1.06970  -1.05404  -1.03863
 Alpha  occ. eigenvalues --   -1.02864  -1.01539  -1.01137  -0.95256  -0.94948
 Alpha  occ. eigenvalues --   -0.93658  -0.90765  -0.90531  -0.88742  -0.87195
 Alpha  occ. eigenvalues --   -0.84479  -0.83411  -0.82206  -0.81828  -0.78612
 Alpha  occ. eigenvalues --   -0.76177  -0.75003  -0.73591  -0.73336  -0.72841
 Alpha  occ. eigenvalues --   -0.71479  -0.69996  -0.69783  -0.69438  -0.68915
 Alpha  occ. eigenvalues --   -0.68255  -0.67549  -0.66893  -0.66278  -0.65950
 Alpha  occ. eigenvalues --   -0.65129  -0.64296  -0.63354  -0.62735  -0.61107
 Alpha  occ. eigenvalues --   -0.60771  -0.60156  -0.59717  -0.59331  -0.59089
 Alpha  occ. eigenvalues --   -0.58841  -0.57998  -0.57111  -0.56701  -0.56013
 Alpha  occ. eigenvalues --   -0.55520  -0.55338  -0.55081  -0.54982  -0.54681
 Alpha  occ. eigenvalues --   -0.54419  -0.53782  -0.53534  -0.53230  -0.52764
 Alpha  occ. eigenvalues --   -0.52527  -0.51681  -0.51337  -0.50903  -0.50710
 Alpha  occ. eigenvalues --   -0.50382  -0.50092  -0.49788  -0.49541  -0.49181
 Alpha  occ. eigenvalues --   -0.48546  -0.47769  -0.47504  -0.47418  -0.46987
 Alpha  occ. eigenvalues --   -0.46365  -0.45509  -0.45103  -0.44707  -0.43435
 Alpha  occ. eigenvalues --   -0.43186  -0.42973  -0.41772  -0.41175  -0.41119
 Alpha  occ. eigenvalues --   -0.40546  -0.39659  -0.39518  -0.39205  -0.38968
 Alpha  occ. eigenvalues --   -0.38398  -0.37557  -0.36514  -0.36023  -0.34300
 Alpha  occ. eigenvalues --   -0.34142  -0.33633  -0.33337  -0.32552  -0.31917
 Alpha  occ. eigenvalues --   -0.28601
 Alpha virt. eigenvalues --   -0.13105  -0.11632  -0.10771  -0.09284  -0.09101
 Alpha virt. eigenvalues --   -0.08172  -0.07894  -0.07392  -0.06454  -0.04615
 Alpha virt. eigenvalues --   -0.03879  -0.02810  -0.01963  -0.01753  -0.00673

 Mulliken charges:
               1
     1  N   -0.763649
     2  H    0.423605
     3  H    0.445285
     4  H    0.401606
     5  C   -0.130256
     6  H    0.227488
     7  C    0.643688
     8  C   -0.394845
     9  H    0.198805
    10  H    0.216520
    11  O   -0.508044
    12  C    0.619573
    13  N   -0.750107
    14  H    0.406063
    15  H    0.386846
    16  O   -0.549845
    17  N   -0.579297
    18  H    0.359356
    19  C   -0.091925
    20  H    0.199596
    21  C    0.657869
    22  C   -0.380250
    23  H    0.201031
    24  H    0.174302
    25  O   -0.580213
    26  C    0.160242
    27  C   -0.192536
    28  H    0.133152
    29  C   -0.192273
    30  H    0.135065
    31  C   -0.128158
    32  H    0.153132
    33  C   -0.132077
    34  H    0.148414
    35  C   -0.127866
    36  H    0.153935
    37  N   -0.586572
    38  H    0.350998
    39  C   -0.075649
    40  H    0.204447
    41  C    0.637673
    42  C   -0.399157
    43  H    0.217935
    44  H    0.181579
    45  O   -0.520431
    46  C    0.626914
    47  N   -0.739641
    48  H    0.360544
    49  H    0.358548
    50  O   -0.537888
    51  N   -0.627662
    52  H    0.369063
    53  C   -0.041042
    54  H    0.209579
    55  C    0.591101
    56  C   -0.288690
    57  H    0.158344
    58  H    0.170880
    59  O   -0.444397
    60  C   -0.284289
    61  H    0.167020
    62  H    0.155324
    63  C   -0.150859
    64  H    0.162351
    65  H    0.158063
    66  N   -0.568814
    67  H    0.330954
    68  N   -0.762318
    69  H    0.337923
    70  H    0.333450
    71  N   -0.677783
    72  H    0.273859
    73  C    0.559958
    74  O   -0.579944
    75  H    0.424396
 Sum of Mulliken charges =   1.00000

 Dipole moment (field-independent basis, Debye):
    X=            -11.0851    Y=              2.3165    Z=              6.5634  Tot=             13.0891
 Quadrupole moment (field-independent basis, Debye-Ang):
   XX=           -167.8887   YY=           -185.2011   ZZ=           -166.8415
   XY=            -28.5973   XZ=            -29.2884   YZ=              8.0184

 Normal termination of Gaussian 16 at Mon Jun 27 16:17:36 2022.
