 Gaussian 16, Revision C.01,
 Gaussian 16:  ES64L-G16RevC.01  3-Jul-2019

 ----------------------------------------------------------------------
 # B3LYP/6-31G* empiricaldispersion=gd3bj guess=read geom=check nosymm
 integral(ultrafinegrid)
 ----------------------------------------------------------------------

 ------------------------------------------------------
 Candidate Structure: Conf:234 Charge calc in gas phase
 ------------------------------------------------------
 Structure from the checkpoint file:  "conf-234.chk"
 Charge =  1 Multiplicity = 1

                          Input orientation:
 ---------------------------------------------------------------------
 Center     Atomic      Atomic             Coordinates (Angstroms)
 Number     Number       Type             X           Y           Z
 ---------------------------------------------------------------------
      1          7           0       -5.756652    1.767906    1.555667
      2          1           0       -5.829336    1.959468    0.537560
      3          1           0       -5.814775    0.722847    1.647595
      4          1           0       -6.498930    2.254431    2.063139
      5          6           0       -4.361586    2.077206    2.030675
      6          1           0       -3.993062    2.944178    1.486379
      7          6           0       -3.602581    0.792386    1.612862
      8          6           0       -4.312660    2.344496    3.533955
      9          1           0       -5.073600    3.082497    3.822269
     10          1           0       -4.503313    1.428101    4.104162
     11          8           0       -4.275187   -0.244380    1.504668
     12          6           0       -2.925657    2.927743    3.861156
     13          7           0       -2.608311    2.988915    5.169932
     14          1           0       -1.701592    3.358231    5.426743
     15          1           0       -3.204541    2.628338    5.900356
     16          8           0       -2.188807    3.324886    2.960834
     17          7           0       -2.304485    0.912307    1.349064
     18          1           0       -1.805708    1.772636    1.579168
     19          6           0       -1.576816   -0.088012    0.579410
     20          1           0       -2.014645   -1.064253    0.795293
     21          6           0       -0.110239    0.010054    1.001558
     22          6           0       -1.650314    0.217818   -0.961739
     23          1           0       -0.958713    1.043287   -1.158152
     24          1           0       -1.261752   -0.655015   -1.495187
     25          8           0        0.339229    1.081227    1.384663
     26          6           0       -3.029253    0.594559   -1.453311
     27          6           0       -3.983850   -0.380198   -1.773775
     28          1           0       -3.709003   -1.430072   -1.727727
     29          6           0       -3.407341    1.942298   -1.516381
     30          1           0       -2.672600    2.711360   -1.292539
     31          6           0       -5.282727   -0.024206   -2.131944
     32          1           0       -6.003963   -0.796076   -2.382531
     33          6           0       -4.708226    2.311722   -1.879804
     34          1           0       -4.966991    3.364454   -1.967213
     35          6           0       -5.654631    1.324295   -2.184089
     36          1           0       -6.656634    1.603349   -2.499639
     37          7           0        0.604937   -1.137685    0.861275
     38          1           0        0.181565   -1.844292    0.269369
     39          6           0        2.051267   -1.065966    0.731772
     40          1           0        2.374845   -0.197059    1.308506
     41          6           0        2.383257   -0.889576   -0.763087
     42          6           0        2.710760   -2.317121    1.317327
     43          1           0        3.781546   -2.314041    1.078534
     44          1           0        2.290982   -3.221808    0.860021
     45          8           0        1.537033   -1.110178   -1.631740
     46          6           0        2.562915   -2.341165    2.841361
     47          7           0        2.574722   -3.585653    3.400073
     48          1           0        2.630078   -3.645646    4.408025
     49          1           0        2.822343   -4.406340    2.867032
     50          8           0        2.445729   -1.318358    3.496125
     51          7           0        3.647281   -0.504114   -1.028169
     52          1           0        4.318654   -0.343934   -0.285284
     53          6           0        4.158349   -0.356153   -2.381656
     54          1           0        3.836921   -1.217148   -2.977561
     55          6           0        5.672932   -0.374338   -2.274929
     56          6           0        3.662163    0.927326   -3.082443
     57          1           0        4.058894    0.930421   -4.101614
     58          1           0        2.572709    0.853024   -3.155842
     59          8           0        6.275893   -0.328735   -1.241507
     60          6           0        4.058878    2.210938   -2.347749
     61          1           0        3.716876    2.166027   -1.305077
     62          1           0        5.154224    2.300893   -2.310574
     63          6           0        3.482937    3.480351   -2.992029
     64          1           0        2.391359    3.419793   -3.013701
     65          1           0        3.746176    4.349543   -2.378440
     66          7           0        3.953570    3.729952   -4.356291
     67          1           0        4.964775    3.691298   -4.441621
     68          7           0        1.992485    3.091933   -5.451774
     69          1           0        1.588429    2.773043   -6.324040
     70          1           0        1.598960    3.982511   -5.165001
     71          7           0        4.167055    2.518693   -6.313767
     72          1           0        3.644897    2.211124   -7.136573
     73          6           0        3.394410    3.073057   -5.451323
     74          8           0        6.257370   -0.415375   -3.477853
     75          1           0        7.222564   -0.386951   -3.333115
 ---------------------------------------------------------------------

 SCF Done:  E(RB3LYP) =  -1917.49837501     A.U. after    1 cycles

 Alpha  occ. eigenvalues --  -19.26677 -19.25617 -19.24200 -19.21491 -19.20793
 Alpha  occ. eigenvalues --  -19.19259 -19.18265 -14.59886 -14.48138 -14.47997
 Alpha  occ. eigenvalues --  -14.44538 -14.43457 -14.42813 -14.39978 -14.38827
 Alpha  occ. eigenvalues --  -14.33213 -10.42517 -10.42441 -10.40149 -10.39155
 Alpha  occ. eigenvalues --  -10.37812 -10.36291 -10.36200 -10.35297 -10.33902
 Alpha  occ. eigenvalues --  -10.32655 -10.31138 -10.30644 -10.29895 -10.29792
 Alpha  occ. eigenvalues --  -10.29580 -10.29334 -10.29147 -10.29141 -10.28923
 Alpha  occ. eigenvalues --  -10.28178 -10.27284 -10.24402 -10.24343  -1.18458
 Alpha  occ. eigenvalues --   -1.18447  -1.16061  -1.13626  -1.12975  -1.11044
 Alpha  occ. eigenvalues --   -1.10272  -1.09644  -1.04940  -1.03089  -1.02242
 Alpha  occ. eigenvalues --   -1.01497  -1.00181  -0.97521  -0.95859  -0.93761
 Alpha  occ. eigenvalues --   -0.93545  -0.89378  -0.89095  -0.87300  -0.85412
 Alpha  occ. eigenvalues --   -0.84650  -0.84367  -0.82005  -0.80422  -0.76819
 Alpha  occ. eigenvalues --   -0.75324  -0.74570  -0.73267  -0.73121  -0.71157
 Alpha  occ. eigenvalues --   -0.70752  -0.70310  -0.69301  -0.68566  -0.67730
 Alpha  occ. eigenvalues --   -0.67063  -0.66312  -0.65924  -0.65146  -0.64582
 Alpha  occ. eigenvalues --   -0.63875  -0.63707  -0.62096  -0.61301  -0.60523
 Alpha  occ. eigenvalues --   -0.59362  -0.59220  -0.58239  -0.57580  -0.57216
 Alpha  occ. eigenvalues --   -0.56552  -0.56453  -0.56212  -0.55654  -0.55386
 Alpha  occ. eigenvalues --   -0.54876  -0.54842  -0.54611  -0.54117  -0.53297
 Alpha  occ. eigenvalues --   -0.52850  -0.52391  -0.52083  -0.51960  -0.51654
 Alpha  occ. eigenvalues --   -0.51567  -0.50729  -0.50703  -0.49819  -0.49682
 Alpha  occ. eigenvalues --   -0.49499  -0.48835  -0.48510  -0.48000  -0.47111
 Alpha  occ. eigenvalues --   -0.46691  -0.46477  -0.46266  -0.46141  -0.45318
 Alpha  occ. eigenvalues --   -0.44259  -0.44009  -0.43902  -0.43871  -0.43750
 Alpha  occ. eigenvalues --   -0.42841  -0.41871  -0.40445  -0.40349  -0.39215
 Alpha  occ. eigenvalues --   -0.39191  -0.39115  -0.38432  -0.38071  -0.35636
 Alpha  occ. eigenvalues --   -0.35294  -0.35194  -0.34755  -0.34158  -0.33794
 Alpha  occ. eigenvalues --   -0.33070  -0.32882  -0.32074  -0.31200  -0.30465
 Alpha  occ. eigenvalues --   -0.27310
 Alpha virt. eigenvalues --   -0.12429  -0.11206  -0.10814  -0.10735  -0.09299
 Alpha virt. eigenvalues --   -0.06709  -0.06072  -0.05257  -0.05041  -0.03689
 Alpha virt. eigenvalues --   -0.03522  -0.02099  -0.01197  -0.00807  -0.00194

 Mulliken charges:
               1
     1  N   -0.756044
     2  H    0.414302
     3  H    0.425289
     4  H    0.404834
     5  C   -0.101931
     6  H    0.235544
     7  C    0.641591
     8  C   -0.403268
     9  H    0.197318
    10  H    0.204321
    11  O   -0.545198
    12  C    0.638006
    13  N   -0.738823
    14  H    0.379401
    15  H    0.360229
    16  O   -0.500692
    17  N   -0.602983
    18  H    0.403146
    19  C   -0.073192
    20  H    0.191212
    21  C    0.635371
    22  C   -0.372110
    23  H    0.183234
    24  H    0.196119
    25  O   -0.511174
    26  C    0.168733
    27  C   -0.153040
    28  H    0.150008
    29  C   -0.198701
    30  H    0.149587
    31  C   -0.131289
    32  H    0.158548
    33  C   -0.181509
    34  H    0.151985
    35  C   -0.165077
    36  H    0.154507
    37  N   -0.573025
    38  H    0.336885
    39  C   -0.097373
    40  H    0.225784
    41  C    0.628455
    42  C   -0.390459
    43  H    0.191604
    44  H    0.158433
    45  O   -0.547180
    46  C    0.618877
    47  N   -0.749289
    48  H    0.350691
    49  H    0.342313
    50  O   -0.492320
    51  N   -0.615045
    52  H    0.358475
    53  C   -0.036431
    54  H    0.196129
    55  C    0.583093
    56  C   -0.285885
    57  H    0.200062
    58  H    0.173344
    59  O   -0.464546
    60  C   -0.279308
    61  H    0.141013
    62  H    0.141913
    63  C   -0.152111
    64  H    0.151826
    65  H    0.153381
    66  N   -0.564362
    67  H    0.327465
    68  N   -0.741123
    69  H    0.323300
    70  H    0.327170
    71  N   -0.633476
    72  H    0.266557
    73  C    0.546059
    74  O   -0.553320
    75  H    0.424168
 Sum of Mulliken charges =   1.00000

 Dipole moment (field-independent basis, Debye):
    X=            -17.9093    Y=              4.4802    Z=              7.7365  Tot=             20.0167
 Quadrupole moment (field-independent basis, Debye-Ang):
   XX=            -83.8401   YY=           -177.4102   ZZ=           -167.7262
   XY=            -63.9189   XZ=            -37.3814   YZ=              8.8612

 Normal termination of Gaussian 16 at Mon Jun 27 16:17:32 2022.
