 Gaussian 16, Revision C.01,
 Gaussian 16:  ES64L-G16RevC.01  3-Jul-2019

 ----------------------------------------------------------------------
 # B3LYP/6-31G* empiricaldispersion=gd3bj guess=read geom=check nosymm
 integral(ultrafinegrid)
 ----------------------------------------------------------------------

 ------------------------------------------------------
 Candidate Structure: Conf:553 Charge calc in gas phase
 ------------------------------------------------------
 Structure from the checkpoint file:  "conf-553.chk"
 Charge =  1 Multiplicity = 1

                          Input orientation:
 ---------------------------------------------------------------------
 Center     Atomic      Atomic             Coordinates (Angstroms)
 Number     Number       Type             X           Y           Z
 ---------------------------------------------------------------------
      1          7           0       -6.260916    0.085495    2.522252
      2          1           0       -6.551249    0.956353    2.037321
      3          1           0       -6.177983   -0.636790    1.764979
      4          1           0       -6.943657   -0.172827    3.238877
      5          6           0       -4.843563    0.216024    3.024429
      6          1           0       -4.708483    1.240721    3.370871
      7          6           0       -4.039707   -0.034922    1.724756
      8          6           0       -4.539379   -0.805009    4.128511
      9          1           0       -5.082552   -0.545071    5.045642
     10          1           0       -4.828754   -1.809530    3.810413
     11          8           0       -4.576157   -0.733641    0.857789
     12          6           0       -3.017974   -0.843521    4.359184
     13          7           0       -2.492486    0.315382    4.882608
     14          1           0       -1.496150    0.296544    5.073021
     15          1           0       -3.044145    0.890183    5.507105
     16          8           0       -2.342520   -1.771241    3.965974
     17          7           0       -2.873387    0.591260    1.621920
     18          1           0       -2.410402    1.027690    2.418949
     19          6           0       -2.175077    0.744446    0.359526
     20          1           0       -2.343027   -0.148098   -0.246523
     21          6           0       -0.693710    0.929526    0.719947
     22          6           0       -2.693966    2.018913   -0.391350
     23          1           0       -2.205364    2.892784    0.052832
     24          1           0       -2.367465    1.958831   -1.434321
     25          8           0       -0.384497    1.299494    1.856587
     26          6           0       -4.193688    2.178639   -0.294587
     27          6           0       -4.750875    2.920707    0.754919
     28          1           0       -4.093469    3.457064    1.434690
     29          6           0       -5.058267    1.524922   -1.181947
     30          1           0       -4.643289    0.942060   -1.999226
     31          6           0       -6.138162    2.998548    0.927200
     32          1           0       -6.551673    3.621695    1.716773
     33          6           0       -6.440526    1.593513   -1.018046
     34          1           0       -7.092442    1.084225   -1.721041
     35          6           0       -6.989111    2.326794    0.040053
     36          1           0       -8.067448    2.411092    0.145248
     37          7           0        0.168381    0.720892   -0.280658
     38          1           0       -0.122549    0.441394   -1.217944
     39          6           0        1.589597    1.006829   -0.198411
     40          1           0        1.744524    1.981075    0.274038
     41          6           0        2.067221    1.028172   -1.666185
     42          6           0        2.329355   -0.070116    0.625938
     43          1           0        2.492699   -0.964214    0.012173
     44          1           0        1.689066   -0.355284    1.466694
     45          8           0        1.330890    0.599414   -2.559230
     46          6           0        3.671276    0.410332    1.169963
     47          7           0        4.216319   -0.377268    2.127643
     48          1           0        5.124681   -0.129926    2.495867
     49          1           0        3.774366   -1.223259    2.454109
     50          8           0        4.227046    1.438859    0.783420
     51          7           0        3.307065    1.497024   -1.867806
     52          1           0        3.867245    1.696326   -1.037055
     53          6           0        3.963457    1.323483   -3.153173
     54          1           0        3.342996    1.763314   -3.938284
     55          6           0        4.119665   -0.150314   -3.521467
     56          6           0        5.336968    2.019709   -3.121813
     57          1           0        5.173738    3.033685   -2.735845
     58          1           0        5.978739    1.502216   -2.394672
     59          8           0        4.202401   -0.568637   -4.651052
     60          6           0        6.019809    2.104892   -4.487632
     61          1           0        6.158798    1.102819   -4.909841
     62          1           0        5.385061    2.666850   -5.179589
     63          6           0        7.371610    2.823144   -4.392337
     64          1           0        7.232365    3.810542   -3.944919
     65          1           0        8.062464    2.258446   -3.753924
     66          7           0        8.024919    3.030533   -5.677298
     67          1           0        8.303533    2.178943   -6.151498
     68          7           0        8.140868    3.957621   -7.790296
     69          1           0        7.918642    4.747839   -8.382984
     70          1           0        9.141793    3.796099   -7.747948
     71          7           0        6.566638    4.777688   -6.160790
     72          1           0        6.397082    5.504649   -6.857168
     73          6           0        7.514412    3.996330   -6.537102
     74          8           0        4.230702   -0.956146   -2.430485
     75          1           0        4.366724   -1.854095   -2.787659
 ---------------------------------------------------------------------

 SCF Done:  E(RB3LYP) =  -1917.49987124     A.U. after    1 cycles

 Alpha  occ. eigenvalues --  -19.26148 -19.25630 -19.24130 -19.21675 -19.20205
 Alpha  occ. eigenvalues --  -19.19508 -19.19394 -14.59896 -14.48881 -14.48206
 Alpha  occ. eigenvalues --  -14.45239 -14.44153 -14.42171 -14.38284 -14.37999
 Alpha  occ. eigenvalues --  -14.31859 -10.43138 -10.42027 -10.41232 -10.38820
 Alpha  occ. eigenvalues --  -10.37889 -10.37549 -10.36097 -10.34993 -10.34834
 Alpha  occ. eigenvalues --  -10.32063 -10.31378 -10.31072 -10.31024 -10.30769
 Alpha  occ. eigenvalues --  -10.30606 -10.30518 -10.30204 -10.30025 -10.29646
 Alpha  occ. eigenvalues --  -10.28439 -10.25058 -10.24756 -10.22033  -1.19046
 Alpha  occ. eigenvalues --   -1.16281  -1.16139  -1.14062  -1.13520  -1.11994
 Alpha  occ. eigenvalues --   -1.11160  -1.07202  -1.06059  -1.03024  -1.02062
 Alpha  occ. eigenvalues --   -1.00977  -0.99693  -0.98897  -0.97139  -0.94125
 Alpha  occ. eigenvalues --   -0.92205  -0.90411  -0.87640  -0.87467  -0.85877
 Alpha  occ. eigenvalues --   -0.85592  -0.84601  -0.82393  -0.79223  -0.77973
 Alpha  occ. eigenvalues --   -0.76339  -0.74629  -0.73473  -0.72024  -0.71946
 Alpha  occ. eigenvalues --   -0.71446  -0.70723  -0.69580  -0.69024  -0.68231
 Alpha  occ. eigenvalues --   -0.66796  -0.66515  -0.65761  -0.65153  -0.63836
 Alpha  occ. eigenvalues --   -0.63330  -0.62532  -0.62369  -0.61758  -0.61405
 Alpha  occ. eigenvalues --   -0.60005  -0.59202  -0.59029  -0.57943  -0.57688
 Alpha  occ. eigenvalues --   -0.57226  -0.56854  -0.56448  -0.55967  -0.55333
 Alpha  occ. eigenvalues --   -0.55112  -0.54564  -0.54197  -0.53286  -0.53228
 Alpha  occ. eigenvalues --   -0.53033  -0.52723  -0.52638  -0.52425  -0.52017
 Alpha  occ. eigenvalues --   -0.51531  -0.50818  -0.50595  -0.50327  -0.49594
 Alpha  occ. eigenvalues --   -0.49243  -0.48694  -0.48093  -0.47916  -0.47534
 Alpha  occ. eigenvalues --   -0.47365  -0.46998  -0.46253  -0.46022  -0.45384
 Alpha  occ. eigenvalues --   -0.45054  -0.44832  -0.44159  -0.43198  -0.42818
 Alpha  occ. eigenvalues --   -0.41562  -0.40980  -0.40046  -0.40006  -0.39489
 Alpha  occ. eigenvalues --   -0.39166  -0.38362  -0.37499  -0.36945  -0.36483
 Alpha  occ. eigenvalues --   -0.36358  -0.35942  -0.35428  -0.35185  -0.34681
 Alpha  occ. eigenvalues --   -0.33752  -0.33283  -0.31364  -0.29978  -0.28866
 Alpha  occ. eigenvalues --   -0.26113
 Alpha virt. eigenvalues --   -0.13239  -0.12292  -0.11805  -0.11169  -0.09633
 Alpha virt. eigenvalues --   -0.07318  -0.05849  -0.05676  -0.05368  -0.04228
 Alpha virt. eigenvalues --   -0.03335  -0.02105  -0.01741  -0.01127  -0.00060

 Mulliken charges:
               1
     1  N   -0.756501
     2  H    0.410027
     3  H    0.427431
     4  H    0.405643
     5  C   -0.112621
     6  H    0.206930
     7  C    0.665643
     8  C   -0.373935
     9  H    0.182779
    10  H    0.215223
    11  O   -0.540515
    12  C    0.561138
    13  N   -0.739034
    14  H    0.374289
    15  H    0.345966
    16  O   -0.438523
    17  N   -0.597743
    18  H    0.378904
    19  C   -0.061926
    20  H    0.203106
    21  C    0.642223
    22  C   -0.369314
    23  H    0.179624
    24  H    0.188259
    25  O   -0.556071
    26  C    0.164516
    27  C   -0.186813
    28  H    0.146163
    29  C   -0.142864
    30  H    0.160427
    31  C   -0.197866
    32  H    0.156563
    33  C   -0.125173
    34  H    0.166371
    35  C   -0.172585
    36  H    0.161080
    37  N   -0.631641
    38  H    0.366548
    39  C   -0.041956
    40  H    0.202069
    41  C    0.615282
    42  C   -0.388123
    43  H    0.200167
    44  H    0.191128
    45  O   -0.546998
    46  C    0.636009
    47  N   -0.743669
    48  H    0.359623
    49  H    0.350354
    50  O   -0.525416
    51  N   -0.643018
    52  H    0.393623
    53  C   -0.004285
    54  H    0.199198
    55  C    0.598232
    56  C   -0.318077
    57  H    0.169358
    58  H    0.149759
    59  O   -0.452628
    60  C   -0.275561
    61  H    0.148187
    62  H    0.182106
    63  C   -0.125212
    64  H    0.177276
    65  H    0.133327
    66  N   -0.593132
    67  H    0.318522
    68  N   -0.756173
    69  H    0.322738
    70  H    0.326269
    71  N   -0.654039
    72  H    0.266890
    73  C    0.591178
    74  O   -0.582503
    75  H    0.413767
 Sum of Mulliken charges =   1.00000

 Dipole moment (field-independent basis, Debye):
    X=            -16.2418    Y=              2.8847    Z=             12.4552  Tot=             20.6700
 Quadrupole moment (field-independent basis, Debye-Ang):
   XX=            -15.9161   YY=           -217.2677   ZZ=           -147.3298
   XY=            -17.2517   XZ=            -88.0055   YZ=             -8.2918

 Normal termination of Gaussian 16 at Mon Jun 27 16:17:21 2022.
