 Gaussian 16, Revision C.01,
 Gaussian 16:  ES64L-G16RevC.01  3-Jul-2019

 ----------------------------------------------------------------------
 # B3LYP/6-31G* empiricaldispersion=gd3bj guess=read geom=check nosymm
 integral(ultrafinegrid)
 ----------------------------------------------------------------------

 ------------------------------------------------------
 Candidate Structure: Conf:448 Charge calc in gas phase
 ------------------------------------------------------
 Structure from the checkpoint file:  "conf-448.chk"
 Charge =  1 Multiplicity = 1

                          Input orientation:
 ---------------------------------------------------------------------
 Center     Atomic      Atomic             Coordinates (Angstroms)
 Number     Number       Type             X           Y           Z
 ---------------------------------------------------------------------
      1          7           0       -4.256845    2.658671    3.428823
      2          1           0       -4.546875    1.697187    3.140936
      3          1           0       -3.663810    2.549456    4.308160
      4          1           0       -5.067141    3.260294    3.583769
      5          6           0       -3.343246    3.127746    2.326554
      6          1           0       -3.801252    3.981132    1.821483
      7          6           0       -3.211693    1.914544    1.374866
      8          6           0       -1.958804    3.509103    2.898723
      9          1           0       -1.257614    3.652196    2.075148
     10          1           0       -2.035699    4.448270    3.455514
     11          8           0       -3.677645    0.832654    1.729429
     12          6           0       -1.475795    2.438347    3.875027
     13          7           0       -0.347590    1.793560    3.569716
     14          1           0       -0.048371    1.052593    4.192275
     15          1           0        0.050135    1.847217    2.630344
     16          8           0       -2.152545    2.212794    4.895175
     17          7           0       -2.547702    2.150699    0.233299
     18          1           0       -2.125830    3.063691    0.112696
     19          6           0       -1.897320    1.092121   -0.532095
     20          1           0       -2.447731    0.167766   -0.343533
     21          6           0       -0.457853    0.942579    0.006029
     22          6           0       -1.953779    1.443135   -2.043211
     23          1           0       -3.017492    1.495485   -2.304064
     24          1           0       -1.527871    2.440295   -2.208174
     25          8           0        0.036818    1.835686    0.735115
     26          6           0       -1.227958    0.433468   -2.899776
     27          6           0       -0.007070    0.768695   -3.495594
     28          1           0        0.347596    1.793347   -3.431530
     29          6           0       -1.705550   -0.878764   -3.010965
     30          1           0       -2.655098   -1.151985   -2.555597
     31          6           0        0.739880   -0.199882   -4.165892
     32          1           0        1.697969    0.065127   -4.600280
     33          6           0       -0.957819   -1.848912   -3.677938
     34          1           0       -1.330354   -2.866532   -3.741561
     35          6           0        0.270854   -1.511865   -4.250080
     36          1           0        0.857574   -2.267673   -4.763729
     37          7           0        0.184837   -0.151593   -0.384457
     38          1           0       -0.335302   -0.890652   -0.861753
     39          6           0        1.586304   -0.479520   -0.099892
     40          1           0        1.775799   -0.296017    0.964240
     41          6           0        2.508303    0.432862   -0.960121
     42          6           0        1.865170   -1.943086   -0.471946
     43          1           0        2.853207   -2.208665   -0.087168
     44          1           0        1.928179   -1.992153   -1.564354
     45          8           0        3.060423    0.020137   -1.968810
     46          6           0        0.787805   -2.921912   -0.030488
     47          7           0        1.200332   -3.968722    0.726501
     48          1           0        0.529801   -4.696348    0.937309
     49          1           0        2.177176   -4.160883    0.890564
     50          8           0       -0.391635   -2.774324   -0.356282
     51          7           0        2.588313    1.710354   -0.506547
     52          1           0        1.935970    1.969198    0.227986
     53          6           0        3.043413    2.786236   -1.378390
     54          1           0        3.205289    2.325135   -2.361031
     55          6           0        4.397859    3.346114   -0.947113
     56          6           0        1.978419    3.888992   -1.471646
     57          1           0        0.995996    3.412206   -1.384526
     58          1           0        2.089565    4.572557   -0.620988
     59          8           0        4.688321    4.522106   -0.960007
     60          6           0        2.005972    4.667449   -2.785678
     61          1           0        2.986980    5.131064   -2.931583
     62          1           0        1.841571    3.962753   -3.608247
     63          6           0        0.889953    5.729853   -2.823092
     64          1           0        0.053976    5.406283   -2.197654
     65          1           0        1.247969    6.686580   -2.429709
     66          7           0        0.335412    5.970013   -4.149011
     67          1           0        0.974395    6.402591   -4.805808
     68          7           0       -0.715842    5.213898   -6.063564
     69          1           0       -1.443002    4.635038   -6.463270
     70          1           0       -0.812785    6.186686   -6.332280
     71          7           0       -0.883721    3.991452   -4.006960
     72          1           0       -1.531923    3.420535   -4.550859
     73          6           0       -0.466538    4.991845   -4.710600
     74          8           0        5.255781    2.374709   -0.578752
     75          1           0        6.099438    2.818512   -0.368373
 ---------------------------------------------------------------------

 SCF Done:  E(RB3LYP) =  -1917.52753194     A.U. after    1 cycles

 Alpha  occ. eigenvalues --  -19.26910 -19.26513 -19.25419 -19.24204 -19.21031
 Alpha  occ. eigenvalues --  -19.20670 -19.20025 -14.57382 -14.49843 -14.48064
 Alpha  occ. eigenvalues --  -14.46842 -14.44980 -14.43760 -14.41917 -14.41636
 Alpha  occ. eigenvalues --  -14.35955 -10.43716 -10.42838 -10.41013 -10.40529
 Alpha  occ. eigenvalues --  -10.38987 -10.38457 -10.37075 -10.35419 -10.35038
 Alpha  occ. eigenvalues --  -10.34815 -10.34029 -10.31171 -10.28868 -10.28633
 Alpha  occ. eigenvalues --  -10.28282 -10.27219 -10.26236 -10.26152 -10.26077
 Alpha  occ. eigenvalues --  -10.25797 -10.25738 -10.25541 -10.24824  -1.19287
 Alpha  occ. eigenvalues --   -1.17578  -1.17087  -1.15347  -1.12511  -1.12056
 Alpha  occ. eigenvalues --   -1.11926  -1.08535  -1.06740  -1.04844  -1.03928
 Alpha  occ. eigenvalues --   -1.03424  -1.00872  -0.99651  -0.95824  -0.94064
 Alpha  occ. eigenvalues --   -0.92964  -0.91268  -0.89721  -0.87588  -0.86670
 Alpha  occ. eigenvalues --   -0.83557  -0.81613  -0.81417  -0.81099  -0.77529
 Alpha  occ. eigenvalues --   -0.74913  -0.74575  -0.73577  -0.73261  -0.72701
 Alpha  occ. eigenvalues --   -0.70916  -0.69622  -0.69185  -0.68305  -0.67583
 Alpha  occ. eigenvalues --   -0.66579  -0.66480  -0.65928  -0.65680  -0.65594
 Alpha  occ. eigenvalues --   -0.65027  -0.63290  -0.62952  -0.61405  -0.61062
 Alpha  occ. eigenvalues --   -0.61010  -0.60116  -0.59574  -0.59354  -0.59049
 Alpha  occ. eigenvalues --   -0.58367  -0.58077  -0.57479  -0.56530  -0.55397
 Alpha  occ. eigenvalues --   -0.54881  -0.54573  -0.54380  -0.53963  -0.53679
 Alpha  occ. eigenvalues --   -0.53208  -0.52676  -0.52315  -0.52007  -0.51756
 Alpha  occ. eigenvalues --   -0.51602  -0.51430  -0.50918  -0.50154  -0.49886
 Alpha  occ. eigenvalues --   -0.49649  -0.49023  -0.48906  -0.48707  -0.48175
 Alpha  occ. eigenvalues --   -0.47917  -0.47488  -0.46996  -0.46153  -0.45865
 Alpha  occ. eigenvalues --   -0.44962  -0.44693  -0.44451  -0.43063  -0.42742
 Alpha  occ. eigenvalues --   -0.41708  -0.41569  -0.41104  -0.40866  -0.40681
 Alpha  occ. eigenvalues --   -0.40230  -0.39729  -0.39279  -0.38659  -0.38318
 Alpha  occ. eigenvalues --   -0.37965  -0.36082  -0.35874  -0.34678  -0.34130
 Alpha  occ. eigenvalues --   -0.33407  -0.32817  -0.32347  -0.31742  -0.31581
 Alpha  occ. eigenvalues --   -0.29772
 Alpha virt. eigenvalues --   -0.12805  -0.11647  -0.10257  -0.08501  -0.07748
 Alpha virt. eigenvalues --   -0.07530  -0.06975  -0.06186  -0.05794  -0.05069
 Alpha virt. eigenvalues --   -0.03197  -0.01936  -0.01430  -0.01086  -0.00479

 Mulliken charges:
               1
     1  N   -0.772446
     2  H    0.425733
     3  H    0.444005
     4  H    0.404908
     5  C   -0.123963
     6  H    0.219917
     7  C    0.636376
     8  C   -0.385117
     9  H    0.211124
    10  H    0.217927
    11  O   -0.509755
    12  C    0.609310
    13  N   -0.744718
    14  H    0.365428
    15  H    0.408627
    16  O   -0.540083
    17  N   -0.564134
    18  H    0.353526
    19  C   -0.106696
    20  H    0.218700
    21  C    0.643647
    22  C   -0.382087
    23  H    0.170704
    24  H    0.204207
    25  O   -0.614242
    26  C    0.132655
    27  C   -0.203961
    28  H    0.176348
    29  C   -0.208348
    30  H    0.133151
    31  C   -0.113763
    32  H    0.153974
    33  C   -0.113556
    34  H    0.148748
    35  C   -0.144363
    36  H    0.146319
    37  N   -0.592094
    38  H    0.417071
    39  C   -0.064945
    40  H    0.168217
    41  C    0.642480
    42  C   -0.409328
    43  H    0.170271
    44  H    0.234135
    45  O   -0.504649
    46  C    0.615635
    47  N   -0.741214
    48  H    0.357701
    49  H    0.353293
    50  O   -0.527261
    51  N   -0.617722
    52  H    0.362189
    53  C   -0.053620
    54  H    0.208803
    55  C    0.592850
    56  C   -0.295246
    57  H    0.146841
    58  H    0.151544
    59  O   -0.458909
    60  C   -0.275183
    61  H    0.165750
    62  H    0.160378
    63  C   -0.133388
    64  H    0.154257
    65  H    0.154982
    66  N   -0.588042
    67  H    0.326657
    68  N   -0.754124
    69  H    0.330699
    70  H    0.334258
    71  N   -0.691791
    72  H    0.274928
    73  C    0.618913
    74  O   -0.551276
    75  H    0.418836
 Sum of Mulliken charges =   1.00000

 Dipole moment (field-independent basis, Debye):
    X=             -8.4945    Y=             10.2744    Z=              4.3280  Tot=             14.0161
 Quadrupole moment (field-independent basis, Debye-Ang):
   XX=           -162.3919   YY=           -143.2950   ZZ=           -167.3373
   XY=            -52.7079   XZ=            -17.4089   YZ=             -6.0454

 Normal termination of Gaussian 16 at Mon Jun 27 16:17:39 2022.
