 Gaussian 16, Revision C.01,
 Gaussian 16:  ES64L-G16RevC.01  3-Jul-2019

 ----------------------------------------------------------------------
 # B3LYP/6-31G* empiricaldispersion=gd3bj guess=read geom=check nosymm
 integral(ultrafinegrid)
 ----------------------------------------------------------------------

 ------------------------------------------------------
 Candidate Structure: Conf:727 Charge calc in gas phase
 ------------------------------------------------------
 Structure from the checkpoint file:  "conf-727.chk"
 Charge =  1 Multiplicity = 1

                          Input orientation:
 ---------------------------------------------------------------------
 Center     Atomic      Atomic             Coordinates (Angstroms)
 Number     Number       Type             X           Y           Z
 ---------------------------------------------------------------------
      1          7           0       -4.823728    0.294469    3.179501
      2          1           0       -5.557620    0.923659    2.820792
      3          1           0       -4.998546   -0.631294    2.752302
      4          1           0       -4.773685    0.281206    4.229631
      5          6           0       -3.479169    0.738291    2.682394
      6          1           0       -3.467805    1.828831    2.709558
      7          6           0       -3.419618    0.224768    1.234370
      8          6           0       -2.350005    0.172306    3.550026
      9          1           0       -2.329073   -0.922010    3.462363
     10          1           0       -1.409642    0.562807    3.147366
     11          8           0       -4.111139   -0.744294    0.922007
     12          6           0       -2.542067    0.529321    5.021175
     13          7           0       -1.432051    0.821599    5.717290
     14          1           0       -1.514518    1.030515    6.704480
     15          1           0       -0.521755    0.876473    5.284081
     16          8           0       -3.669497    0.524231    5.537024
     17          7           0       -2.612677    0.923624    0.429106
     18          1           0       -2.005570    1.631541    0.849172
     19          6           0       -2.686575    0.847378   -1.028384
     20          1           0       -2.985120   -0.174856   -1.280806
     21          6           0       -1.261938    1.137768   -1.541333
     22          6           0       -3.723306    1.859985   -1.582353
     23          1           0       -3.248301    2.843840   -1.621594
     24          1           0       -3.956391    1.581020   -2.614779
     25          8           0       -1.019871    2.077085   -2.298340
     26          6           0       -4.969316    1.904848   -0.727219
     27          6           0       -5.999739    0.970396   -0.888003
     28          1           0       -5.941476    0.244768   -1.694496
     29          6           0       -5.064161    2.826700    0.323682
     30          1           0       -4.283360    3.573127    0.448605
     31          6           0       -7.083910    0.940393   -0.012386
     32          1           0       -7.872641    0.208278   -0.156246
     33          6           0       -6.148093    2.805608    1.207136
     34          1           0       -6.219874    3.552182    1.994256
     35          6           0       -7.160949    1.853322    1.044501
     36          1           0       -8.021472    1.849831    1.708214
     37          7           0       -0.318689    0.338922   -0.986796
     38          1           0       -0.608104   -0.454143   -0.428379
     39          6           0        1.071214    0.727850   -0.880589
     40          1           0        1.207070    1.581721   -1.537237
     41          6           0        1.990402   -0.419540   -1.297972
     42          6           0        1.408962    1.155793    0.569893
     43          1           0        2.472038    1.412866    0.619659
     44          1           0        1.227525    0.320267    1.250999
     45          8           0        1.699616   -1.590195   -1.082434
     46          6           0        0.548433    2.333033    1.005352
     47          7           0        0.903094    3.526115    0.501578
     48          1           0        0.303520    4.315689    0.706097
     49          1           0        1.548225    3.613897   -0.295391
     50          8           0       -0.434313    2.186884    1.759842
     51          7           0        3.137551    0.002035   -1.875679
     52          1           0        3.298056    0.993426   -2.029578
     53          6           0        4.165701   -0.901620   -2.336295
     54          1           0        3.696243   -1.735539   -2.868224
     55          6           0        4.977684   -1.537944   -1.210693
     56          6           0        5.118044   -0.148827   -3.286758
     57          1           0        5.667007    0.603112   -2.704155
     58          1           0        5.858829   -0.869745   -3.640681
     59          8           0        5.680490   -2.507399   -1.369132
     60          6           0        4.393617    0.524847   -4.476088
     61          1           0        4.891386    0.249128   -5.412428
     62          1           0        3.368361    0.145835   -4.548800
     63          6           0        4.377683    2.063285   -4.423352
     64          1           0        5.408429    2.424547   -4.365711
     65          1           0        3.970487    2.462747   -5.363506
     66          7           0        3.676767    2.635787   -3.266179
     67          1           0        4.178109    3.358552   -2.765446
     68          7           0        1.540475    2.197455   -4.129007
     69          1           0        0.536519    2.282200   -4.037994
     70          1           0        1.902901    1.927367   -5.030224
     71          7           0        1.843303    3.618771   -2.261795
     72          1           0        0.831333    3.703396   -2.366595
     73          6           0        2.307882    2.882739   -3.225165
     74          8           0        4.877501   -0.871639   -0.036507
     75          1           0        5.451885   -1.354080    0.588471
 ---------------------------------------------------------------------

 SCF Done:  E(RB3LYP) =  -1917.54840139     A.U. after    1 cycles

 Alpha  occ. eigenvalues --  -19.26950 -19.25246 -19.24615 -19.22767 -19.22377
 Alpha  occ. eigenvalues --  -19.20783 -19.19641 -14.55917 -14.48737 -14.47647
 Alpha  occ. eigenvalues --  -14.46296 -14.44884 -14.44704 -14.44156 -14.43744
 Alpha  occ. eigenvalues --  -14.37707 -10.42761 -10.41563 -10.39798 -10.39605
 Alpha  occ. eigenvalues --  -10.38976 -10.38719 -10.38138 -10.36783 -10.34530
 Alpha  occ. eigenvalues --  -10.33588 -10.32647 -10.31871 -10.31613 -10.29683
 Alpha  occ. eigenvalues --  -10.29618 -10.29481 -10.29217 -10.29138 -10.28989
 Alpha  occ. eigenvalues --  -10.28834 -10.28643 -10.27828 -10.27675  -1.17667
 Alpha  occ. eigenvalues --   -1.17354  -1.16623  -1.14472  -1.13346  -1.11626
 Alpha  occ. eigenvalues --   -1.10838  -1.08598  -1.07422  -1.05395  -1.03688
 Alpha  occ. eigenvalues --   -1.02887  -1.01192  -1.00135  -0.98248  -0.95699
 Alpha  occ. eigenvalues --   -0.93623  -0.92538  -0.89552  -0.88718  -0.87379
 Alpha  occ. eigenvalues --   -0.84550  -0.84373  -0.83011  -0.80864  -0.78483
 Alpha  occ. eigenvalues --   -0.76386  -0.75103  -0.73210  -0.71517  -0.71111
 Alpha  occ. eigenvalues --   -0.70957  -0.70219  -0.69906  -0.69221  -0.68769
 Alpha  occ. eigenvalues --   -0.68396  -0.68183  -0.67719  -0.67086  -0.66559
 Alpha  occ. eigenvalues --   -0.64778  -0.63610  -0.63106  -0.62119  -0.61699
 Alpha  occ. eigenvalues --   -0.61190  -0.60774  -0.60100  -0.58730  -0.58262
 Alpha  occ. eigenvalues --   -0.58051  -0.57739  -0.57216  -0.56810  -0.56175
 Alpha  occ. eigenvalues --   -0.55755  -0.55477  -0.55239  -0.55031  -0.54725
 Alpha  occ. eigenvalues --   -0.54318  -0.53685  -0.53526  -0.53186  -0.52950
 Alpha  occ. eigenvalues --   -0.52128  -0.51850  -0.51498  -0.51240  -0.50534
 Alpha  occ. eigenvalues --   -0.49962  -0.49781  -0.49704  -0.49424  -0.48901
 Alpha  occ. eigenvalues --   -0.48585  -0.48417  -0.47860  -0.47727  -0.46663
 Alpha  occ. eigenvalues --   -0.46215  -0.45950  -0.45843  -0.44495  -0.43789
 Alpha  occ. eigenvalues --   -0.43646  -0.43464  -0.42939  -0.42616  -0.39981
 Alpha  occ. eigenvalues --   -0.39707  -0.38884  -0.38667  -0.38607  -0.37569
 Alpha  occ. eigenvalues --   -0.37351  -0.36644  -0.36209  -0.36155  -0.35804
 Alpha  occ. eigenvalues --   -0.35246  -0.34812  -0.34343  -0.33300  -0.32497
 Alpha  occ. eigenvalues --   -0.31399
 Alpha virt. eigenvalues --   -0.11587  -0.10837  -0.10604  -0.09943  -0.09712
 Alpha virt. eigenvalues --   -0.08755  -0.06198  -0.05619  -0.05199  -0.04565
 Alpha virt. eigenvalues --   -0.02937  -0.02106  -0.01841  -0.00891  -0.00110

 Mulliken charges:
               1
     1  N   -0.758027
     2  H    0.402907
     3  H    0.408782
     4  H    0.435805
     5  C   -0.120399
     6  H    0.212862
     7  C    0.646399
     8  C   -0.415774
     9  H    0.213207
    10  H    0.229119
    11  O   -0.530016
    12  C    0.644445
    13  N   -0.728266
    14  H    0.375350
    15  H    0.370007
    16  O   -0.540477
    17  N   -0.635739
    18  H    0.393612
    19  C   -0.066430
    20  H    0.206953
    21  C    0.597473
    22  C   -0.351897
    23  H    0.178033
    24  H    0.178766
    25  O   -0.534021
    26  C    0.154080
    27  C   -0.146893
    28  H    0.151001
    29  C   -0.187814
    30  H    0.138014
    31  C   -0.123502
    32  H    0.160127
    33  C   -0.178238
    34  H    0.153485
    35  C   -0.172884
    36  H    0.157281
    37  N   -0.562236
    38  H    0.348040
    39  C   -0.122836
    40  H    0.208223
    41  C    0.652168
    42  C   -0.347887
    43  H    0.191354
    44  H    0.170953
    45  O   -0.530240
    46  C    0.581410
    47  N   -0.730860
    48  H    0.342675
    49  H    0.397511
    50  O   -0.575170
    51  N   -0.640397
    52  H    0.384004
    53  C   -0.027729
    54  H    0.201650
    55  C    0.598855
    56  C   -0.312358
    57  H    0.152920
    58  H    0.193066
    59  O   -0.452577
    60  C   -0.279708
    61  H    0.167502
    62  H    0.162899
    63  C   -0.168457
    64  H    0.175498
    65  H    0.157613
    66  N   -0.598301
    67  H    0.349510
    68  N   -0.759026
    69  H    0.373001
    70  H    0.347097
    71  N   -0.712021
    72  H    0.310134
    73  C    0.590695
    74  O   -0.572090
    75  H    0.417785
 Sum of Mulliken charges =   1.00000

 Dipole moment (field-independent basis, Debye):
    X=             -6.4306    Y=              8.6529    Z=              4.5549  Tot=             11.7035
 Quadrupole moment (field-independent basis, Debye-Ang):
   XX=           -132.6741   YY=           -222.1154   ZZ=           -139.2634
   XY=             10.3377   XZ=            -44.3171   YZ=             -6.2521

 Normal termination of Gaussian 16 at Mon Jun 27 16:35:30 2022.
