 Gaussian 16, Revision C.01,
 Gaussian 16:  ES64L-G16RevC.01  3-Jul-2019

 ----------------------------------------------------------------------
 # B3LYP/6-31G* empiricaldispersion=gd3bj guess=read geom=check nosymm
 integral(ultrafinegrid)
 ----------------------------------------------------------------------

 ------------------------------------------------------
 Candidate Structure: Conf:365 Charge calc in gas phase
 ------------------------------------------------------
 Structure from the checkpoint file:  "conf-365.chk"
 Charge =  1 Multiplicity = 1

                          Input orientation:
 ---------------------------------------------------------------------
 Center     Atomic      Atomic             Coordinates (Angstroms)
 Number     Number       Type             X           Y           Z
 ---------------------------------------------------------------------
      1          7           0       -3.987500    3.067013    3.801950
      2          1           0       -4.911409    3.460735    3.994635
      3          1           0       -4.046042    1.988363    3.748566
      4          1           0       -3.342565    3.356415    4.541785
      5          6           0       -3.464873    3.371133    2.411960
      6          1           0       -4.181746    4.036026    1.926024
      7          6           0       -3.483054    1.959683    1.749404
      8          6           0       -2.063765    3.999312    2.508814
      9          1           0       -2.129880    4.932056    3.085796
     10          1           0       -1.386872    3.311114    3.019695
     11          8           0       -3.777754    1.004328    2.481045
     12          6           0       -1.376266    4.311661    1.166982
     13          7           0       -2.217507    4.738836    0.154281
     14          1           0       -1.751676    4.976691   -0.720013
     15          1           0       -3.016021    5.320586    0.378455
     16          8           0       -0.191818    4.121820    1.011906
     17          7           0       -3.221488    1.900315    0.442990
     18          1           0       -2.936490    2.773244   -0.005610
     19          6           0       -2.610625    0.700007   -0.117533
     20          1           0       -3.206311   -0.164900    0.189774
     21          6           0       -1.213010    0.552181    0.559859
     22          6           0       -2.607214    0.803326   -1.658868
     23          1           0       -2.053676   -0.042600   -2.079084
     24          1           0       -3.640907    0.685323   -1.998090
     25          8           0       -0.934524    1.190043    1.572614
     26          6           0       -2.052689    2.115433   -2.176115
     27          6           0       -2.915045    3.051521   -2.761615
     28          1           0       -3.969320    2.809604   -2.873223
     29          6           0       -0.693789    2.438338   -2.048160
     30          1           0       -0.001780    1.717943   -1.629364
     31          6           0       -2.431380    4.277038   -3.224170
     32          1           0       -3.109206    4.978861   -3.702226
     33          6           0       -0.209127    3.669411   -2.487243
     34          1           0        0.841346    3.912452   -2.362481
     35          6           0       -1.077089    4.590325   -3.084395
     36          1           0       -0.681263    5.524434   -3.468594
     37          7           0       -0.392860   -0.352416   -0.008479
     38          1           0       -0.578464   -0.697073   -0.946047
     39          6           0        1.012608   -0.472765    0.338328
     40          1           0        1.272537    0.354975    1.002038
     41          6           0        1.786259   -0.374921   -0.990869
     42          6           0        1.280327   -1.833778    1.038853
     43          1           0        0.792987   -2.626039    0.467556
     44          1           0        0.836260   -1.797275    2.039794
     45          8           0        1.216706   -0.645562   -2.048888
     46          6           0        2.770719   -2.156576    1.068213
     47          7           0        3.495824   -1.460418    1.996715
     48          1           0        4.498722   -1.599510    2.001640
     49          1           0        3.064839   -1.059760    2.817127
     50          8           0        3.285827   -2.875426    0.226069
     51          7           0        3.078114    0.002208   -0.892877
     52          1           0        3.493696    0.092654    0.030105
     53          6           0        4.028783   -0.290827   -1.958234
     54          1           0        3.553398   -0.996529   -2.642956
     55          6           0        5.242710   -0.940574   -1.308380
     56          6           0        4.486131    0.958931   -2.736358
     57          1           0        5.092423    1.589579   -2.073389
     58          1           0        5.147494    0.615086   -3.541807
     59          8           0        5.574350   -0.762730   -0.154078
     60          6           0        3.338792    1.797292   -3.309056
     61          1           0        2.615644    1.156417   -3.828660
     62          1           0        2.811819    2.299429   -2.493038
     63          6           0        3.909761    2.856940   -4.262019
     64          1           0        4.729601    3.381120   -3.764040
     65          1           0        4.320212    2.371982   -5.155801
     66          7           0        2.981038    3.884615   -4.708827
     67          1           0        2.244104    3.593224   -5.338371
     68          7           0        1.803480    5.866464   -4.491090
     69          1           0        1.765167    6.754240   -4.003813
     70          1           0        1.991377    6.008464   -5.479075
     71          7           0        3.147274    5.008747   -2.685636
     72          1           0        2.950323    5.916128   -2.261000
     73          6           0        2.675293    4.945380   -3.881219
     74          8           0        5.946390   -1.670488   -2.185492
     75          1           0        6.723811   -2.021349   -1.710176
 ---------------------------------------------------------------------

 SCF Done:  E(RB3LYP) =  -1917.49943991     A.U. after    1 cycles

 Alpha  occ. eigenvalues --  -19.27089 -19.26679 -19.23442 -19.21923 -19.21097
 Alpha  occ. eigenvalues --  -19.20105 -19.18483 -14.59920 -14.48506 -14.47262
 Alpha  occ. eigenvalues --  -14.45376 -14.43590 -14.43032 -14.41526 -14.40700
 Alpha  occ. eigenvalues --  -14.34764 -10.43641 -10.41606 -10.41383 -10.39141
 Alpha  occ. eigenvalues --  -10.38893 -10.36966 -10.36309 -10.34716 -10.34414
 Alpha  occ. eigenvalues --  -10.34337 -10.32625 -10.30509 -10.29836 -10.28798
 Alpha  occ. eigenvalues --  -10.27872 -10.27858 -10.27728 -10.27207 -10.27195
 Alpha  occ. eigenvalues --  -10.27068 -10.26830 -10.25400 -10.23743  -1.19710
 Alpha  occ. eigenvalues --   -1.17744  -1.15482  -1.14223  -1.13481  -1.11970
 Alpha  occ. eigenvalues --   -1.10395  -1.08761  -1.06235  -1.03870  -1.02341
 Alpha  occ. eigenvalues --   -1.02219  -1.00564  -0.97685  -0.94967  -0.94732
 Alpha  occ. eigenvalues --   -0.93418  -0.90362  -0.89539  -0.87394  -0.85512
 Alpha  occ. eigenvalues --   -0.83872  -0.82927  -0.82012  -0.80824  -0.76996
 Alpha  occ. eigenvalues --   -0.75268  -0.74552  -0.73824  -0.73477  -0.71955
 Alpha  occ. eigenvalues --   -0.69870  -0.69688  -0.69096  -0.68067  -0.67158
 Alpha  occ. eigenvalues --   -0.66955  -0.66226  -0.66007  -0.65435  -0.65051
 Alpha  occ. eigenvalues --   -0.64479  -0.62738  -0.62501  -0.61287  -0.60446
 Alpha  occ. eigenvalues --   -0.60016  -0.59602  -0.58566  -0.58412  -0.58180
 Alpha  occ. eigenvalues --   -0.57485  -0.56857  -0.55904  -0.55538  -0.55072
 Alpha  occ. eigenvalues --   -0.54623  -0.54236  -0.53960  -0.53728  -0.53402
 Alpha  occ. eigenvalues --   -0.52745  -0.52652  -0.52295  -0.52088  -0.51913
 Alpha  occ. eigenvalues --   -0.51725  -0.50549  -0.50080  -0.49749  -0.49424
 Alpha  occ. eigenvalues --   -0.49274  -0.48929  -0.48723  -0.47898  -0.47666
 Alpha  occ. eigenvalues --   -0.47444  -0.46805  -0.46426  -0.46324  -0.45266
 Alpha  occ. eigenvalues --   -0.44548  -0.44332  -0.43740  -0.42708  -0.42541
 Alpha  occ. eigenvalues --   -0.42027  -0.41886  -0.41754  -0.41147  -0.39942
 Alpha  occ. eigenvalues --   -0.39470  -0.39373  -0.38605  -0.36691  -0.35943
 Alpha  occ. eigenvalues --   -0.35783  -0.35370  -0.34185  -0.33765  -0.33629
 Alpha  occ. eigenvalues --   -0.33490  -0.33277  -0.32662  -0.31893  -0.31763
 Alpha  occ. eigenvalues --   -0.28739
 Alpha virt. eigenvalues --   -0.12794  -0.11364  -0.10291  -0.09717  -0.08912
 Alpha virt. eigenvalues --   -0.07448  -0.06912  -0.06484  -0.05769  -0.05014
 Alpha virt. eigenvalues --   -0.04819  -0.02308  -0.01309  -0.00898  -0.00496

 Mulliken charges:
               1
     1  N   -0.764970
     2  H    0.412911
     3  H    0.441263
     4  H    0.414667
     5  C   -0.119761
     6  H    0.204151
     7  C    0.673836
     8  C   -0.392307
     9  H    0.189968
    10  H    0.237737
    11  O   -0.538350
    12  C    0.584047
    13  N   -0.782234
    14  H    0.381120
    15  H    0.336754
    16  O   -0.432435
    17  N   -0.603451
    18  H    0.409400
    19  C   -0.093466
    20  H    0.214657
    21  C    0.638134
    22  C   -0.390578
    23  H    0.190294
    24  H    0.176856
    25  O   -0.535090
    26  C    0.117322
    27  C   -0.188329
    28  H    0.137337
    29  C   -0.172199
    30  H    0.157819
    31  C   -0.137857
    32  H    0.145506
    33  C   -0.148912
    34  H    0.193387
    35  C   -0.176465
    36  H    0.155495
    37  N   -0.604378
    38  H    0.366078
    39  C   -0.078531
    40  H    0.195677
    41  C    0.627561
    42  C   -0.334059
    43  H    0.190813
    44  H    0.164489
    45  O   -0.545120
    46  C    0.558540
    47  N   -0.742507
    48  H    0.370706
    49  H    0.339606
    50  O   -0.487692
    51  N   -0.592416
    52  H    0.364725
    53  C   -0.045676
    54  H    0.206965
    55  C    0.610057
    56  C   -0.280373
    57  H    0.160396
    58  H    0.161562
    59  O   -0.489354
    60  C   -0.272787
    61  H    0.146996
    62  H    0.173010
    63  C   -0.121812
    64  H    0.180121
    65  H    0.144973
    66  N   -0.597870
    67  H    0.323917
    68  N   -0.758320
    69  H    0.321929
    70  H    0.331198
    71  N   -0.646515
    72  H    0.267727
    73  C    0.584859
    74  O   -0.554367
    75  H    0.423612
 Sum of Mulliken charges =   1.00000

 Dipole moment (field-independent basis, Debye):
    X=            -11.9934    Y=             17.9248    Z=              7.0248  Tot=             22.6823
 Quadrupole moment (field-independent basis, Debye-Ang):
   XX=           -139.7920   YY=           -137.5122   ZZ=           -144.6576
   XY=            -60.5726   XZ=            -46.2492   YZ=              9.2286

 Normal termination of Gaussian 16 at Mon Jun 27 16:17:40 2022.
