 Gaussian 16, Revision C.01,
 Gaussian 16:  ES64L-G16RevC.01  3-Jul-2019

 ----------------------------------------------------------------------
 # B3LYP/6-31G* empiricaldispersion=gd3bj guess=read geom=check nosymm
 integral(ultrafinegrid)
 ----------------------------------------------------------------------

 -----------------------------------------------------
 Candidate Structure: Conf:34 Charge calc in gas phase
 -----------------------------------------------------
 Structure from the checkpoint file:  "conf-34.chk"
 Charge =  1 Multiplicity = 1

                          Input orientation:
 ---------------------------------------------------------------------
 Center     Atomic      Atomic             Coordinates (Angstroms)
 Number     Number       Type             X           Y           Z
 ---------------------------------------------------------------------
      1          7           0       -5.879769    0.981906    3.647077
      2          1           0       -6.589466    0.947481    2.890044
      3          1           0       -5.447170    0.024963    3.669815
      4          1           0       -6.320175    1.239005    4.533233
      5          6           0       -4.734104    1.869132    3.233464
      6          1           0       -5.132140    2.701548    2.656619
      7          6           0       -3.917756    0.906597    2.334980
      8          6           0       -3.951813    2.389716    4.437976
      9          1           0       -4.632118    2.815716    5.188152
     10          1           0       -3.389180    1.581884    4.920193
     11          8           0       -4.032827   -0.305407    2.571853
     12          6           0       -3.010907    3.504089    3.947992
     13          7           0       -2.110933    3.948456    4.849009
     14          1           0       -1.481012    4.690572    4.572381
     15          1           0       -2.029825    3.571098    5.781767
     16          8           0       -3.112173    3.951658    2.810416
     17          7           0       -3.219829    1.444070    1.342214
     18          1           0       -3.064635    2.452208    1.293540
     19          6           0       -2.784715    0.650639    0.204066
     20          1           0       -2.551742   -0.356586    0.554629
     21          6           0       -1.561031    1.356624   -0.393369
     22          6           0       -3.919155    0.598712   -0.874220
     23          1           0       -3.903050    1.548505   -1.419095
     24          1           0       -3.672570   -0.192747   -1.589229
     25          8           0       -1.412897    2.566577   -0.223136
     26          6           0       -5.289401    0.385597   -0.274336
     27          6           0       -5.755549   -0.895846    0.048091
     28          1           0       -5.143837   -1.761376   -0.190014
     29          6           0       -6.090877    1.488242    0.048653
     30          1           0       -5.752661    2.487434   -0.213564
     31          6           0       -6.981408   -1.073945    0.686361
     32          1           0       -7.327265   -2.076301    0.919840
     33          6           0       -7.325822    1.320273    0.686405
     34          1           0       -7.952586    2.185691    0.887265
     35          6           0       -7.773365    0.033536    1.012305
     36          1           0       -8.746631   -0.107424    1.474903
     37          7           0       -0.757594    0.577518   -1.132292
     38          1           0       -0.913897   -0.421732   -1.252823
     39          6           0        0.358960    1.077830   -1.911818
     40          1           0        0.056063    1.965750   -2.474354
     41          6           0        0.740069   -0.072793   -2.861922
     42          6           0        1.554059    1.462564   -1.008852
     43          1           0        1.923205    0.570607   -0.492806
     44          1           0        1.178180    2.166623   -0.257795
     45          8           0        0.288802   -1.206382   -2.701397
     46          6           0        2.689984    2.146771   -1.769373
     47          7           0        3.909423    2.061569   -1.236235
     48          1           0        4.729061    2.439768   -1.768205
     49          1           0        4.073934    1.437911   -0.458989
     50          8           0        2.461210    2.764373   -2.832076
     51          7           0        1.636208    0.275493   -3.806767
     52          1           0        1.959595    1.240083   -3.755567
     53          6           0        2.515848   -0.684797   -4.445665
     54          1           0        1.992444   -1.240820   -5.229120
     55          6           0        3.050352   -1.669871   -3.403606
     56          6           0        3.737793    0.072959   -5.009892
     57          1           0        4.282715    0.482065   -4.151268
     58          1           0        4.402055   -0.649533   -5.495730
     59          8           0        3.296718   -1.391174   -2.251072
     60          6           0        3.396102    1.212498   -5.981098
     61          1           0        3.196481    0.815710   -6.983464
     62          1           0        2.479796    1.729210   -5.673743
     63          6           0        4.523788    2.251989   -6.070552
     64          1           0        5.446752    1.770296   -6.406850
     65          1           0        4.252138    3.004567   -6.823517
     66          7           0        4.781172    2.884719   -4.779999
     67          1           0        3.991563    2.989148   -4.140559
     68          7           0        7.096655    2.851531   -5.013886
     69          1           0        7.991329    2.980518   -4.559616
     70          1           0        7.013771    3.398004   -5.863265
     71          7           0        6.068573    2.932684   -2.861297
     72          1           0        7.018971    3.104896   -2.538023
     73          6           0        5.999321    2.903532   -4.156886
     74          8           0        3.305470   -2.871827   -3.954262
     75          1           0        3.700386   -3.424478   -3.253398
 ---------------------------------------------------------------------

 SCF Done:  E(RB3LYP) =  -1917.53417807     A.U. after    1 cycles

 Alpha  occ. eigenvalues --  -19.25782 -19.25306 -19.24093 -19.20080 -19.19948
 Alpha  occ. eigenvalues --  -19.18905 -19.17935 -14.58861 -14.48015 -14.47739
 Alpha  occ. eigenvalues --  -14.44079 -14.41606 -14.40649 -14.40062 -14.39252
 Alpha  occ. eigenvalues --  -14.34373 -10.42258 -10.42202 -10.39718 -10.38011
 Alpha  occ. eigenvalues --  -10.37420 -10.35519 -10.35420 -10.35009 -10.34128
 Alpha  occ. eigenvalues --  -10.33797 -10.30729 -10.30427 -10.30368 -10.30202
 Alpha  occ. eigenvalues --  -10.30135 -10.29860 -10.29718 -10.29635 -10.29470
 Alpha  occ. eigenvalues --  -10.27700 -10.26479 -10.25543 -10.25017  -1.18128
 Alpha  occ. eigenvalues --   -1.16685  -1.16047  -1.12961  -1.12230  -1.10711
 Alpha  occ. eigenvalues --   -1.09165  -1.07588  -1.04854  -1.03192  -1.02987
 Alpha  occ. eigenvalues --   -1.00804  -0.99509  -0.96521  -0.95742  -0.94141
 Alpha  occ. eigenvalues --   -0.93394  -0.89930  -0.89615  -0.86925  -0.85421
 Alpha  occ. eigenvalues --   -0.85237  -0.83868  -0.81741  -0.80438  -0.76974
 Alpha  occ. eigenvalues --   -0.75123  -0.74002  -0.73351  -0.72605  -0.71278
 Alpha  occ. eigenvalues --   -0.70718  -0.69941  -0.68930  -0.68862  -0.66994
 Alpha  occ. eigenvalues --   -0.66398  -0.66072  -0.65787  -0.65288  -0.64097
 Alpha  occ. eigenvalues --   -0.63512  -0.63015  -0.61830  -0.60946  -0.59320
 Alpha  occ. eigenvalues --   -0.59122  -0.58862  -0.58407  -0.57487  -0.57239
 Alpha  occ. eigenvalues --   -0.56728  -0.56570  -0.56513  -0.56065  -0.55428
 Alpha  occ. eigenvalues --   -0.55162  -0.54006  -0.53857  -0.53724  -0.53069
 Alpha  occ. eigenvalues --   -0.52606  -0.52585  -0.52256  -0.51850  -0.51442
 Alpha  occ. eigenvalues --   -0.51239  -0.50605  -0.50165  -0.49791  -0.49553
 Alpha  occ. eigenvalues --   -0.49446  -0.48969  -0.48263  -0.47530  -0.47268
 Alpha  occ. eigenvalues --   -0.46848  -0.46704  -0.46511  -0.45470  -0.45197
 Alpha  occ. eigenvalues --   -0.45016  -0.44389  -0.44227  -0.43966  -0.42422
 Alpha  occ. eigenvalues --   -0.42134  -0.40858  -0.40441  -0.40186  -0.40172
 Alpha  occ. eigenvalues --   -0.39113  -0.38338  -0.38103  -0.37557  -0.35791
 Alpha  occ. eigenvalues --   -0.35542  -0.34569  -0.34155  -0.33819  -0.33548
 Alpha  occ. eigenvalues --   -0.32962  -0.32232  -0.32001  -0.31875  -0.30978
 Alpha  occ. eigenvalues --   -0.27503
 Alpha virt. eigenvalues --   -0.12608  -0.11552  -0.11039  -0.10485  -0.08615
 Alpha virt. eigenvalues --   -0.06204  -0.05474  -0.04320  -0.04017  -0.03520
 Alpha virt. eigenvalues --   -0.03170  -0.01695  -0.00905  -0.00448  -0.00376

 Mulliken charges:
               1
     1  N   -0.764405
     2  H    0.411640
     3  H    0.423266
     4  H    0.399656
     5  C   -0.096120
     6  H    0.230843
     7  C    0.638392
     8  C   -0.404862
     9  H    0.194156
    10  H    0.205656
    11  O   -0.545599
    12  C    0.636185
    13  N   -0.741483
    14  H    0.376474
    15  H    0.359360
    16  O   -0.497979
    17  N   -0.599672
    18  H    0.402780
    19  C   -0.064729
    20  H    0.194351
    21  C    0.633116
    22  C   -0.366128
    23  H    0.183305
    24  H    0.183742
    25  O   -0.534856
    26  C    0.161086
    27  C   -0.144988
    28  H    0.157512
    29  C   -0.188040
    30  H    0.157699
    31  C   -0.127251
    32  H    0.163312
    33  C   -0.191937
    34  H    0.159106
    35  C   -0.179639
    36  H    0.159638
    37  N   -0.631483
    38  H    0.359920
    39  C   -0.054396
    40  H    0.204004
    41  C    0.627339
    42  C   -0.366985
    43  H    0.176812
    44  H    0.206725
    45  O   -0.544626
    46  C    0.613714
    47  N   -0.766058
    48  H    0.424237
    49  H    0.335763
    50  O   -0.573254
    51  N   -0.655463
    52  H    0.398348
    53  C    0.004799
    54  H    0.182002
    55  C    0.600430
    56  C   -0.324206
    57  H    0.183410
    58  H    0.169291
    59  O   -0.483841
    60  C   -0.299618
    61  H    0.154852
    62  H    0.162843
    63  C   -0.138746
    64  H    0.168671
    65  H    0.151624
    66  N   -0.622635
    67  H    0.379321
    68  N   -0.746429
    69  H    0.330899
    70  H    0.337142
    71  N   -0.717692
    72  H    0.276980
    73  C    0.637681
    74  O   -0.562251
    75  H    0.417286
 Sum of Mulliken charges =   1.00000

 Dipole moment (field-independent basis, Debye):
    X=            -13.5809    Y=              6.5658    Z=             10.8613  Tot=             18.5881
 Quadrupole moment (field-independent basis, Debye-Ang):
   XX=            -35.4224   YY=           -208.7736   ZZ=           -105.0793
   XY=             -8.8501   XZ=           -112.8299   YZ=             25.7944

 Normal termination of Gaussian 16 at Mon Jun 27 16:17:35 2022.
