 Gaussian 16, Revision C.01,
 Gaussian 16:  ES64L-G16RevC.01  3-Jul-2019

 ----------------------------------------------------------------------
 # B3LYP/6-31G* empiricaldispersion=gd3bj guess=read geom=check nosymm
 integral(ultrafinegrid)
 ----------------------------------------------------------------------

 ------------------------------------------------------
 Candidate Structure: Conf:883 Charge calc in gas phase
 ------------------------------------------------------
 Structure from the checkpoint file:  "conf-883.chk"
 Charge =  1 Multiplicity = 1

                          Input orientation:
 ---------------------------------------------------------------------
 Center     Atomic      Atomic             Coordinates (Angstroms)
 Number     Number       Type             X           Y           Z
 ---------------------------------------------------------------------
      1          7           0       -6.354020    1.724098    2.685380
      2          1           0       -6.392227    0.748615    2.240545
      3          1           0       -6.626352    1.654110    3.682531
      4          1           0       -6.973360    2.375721    2.200331
      5          6           0       -4.883974    2.044707    2.534978
      6          1           0       -4.782542    2.829909    1.781626
      7          6           0       -4.305113    0.716892    1.958862
      8          6           0       -4.266405    2.489585    3.872185
      9          1           0       -3.183998    2.573762    3.755445
     10          1           0       -4.653474    3.475766    4.149906
     11          8           0       -5.119030   -0.183269    1.692109
     12          6           0       -4.568854    1.421223    4.924296
     13          7           0       -5.743810    1.659995    5.636599
     14          1           0       -5.924390    0.975009    6.367052
     15          1           0       -5.931008    2.614601    5.928592
     16          8           0       -3.959374    0.375990    4.982267
     17          7           0       -3.004781    0.695357    1.761709
     18          1           0       -2.391014    1.486607    1.981392
     19          6           0       -2.239189   -0.389118    1.162228
     20          1           0       -2.376182   -1.300396    1.754818
     21          6           0       -0.779170    0.106688    1.278924
     22          6           0       -2.659081   -0.667543   -0.308290
     23          1           0       -2.033491   -1.478930   -0.694276
     24          1           0       -3.687648   -1.038287   -0.285794
     25          8           0       -0.552141    1.243222    1.700068
     26          6           0       -2.540823    0.553020   -1.189290
     27          6           0       -3.593465    1.474026   -1.278458
     28          1           0       -4.535738    1.253049   -0.780888
     29          6           0       -1.359964    0.810095   -1.895752
     30          1           0       -0.559652    0.078601   -1.887594
     31          6           0       -3.458697    2.640832   -2.031023
     32          1           0       -4.288185    3.339371   -2.104247
     33          6           0       -1.217367    1.981939   -2.640345
     34          1           0       -0.291518    2.162894   -3.176166
     35          6           0       -2.263236    2.904003   -2.703920
     36          1           0       -2.151912    3.815390   -3.284247
     37          7           0        0.167767   -0.766329    0.890849
     38          1           0       -0.113968   -1.590600    0.362986
     39          6           0        1.498377   -0.316444    0.499997
     40          1           0        1.543736    0.767586    0.607558
     41          6           0        1.658309   -0.743951   -0.969049
     42          6           0        2.603084   -0.953107    1.358604
     43          1           0        2.662640   -2.029584    1.162201
     44          1           0        2.342243   -0.825240    2.416001
     45          8           0        0.999820   -1.694074   -1.401905
     46          6           0        3.957203   -0.285824    1.117030
     47          7           0        5.031059   -0.962901    1.592300
     48          1           0        5.944377   -0.598998    1.353801
     49          1           0        4.969148   -1.948563    1.802762
     50          8           0        4.056439    0.822757    0.591761
     51          7           0        2.532340   -0.021238   -1.692265
     52          1           0        3.148026    0.588838   -1.155894
     53          6           0        3.007190   -0.521959   -2.970120
     54          1           0        2.135035   -0.862466   -3.538364
     55          6           0        3.928050   -1.710090   -2.713051
     56          6           0        3.672651    0.638781   -3.735193
     57          1           0        2.936599    1.450502   -3.736931
     58          1           0        4.538269    0.997702   -3.162120
     59          8           0        4.371565   -2.038684   -1.632608
     60          6           0        4.108062    0.349146   -5.175406
     61          1           0        4.580781    1.260089   -5.568157
     62          1           0        4.877979   -0.428872   -5.194160
     63          6           0        2.983133   -0.079854   -6.129333
     64          1           0        3.419905   -0.278629   -7.115518
     65          1           0        2.512977   -1.003246   -5.788763
     66          7           0        1.917892    0.900136   -6.293723
     67          1           0        2.197486    1.827169   -6.586072
     68          7           0       -0.122156    1.906702   -5.894702
     69          1           0       -1.064105    1.779029   -5.545109
     70          1           0       -0.127804    2.183033   -6.871604
     71          7           0        0.482084   -0.140400   -4.789732
     72          1           0       -0.484480   -0.121002   -4.469585
     73          6           0        0.725380    0.823195   -5.609098
     74          8           0        4.197115   -2.389688   -3.849142
     75          1           0        4.778544   -3.132993   -3.599526
 ---------------------------------------------------------------------

 SCF Done:  E(RB3LYP) =  -1917.51532823     A.U. after    3 cycles

 Alpha  occ. eigenvalues --  -19.26612 -19.26223 -19.25742 -19.21806 -19.20026
 Alpha  occ. eigenvalues --  -19.18802 -19.18757 -14.59099 -14.50315 -14.48578
 Alpha  occ. eigenvalues --  -14.44670 -14.42570 -14.41864 -14.40695 -14.40323
 Alpha  occ. eigenvalues --  -14.33973 -10.43608 -10.43204 -10.41573 -10.38582
 Alpha  occ. eigenvalues --  -10.37808 -10.36521 -10.35683 -10.35450 -10.34204
 Alpha  occ. eigenvalues --  -10.33966 -10.30900 -10.28495 -10.28415 -10.27686
 Alpha  occ. eigenvalues --  -10.27464 -10.27178 -10.27026 -10.26636 -10.26559
 Alpha  occ. eigenvalues --  -10.26179 -10.26002 -10.25060 -10.24066  -1.19213
 Alpha  occ. eigenvalues --   -1.18024  -1.16587  -1.13955  -1.13188  -1.10895
 Alpha  occ. eigenvalues --   -1.10336  -1.07470  -1.05826  -1.04751  -1.03318
 Alpha  occ. eigenvalues --   -1.01638  -0.99217  -0.97500  -0.94533  -0.94410
 Alpha  occ. eigenvalues --   -0.93405  -0.89746  -0.88957  -0.86535  -0.84822
 Alpha  occ. eigenvalues --   -0.84188  -0.82136  -0.81779  -0.79617  -0.76434
 Alpha  occ. eigenvalues --   -0.75620  -0.74785  -0.73557  -0.72611  -0.72106
 Alpha  occ. eigenvalues --   -0.70537  -0.69283  -0.68358  -0.67555  -0.67264
 Alpha  occ. eigenvalues --   -0.66486  -0.65857  -0.65586  -0.64992  -0.64015
 Alpha  occ. eigenvalues --   -0.63550  -0.63447  -0.61234  -0.60694  -0.60365
 Alpha  occ. eigenvalues --   -0.59509  -0.59024  -0.58836  -0.57820  -0.57547
 Alpha  occ. eigenvalues --   -0.57191  -0.56485  -0.55748  -0.55343  -0.54986
 Alpha  occ. eigenvalues --   -0.54555  -0.54077  -0.53913  -0.53402  -0.53239
 Alpha  occ. eigenvalues --   -0.53000  -0.52791  -0.52000  -0.51743  -0.51379
 Alpha  occ. eigenvalues --   -0.50917  -0.50640  -0.50037  -0.49685  -0.49461
 Alpha  occ. eigenvalues --   -0.48912  -0.48656  -0.47755  -0.47591  -0.47190
 Alpha  occ. eigenvalues --   -0.46873  -0.46472  -0.46032  -0.45503  -0.44398
 Alpha  occ. eigenvalues --   -0.43968  -0.43571  -0.42961  -0.42929  -0.42740
 Alpha  occ. eigenvalues --   -0.41844  -0.41353  -0.40993  -0.40402  -0.40099
 Alpha  occ. eigenvalues --   -0.39461  -0.39136  -0.38504  -0.37513  -0.36088
 Alpha  occ. eigenvalues --   -0.35327  -0.34465  -0.33856  -0.33069  -0.32784
 Alpha  occ. eigenvalues --   -0.32553  -0.32398  -0.32264  -0.31968  -0.30646
 Alpha  occ. eigenvalues --   -0.27934
 Alpha virt. eigenvalues --   -0.13501  -0.12261  -0.09375  -0.08500  -0.08377
 Alpha virt. eigenvalues --   -0.07000  -0.06170  -0.05377  -0.05006  -0.04372
 Alpha virt. eigenvalues --   -0.04276  -0.02096  -0.01222  -0.00606  -0.00312

 Mulliken charges:
               1
     1  N   -0.773879
     2  H    0.436946
     3  H    0.416379
     4  H    0.409568
     5  C   -0.126906
     6  H    0.234944
     7  C    0.690347
     8  C   -0.369111
     9  H    0.238546
    10  H    0.180449
    11  O   -0.555754
    12  C    0.538540
    13  N   -0.758176
    14  H    0.374902
    15  H    0.358166
    16  O   -0.417849
    17  N   -0.610293
    18  H    0.382023
    19  C   -0.044762
    20  H    0.204437
    21  C    0.627078
    22  C   -0.400597
    23  H    0.188566
    24  H    0.192265
    25  O   -0.537711
    26  C    0.164316
    27  C   -0.195772
    28  H    0.104999
    29  C   -0.211344
    30  H    0.190450
    31  C   -0.130163
    32  H    0.127648
    33  C   -0.162157
    34  H    0.175081
    35  C   -0.138212
    36  H    0.145605
    37  N   -0.607074
    38  H    0.359849
    39  C   -0.082468
    40  H    0.214241
    41  C    0.631749
    42  C   -0.370692
    43  H    0.179237
    44  H    0.197520
    45  O   -0.557323
    46  C    0.630493
    47  N   -0.731962
    48  H    0.354219
    49  H    0.349567
    50  O   -0.529626
    51  N   -0.606745
    52  H    0.377552
    53  C   -0.073147
    54  H    0.262487
    55  C    0.604220
    56  C   -0.293943
    57  H    0.164099
    58  H    0.149324
    59  O   -0.487572
    60  C   -0.273583
    61  H    0.134407
    62  H    0.158783
    63  C   -0.139325
    64  H    0.149884
    65  H    0.201444
    66  N   -0.596292
    67  H    0.320083
    68  N   -0.766964
    69  H    0.327522
    70  H    0.328138
    71  N   -0.666405
    72  H    0.277507
    73  C    0.606029
    74  O   -0.559489
    75  H    0.415690
 Sum of Mulliken charges =   1.00000

 Dipole moment (field-independent basis, Debye):
    X=            -17.6617    Y=              9.1118    Z=              7.8889  Tot=             21.3821
 Quadrupole moment (field-independent basis, Debye-Ang):
   XX=            -46.1337   YY=           -191.8213   ZZ=           -124.1283
   XY=            -75.9170   XZ=            -88.5935   YZ=             13.7264

 Normal termination of Gaussian 16 at Mon Jun 27 16:36:09 2022.
