 Gaussian 16, Revision C.01,
 Gaussian 16:  ES64L-G16RevC.01  3-Jul-2019

 ----------------------------------------------------------------------
 # B3LYP/6-31G* empiricaldispersion=gd3bj guess=read geom=check nosymm
 integral(ultrafinegrid)
 ----------------------------------------------------------------------

 ------------------------------------------------------
 Candidate Structure: Conf:497 Charge calc in gas phase
 ------------------------------------------------------
 Structure from the checkpoint file:  "conf-497.chk"
 Charge =  1 Multiplicity = 1

                          Input orientation:
 ---------------------------------------------------------------------
 Center     Atomic      Atomic             Coordinates (Angstroms)
 Number     Number       Type             X           Y           Z
 ---------------------------------------------------------------------
      1          7           0       -3.811359    4.333557   -1.149812
      2          1           0       -2.811270    4.154440   -2.664053
      3          1           0       -4.628425    3.722030   -1.194676
      4          1           0       -4.139435    5.281625   -0.970079
      5          6           0       -2.950290    3.861541   -0.052724
      6          1           0       -1.989608    4.377068   -0.124960
      7          6           0       -2.763363    2.359774   -0.320012
      8          6           0       -3.507827    4.083846    1.359905
      9          1           0       -3.843783    5.123887    1.467156
     10          1           0       -4.382287    3.442456    1.524138
     11          8           0       -3.736392    1.652983   -0.559003
     12          6           0       -2.429313    3.800003    2.409203
     13          7           0       -2.828114    3.896500    3.699275
     14          1           0       -2.149089    3.730962    4.429947
     15          1           0       -3.774582    4.127089    3.962653
     16          8           0       -1.276155    3.515472    2.091923
     17          7           0       -1.467682    1.937647   -0.360910
     18          1           0       -0.819249    2.454868    0.236200
     19          6           0       -1.145519    0.522549   -0.520894
     20          1           0       -1.707891   -0.072119    0.208298
     21          6           0        0.359313    0.403346   -0.270945
     22          6           0       -1.493540    0.015030   -1.952877
     23          1           0       -2.396625    0.543185   -2.267630
     24          1           0       -0.682322    0.281464   -2.637426
     25          8           0        1.058970    1.411276   -0.153411
     26          6           0       -1.749584   -1.474461   -1.987825
     27          6           0       -0.837874   -2.360906   -2.577021
     28          1           0        0.067831   -1.967962   -3.029960
     29          6           0       -2.914025   -1.985453   -1.396234
     30          1           0       -3.627465   -1.296280   -0.950241
     31          6           0       -1.088205   -3.736397   -2.567920
     32          1           0       -0.379100   -4.414596   -3.034723
     33          6           0       -3.161257   -3.356478   -1.389994
     34          1           0       -4.069352   -3.739735   -0.933716
     35          6           0       -2.246796   -4.236731   -1.974874
     36          1           0       -2.441759   -5.305092   -1.972105
     37          7           0        0.874633   -0.852439   -0.246272
     38          1           0        0.285428   -1.598219   -0.604307
     39          6           0        2.314345   -0.989576   -0.440617
     40          1           0        2.813623   -0.411776    0.336889
     41          6           0        2.668260   -0.391852   -1.822191
     42          6           0        2.746257   -2.448604   -0.324938
     43          1           0        2.410761   -3.023874   -1.196628
     44          1           0        2.278333   -2.896445    0.561076
     45          8           0        1.925005   -0.562338   -2.792374
     46          6           0        4.267723   -2.534491   -0.173802
     47          7           0        4.786148   -3.784678   -0.253739
     48          1           0        5.779106   -3.905336   -0.108492
     49          1           0        4.211702   -4.606107   -0.368734
     50          8           0        4.962456   -1.541028    0.018206
     51          7           0        3.774679    0.376213   -1.854880
     52          1           0        4.421521    0.304838   -1.076264
     53          6           0        4.113775    1.190245   -3.009470
     54          1           0        3.714284    0.681953   -3.895466
     55          6           0        5.618232    1.311949   -3.219720
     56          6           0        3.480919    2.598498   -2.905943
     57          1           0        3.709803    2.988774   -1.906277
     58          1           0        3.969119    3.254846   -3.632441
     59          8           0        6.116954    2.075787   -4.013700
     60          6           0        1.960016    2.570630   -3.120815
     61          1           0        1.743479    2.526228   -4.198075
     62          1           0        1.537487    1.662869   -2.695946
     63          6           0        1.247515    3.752629   -2.458764
     64          1           0        1.468420    3.744576   -1.389493
     65          1           0        1.567957    4.721675   -2.857256
     66          7           0       -0.216639    3.666007   -2.569635
     67          1           0       -0.692275    3.071808   -1.885067
     68          7           0       -0.305846    4.509694   -4.730352
     69          1           0       -0.810716    5.000148   -5.452658
     70          1           0        0.651991    4.255122   -4.917264
     71          7           0       -2.267843    4.101146   -3.559411
     72          1           0       -2.787558    4.236761   -4.414935
     73          6           0       -0.931434    4.082433   -3.614921
     74          8           0        6.328457    0.479348   -2.432938
     75          1           0        7.270637    0.630736   -2.639533
 ---------------------------------------------------------------------

 SCF Done:  E(RB3LYP) =  -1917.56747362     A.U. after    1 cycles

 Alpha  occ. eigenvalues --  -19.27654 -19.22589 -19.21591 -19.21507 -19.21383
 Alpha  occ. eigenvalues --  -19.19909 -19.19842 -14.50230 -14.48903 -14.47972
 Alpha  occ. eigenvalues --  -14.45834 -14.45328 -14.44877 -14.44770 -14.44017
 Alpha  occ. eigenvalues --  -14.43878 -10.45699 -10.40028 -10.39168 -10.39088
 Alpha  occ. eigenvalues --  -10.38154 -10.37745 -10.36821 -10.33557 -10.33190
 Alpha  occ. eigenvalues --  -10.32732 -10.32240 -10.31834 -10.30278 -10.28989
 Alpha  occ. eigenvalues --  -10.27945 -10.27726 -10.27648 -10.27069 -10.26020
 Alpha  occ. eigenvalues --  -10.25956 -10.25844 -10.25830 -10.25613  -1.18550
 Alpha  occ. eigenvalues --   -1.14579  -1.14117  -1.13510  -1.13087  -1.11861
 Alpha  occ. eigenvalues --   -1.11429  -1.09453  -1.03525  -1.02505  -1.02179
 Alpha  occ. eigenvalues --   -1.01625  -1.00976  -1.00880  -1.00148  -0.98816
 Alpha  occ. eigenvalues --   -0.92884  -0.89629  -0.88530  -0.87131  -0.86035
 Alpha  occ. eigenvalues --   -0.84397  -0.81814  -0.81350  -0.79243  -0.77133
 Alpha  occ. eigenvalues --   -0.76343  -0.75505  -0.73365  -0.71599  -0.70985
 Alpha  occ. eigenvalues --   -0.69647  -0.68563  -0.67984  -0.67854  -0.67411
 Alpha  occ. eigenvalues --   -0.66810  -0.66621  -0.65904  -0.64952  -0.64546
 Alpha  occ. eigenvalues --   -0.63785  -0.63512  -0.62366  -0.62147  -0.62030
 Alpha  occ. eigenvalues --   -0.60350  -0.59389  -0.58560  -0.58479  -0.57964
 Alpha  occ. eigenvalues --   -0.57361  -0.57244  -0.56746  -0.56352  -0.55715
 Alpha  occ. eigenvalues --   -0.55220  -0.54397  -0.54028  -0.53576  -0.53557
 Alpha  occ. eigenvalues --   -0.52974  -0.52730  -0.52551  -0.52089  -0.51856
 Alpha  occ. eigenvalues --   -0.51499  -0.50568  -0.50261  -0.49679  -0.49382
 Alpha  occ. eigenvalues --   -0.48740  -0.48602  -0.48486  -0.48003  -0.47659
 Alpha  occ. eigenvalues --   -0.47416  -0.47248  -0.46801  -0.46260  -0.46143
 Alpha  occ. eigenvalues --   -0.45711  -0.45124  -0.44674  -0.44039  -0.43546
 Alpha  occ. eigenvalues --   -0.42877  -0.42549  -0.41212  -0.40871  -0.40780
 Alpha  occ. eigenvalues --   -0.39449  -0.38561  -0.37931  -0.37388  -0.36439
 Alpha  occ. eigenvalues --   -0.36095  -0.35954  -0.35561  -0.35149  -0.35101
 Alpha  occ. eigenvalues --   -0.34952  -0.34147  -0.33428  -0.32551  -0.32021
 Alpha  occ. eigenvalues --   -0.31543
 Alpha virt. eigenvalues --   -0.10176  -0.09535  -0.08507  -0.07414  -0.07296
 Alpha virt. eigenvalues --   -0.06950  -0.06906  -0.06075  -0.05754  -0.05232
 Alpha virt. eigenvalues --   -0.03082  -0.02338  -0.01118  -0.00285  -0.00183

 Mulliken charges:
               1
     1  N   -0.777423
     2  H    0.441528
     3  H    0.347645
     4  H    0.328919
     5  C   -0.048022
     6  H    0.166073
     7  C    0.610159
     8  C   -0.397560
     9  H    0.177812
    10  H    0.194807
    11  O   -0.513584
    12  C    0.620551
    13  N   -0.744775
    14  H    0.362272
    15  H    0.353602
    16  O   -0.517671
    17  N   -0.668418
    18  H    0.395304
    19  C   -0.033721
    20  H    0.191737
    21  C    0.617951
    22  C   -0.382427
    23  H    0.186502
    24  H    0.177773
    25  O   -0.547977
    26  C    0.115523
    27  C   -0.234880
    28  H    0.186965
    29  C   -0.180946
    30  H    0.155033
    31  C   -0.135839
    32  H    0.139290
    33  C   -0.129832
    34  H    0.145937
    35  C   -0.126339
    36  H    0.145234
    37  N   -0.613641
    38  H    0.357401
    39  C   -0.024134
    40  H    0.201566
    41  C    0.615438
    42  C   -0.421977
    43  H    0.185043
    44  H    0.196028
    45  O   -0.551082
    46  C    0.626307
    47  N   -0.746585
    48  H    0.358888
    49  H    0.349957
    50  O   -0.513981
    51  N   -0.589808
    52  H    0.383689
    53  C   -0.061576
    54  H    0.210691
    55  C    0.586445
    56  C   -0.266736
    57  H    0.158630
    58  H    0.177434
    59  O   -0.453888
    60  C   -0.298627
    61  H    0.129004
    62  H    0.209950
    63  C   -0.185224
    64  H    0.210282
    65  H    0.168150
    66  N   -0.625409
    67  H    0.408114
    68  N   -0.762279
    69  H    0.371763
    70  H    0.383760
    71  N   -0.808675
    72  H    0.354017
    73  C    0.792034
    74  O   -0.558015
    75  H    0.425842
 Sum of Mulliken charges =   1.00000

 Dipole moment (field-independent basis, Debye):
    X=             -4.2930    Y=             10.7993    Z=             -6.7776  Tot=             13.4532
 Quadrupole moment (field-independent basis, Debye-Ang):
   XX=           -162.8556   YY=           -110.7628   ZZ=           -163.5453
   XY=            -64.0703   XZ=             -7.4268   YZ=            -31.1240

 Normal termination of Gaussian 16 at Mon Jun 27 16:17:27 2022.
