 Gaussian 16, Revision C.01,
 Gaussian 16:  ES64L-G16RevC.01  3-Jul-2019

 ----------------------------------------------------------------------
 # B3LYP/6-31G* empiricaldispersion=gd3bj guess=read geom=check nosymm
 integral(ultrafinegrid)
 ----------------------------------------------------------------------

 ------------------------------------------------------
 Candidate Structure: Conf:472 Charge calc in gas phase
 ------------------------------------------------------
 Structure from the checkpoint file:  "conf-472.chk"
 Charge =  1 Multiplicity = 1

                          Input orientation:
 ---------------------------------------------------------------------
 Center     Atomic      Atomic             Coordinates (Angstroms)
 Number     Number       Type             X           Y           Z
 ---------------------------------------------------------------------
      1          7           0       -6.070435   -0.311573    3.910359
      2          1           0       -6.907626    0.276127    3.910239
      3          1           0       -6.005123   -0.871135    2.983660
      4          1           0       -6.115450   -0.944265    4.712565
      5          6           0       -4.786085    0.480653    3.828519
      6          1           0       -5.019587    1.545830    3.846180
      7          6           0       -4.244089    0.069574    2.426443
      8          6           0       -3.842200    0.152274    4.990655
      9          1           0       -4.402225    0.123599    5.934944
     10          1           0       -3.372629   -0.828869    4.853148
     11          8           0       -4.891323   -0.805688    1.816055
     12          6           0       -2.774624    1.254610    5.102296
     13          7           0       -1.815151    1.050688    6.025388
     14          1           0       -1.091216    1.751292    6.124449
     15          1           0       -1.767144    0.224223    6.603280
     16          8           0       -2.835153    2.251714    4.389620
     17          7           0       -3.142052    0.655088    2.003290
     18          1           0       -2.695578    1.399663    2.547883
     19          6           0       -2.517289    0.367950    0.714573
     20          1           0       -2.652698   -0.691632    0.485116
     21          6           0       -1.037442    0.731448    0.879856
     22          6           0       -3.161310    1.237552   -0.403659
     23          1           0       -4.201269    0.910901   -0.513403
     24          1           0       -3.168767    2.273316   -0.048564
     25          8           0       -0.716604    1.638220    1.650296
     26          6           0       -2.414590    1.140957   -1.711909
     27          6           0       -1.494522    2.133066   -2.072203
     28          1           0       -1.365651    3.001059   -1.430278
     29          6           0       -2.566227    0.023735   -2.541233
     30          1           0       -3.283142   -0.750692   -2.276403
     31          6           0       -0.737061    2.010042   -3.236769
     32          1           0       -0.029878    2.787970   -3.508272
     33          6           0       -1.803035   -0.105988   -3.701422
     34          1           0       -1.921312   -0.983123   -4.330039
     35          6           0       -0.886791    0.886381   -4.050041
     36          1           0       -0.287878    0.783607   -4.949447
     37          7           0       -0.186082    0.039970    0.106461
     38          1           0       -0.524389   -0.640511   -0.571702
     39          6           0        1.148781    0.522865   -0.203068
     40          1           0        1.138721    1.614437   -0.259700
     41          6           0        1.500029   -0.091781   -1.566591
     42          6           0        2.175965    0.104198    0.865374
     43          1           0        2.328750   -0.980133    0.838037
     44          1           0        1.759358    0.362292    1.845850
     45          8           0        0.911413   -1.093798   -1.969709
     46          6           0        3.504480    0.840821    0.715097
     47          7           0        4.527474    0.350942    1.461370
     48          1           0        5.442321    0.748005    1.289667
     49          1           0        4.500578   -0.599742    1.801195
     50          8           0        3.623558    1.853929    0.026206
     51          7           0        2.490343    0.536845   -2.237531
     52          1           0        3.003330    1.243696   -1.710632
     53          6           0        3.194319   -0.147274   -3.300362
     54          1           0        2.461304   -0.743697   -3.852812
     55          6           0        4.192610   -1.132872   -2.686251
     56          6           0        3.866464    0.855202   -4.251124
     57          1           0        4.561250    1.482964   -3.676044
     58          1           0        4.469358    0.299587   -4.975733
     59          8           0        4.390334   -1.282915   -1.499512
     60          6           0        2.840878    1.734822   -4.969615
     61          1           0        2.191413    1.092487   -5.584001
     62          1           0        2.192331    2.225169   -4.236063
     63          6           0        3.499806    2.799353   -5.842227
     64          1           0        4.104896    3.476736   -5.235426
     65          1           0        4.188547    2.337401   -6.567056
     66          7           0        2.484644    3.609691   -6.504984
     67          1           0        1.863231    3.071310   -7.100132
     68          7           0        1.862640    5.357031   -7.886295
     69          1           0        2.055922    6.300376   -8.199780
     70          1           0        0.942904    5.290443   -7.462607
     71          7           0        4.079173    5.246963   -6.942877
     72          1           0        4.182176    6.175756   -7.354408
     73          6           0        2.889398    4.800254   -7.108324
     74          8           0        4.835497   -1.837126   -3.638400
     75          1           0        5.446405   -2.444973   -3.180443
 ---------------------------------------------------------------------

 SCF Done:  E(RB3LYP) =  -1917.50758266     A.U. after    3 cycles

 Alpha  occ. eigenvalues --  -19.27308 -19.26477 -19.25071 -19.20991 -19.20533
 Alpha  occ. eigenvalues --  -19.18981 -19.18925 -14.60171 -14.49184 -14.48965
 Alpha  occ. eigenvalues --  -14.43971 -14.42730 -14.42016 -14.38779 -14.38559
 Alpha  occ. eigenvalues --  -14.32264 -10.43741 -10.43284 -10.41413 -10.38746
 Alpha  occ. eigenvalues --  -10.37570 -10.36676 -10.36344 -10.35689 -10.33880
 Alpha  occ. eigenvalues --  -10.31737 -10.30880 -10.30249 -10.28552 -10.27378
 Alpha  occ. eigenvalues --  -10.27065 -10.25975 -10.25850 -10.25759 -10.25703
 Alpha  occ. eigenvalues --  -10.25547 -10.25531 -10.25415 -10.24104  -1.19806
 Alpha  occ. eigenvalues --   -1.17445  -1.17117  -1.14049  -1.12640  -1.11054
 Alpha  occ. eigenvalues --   -1.10543  -1.08407  -1.06068  -1.03989  -1.01424
 Alpha  occ. eigenvalues --   -1.00985  -0.99637  -0.97672  -0.94668  -0.92903
 Alpha  occ. eigenvalues --   -0.92776  -0.88806  -0.88037  -0.86808  -0.84838
 Alpha  occ. eigenvalues --   -0.84263  -0.81486  -0.81311  -0.80067  -0.76376
 Alpha  occ. eigenvalues --   -0.75198  -0.74884  -0.74369  -0.72447  -0.71808
 Alpha  occ. eigenvalues --   -0.70409  -0.69091  -0.67638  -0.67393  -0.66982
 Alpha  occ. eigenvalues --   -0.66400  -0.65640  -0.65547  -0.65359  -0.64492
 Alpha  occ. eigenvalues --   -0.63707  -0.62705  -0.61514  -0.60740  -0.60285
 Alpha  occ. eigenvalues --   -0.59691  -0.58454  -0.57863  -0.57485  -0.57088
 Alpha  occ. eigenvalues --   -0.56841  -0.56627  -0.56189  -0.55597  -0.55128
 Alpha  occ. eigenvalues --   -0.54518  -0.53921  -0.53795  -0.53079  -0.52891
 Alpha  occ. eigenvalues --   -0.52634  -0.52316  -0.52013  -0.51467  -0.51088
 Alpha  occ. eigenvalues --   -0.50965  -0.50266  -0.49679  -0.48840  -0.48615
 Alpha  occ. eigenvalues --   -0.48579  -0.48267  -0.47868  -0.47597  -0.47062
 Alpha  occ. eigenvalues --   -0.46340  -0.46033  -0.45927  -0.45184  -0.43360
 Alpha  occ. eigenvalues --   -0.42967  -0.42879  -0.42555  -0.42428  -0.42075
 Alpha  occ. eigenvalues --   -0.41543  -0.41216  -0.40927  -0.40051  -0.39761
 Alpha  occ. eigenvalues --   -0.39281  -0.39175  -0.38888  -0.38495  -0.35025
 Alpha  occ. eigenvalues --   -0.34749  -0.34526  -0.34439  -0.32918  -0.32647
 Alpha  occ. eigenvalues --   -0.32454  -0.31552  -0.31076  -0.30352  -0.29351
 Alpha  occ. eigenvalues --   -0.26847
 Alpha virt. eigenvalues --   -0.12538  -0.11857  -0.11093  -0.07525  -0.07455
 Alpha virt. eigenvalues --   -0.06947  -0.06571  -0.05842  -0.05219  -0.04897
 Alpha virt. eigenvalues --   -0.04551  -0.03189  -0.01744   0.00004   0.00784

 Mulliken charges:
               1
     1  N   -0.773165
     2  H    0.417939
     3  H    0.440574
     4  H    0.409146
     5  C   -0.091103
     6  H    0.248944
     7  C    0.632935
     8  C   -0.411802
     9  H    0.198721
    10  H    0.208374
    11  O   -0.554748
    12  C    0.637716
    13  N   -0.740118
    14  H    0.381221
    15  H    0.360494
    16  O   -0.494795
    17  N   -0.610023
    18  H    0.416439
    19  C   -0.061357
    20  H    0.186639
    21  C    0.617093
    22  C   -0.353767
    23  H    0.171650
    24  H    0.168623
    25  O   -0.546039
    26  C    0.152765
    27  C   -0.187162
    28  H    0.142918
    29  C   -0.198827
    30  H    0.130104
    31  C   -0.139050
    32  H    0.153837
    33  C   -0.104521
    34  H    0.146138
    35  C   -0.122664
    36  H    0.139976
    37  N   -0.615614
    38  H    0.369437
    39  C   -0.046542
    40  H    0.200379
    41  C    0.623817
    42  C   -0.372408
    43  H    0.178011
    44  H    0.199477
    45  O   -0.545543
    46  C    0.628986
    47  N   -0.732561
    48  H    0.353133
    49  H    0.346135
    50  O   -0.528645
    51  N   -0.608570
    52  H    0.380983
    53  C   -0.062113
    54  H    0.202847
    55  C    0.600657
    56  C   -0.292935
    57  H    0.155585
    58  H    0.176754
    59  O   -0.481655
    60  C   -0.284154
    61  H    0.128149
    62  H    0.162975
    63  C   -0.105325
    64  H    0.185540
    65  H    0.143651
    66  N   -0.613999
    67  H    0.313684
    68  N   -0.755725
    69  H    0.323529
    70  H    0.321619
    71  N   -0.642376
    72  H    0.269839
    73  C    0.588141
    74  O   -0.557920
    75  H    0.419648
 Sum of Mulliken charges =   1.00000

 Dipole moment (field-independent basis, Debye):
    X=            -16.7146    Y=             -1.9001    Z=             16.1831  Tot=             23.3427
 Quadrupole moment (field-independent basis, Debye-Ang):
   XX=            -89.8977   YY=           -215.1472   ZZ=            -91.5096
   XY=            -14.5129   XZ=            -80.1335   YZ=            -21.6028

 Normal termination of Gaussian 16 at Mon Jun 27 16:36:06 2022.
