 Gaussian 16, Revision C.01,
 Gaussian 16:  ES64L-G16RevC.01  3-Jul-2019

 ----------------------------------------------------------------------
 # B3LYP/6-31G* empiricaldispersion=gd3bj guess=read geom=check nosymm
 integral(ultrafinegrid)
 ----------------------------------------------------------------------

 ------------------------------------------------------
 Candidate Structure: Conf:669 Charge calc in gas phase
 ------------------------------------------------------
 Structure from the checkpoint file:  "conf-669.chk"
 Charge =  1 Multiplicity = 1

                          Input orientation:
 ---------------------------------------------------------------------
 Center     Atomic      Atomic             Coordinates (Angstroms)
 Number     Number       Type             X           Y           Z
 ---------------------------------------------------------------------
      1          7           0       -5.366937    2.344353    1.674355
      2          1           0       -5.596817    2.079467    0.702580
      3          1           0       -5.502177    1.504965    2.259172
      4          1           0       -5.927817    3.168296    2.004311
      5          6           0       -3.919867    2.731485    1.806373
      6          1           0       -3.668945    3.395235    0.976479
      7          6           0       -3.169465    1.388861    1.772778
      8          6           0       -3.711165    3.459099    3.139007
      9          1           0       -3.942920    2.775580    3.966359
     10          1           0       -2.651713    3.715318    3.213549
     11          8           0       -3.656894    0.444574    2.396991
     12          6           0       -4.601446    4.693942    3.254884
     13          7           0       -4.091912    5.749255    3.917020
     14          1           0       -4.685377    6.555275    4.070832
     15          1           0       -3.194266    5.721083    4.376937
     16          8           0       -5.742129    4.706891    2.775885
     17          7           0       -2.060301    1.370404    1.027466
     18          1           0       -1.806653    2.212828    0.490599
     19          6           0       -1.446137    0.134099    0.590180
     20          1           0       -1.625833   -0.619536    1.362191
     21          6           0        0.066743    0.370570    0.419009
     22          6           0       -2.082369   -0.339591   -0.765290
     23          1           0       -1.561257    0.164041   -1.586031
     24          1           0       -1.895745   -1.411855   -0.883129
     25          8           0        0.621124    1.413612    0.813077
     26          6           0       -3.560982   -0.047859   -0.866423
     27          6           0       -4.516182   -0.911650   -0.316246
     28          1           0       -4.191523   -1.823950    0.175515
     29          6           0       -3.999785    1.131413   -1.482215
     30          1           0       -3.271099    1.804900   -1.926180
     31          6           0       -5.875900   -0.609940   -0.383772
     32          1           0       -6.602143   -1.298950    0.036614
     33          6           0       -5.361343    1.442348   -1.555928
     34          1           0       -5.683599    2.345794   -2.066476
     35          6           0       -6.305924    0.567452   -1.005574
     36          1           0       -7.366661    0.788703   -1.084116
     37          7           0        0.703753   -0.591320   -0.256641
     38          1           0        0.283294   -1.519830   -0.365897
     39          6           0        2.121317   -0.529812   -0.617120
     40          1           0        2.673838   -0.103908    0.227185
     41          6           0        2.270329    0.394030   -1.863102
     42          6           0        2.653524   -1.927936   -0.981607
     43          1           0        3.744681   -1.905575   -0.918190
     44          1           0        2.404475   -2.102770   -2.034417
     45          8           0        2.403017   -0.058970   -2.990763
     46          6           0        2.058634   -3.077697   -0.183100
     47          7           0        2.935801   -3.935388    0.384587
     48          1           0        2.572676   -4.766245    0.833225
     49          1           0        3.931622   -3.866250    0.238533
     50          8           0        0.836296   -3.236202   -0.085808
     51          7           0        2.172824    1.719680   -1.586064
     52          1           0        2.082479    1.992659   -0.614525
     53          6           0        2.267371    2.740368   -2.611812
     54          1           0        2.053184    2.240665   -3.563640
     55          6           0        3.675947    3.323258   -2.763293
     56          6           0        1.252937    3.870238   -2.369795
     57          1           0        1.418123    4.262453   -1.355985
     58          1           0        1.491971    4.690667   -3.049916
     59          8           0        3.917248    4.312968   -3.414667
     60          6           0       -0.214302    3.431407   -2.546448
     61          1           0       -0.533663    3.607459   -3.578570
     62          1           0       -0.306064    2.349507   -2.374511
     63          6           0       -1.166402    4.157153   -1.589563
     64          1           0       -1.024877    5.242629   -1.626846
     65          1           0       -2.210755    3.964422   -1.857845
     66          7           0       -0.909639    3.667306   -0.226440
     67          1           0       -0.053174    3.127140   -0.157190
     68          7           0       -0.245894    4.162846    1.924124
     69          1           0       -0.396876    4.594330    2.822966
     70          1           0        0.160320    3.231361    1.930518
     71          7           0       -1.987995    5.422518    0.836174
     72          1           0       -2.015295    5.960879    1.703024
     73          6           0       -1.088565    4.503639    0.880446
     74          8           0        4.618235    2.609498   -2.113240
     75          1           0        5.470405    3.042177   -2.314371
 ---------------------------------------------------------------------

 SCF Done:  E(RB3LYP) =  -1917.54341870     A.U. after    1 cycles

 Alpha  occ. eigenvalues --  -19.27483 -19.25539 -19.24136 -19.23812 -19.21467
 Alpha  occ. eigenvalues --  -19.21384 -19.20600 -14.55752 -14.49160 -14.47235
 Alpha  occ. eigenvalues --  -14.46520 -14.45486 -14.44844 -14.44843 -14.44681
 Alpha  occ. eigenvalues --  -14.38524 -10.43130 -10.41271 -10.40508 -10.39699
 Alpha  occ. eigenvalues --  -10.39130 -10.38403 -10.38304 -10.37745 -10.35026
 Alpha  occ. eigenvalues --  -10.34120 -10.34024 -10.32386 -10.31014 -10.30585
 Alpha  occ. eigenvalues --  -10.30412 -10.30116 -10.29959 -10.29935 -10.29646
 Alpha  occ. eigenvalues --  -10.29499 -10.29267 -10.28187 -10.27971  -1.18339
 Alpha  occ. eigenvalues --   -1.17464  -1.16465  -1.15214  -1.13121  -1.12560
 Alpha  occ. eigenvalues --   -1.10728  -1.09249  -1.07931  -1.04867  -1.04054
 Alpha  occ. eigenvalues --   -1.03592  -1.01724  -1.00206  -0.98647  -0.96543
 Alpha  occ. eigenvalues --   -0.94384  -0.92524  -0.90440  -0.88798  -0.87753
 Alpha  occ. eigenvalues --   -0.85233  -0.84983  -0.83563  -0.81044  -0.78289
 Alpha  occ. eigenvalues --   -0.76762  -0.75939  -0.73392  -0.71610  -0.71564
 Alpha  occ. eigenvalues --   -0.71087  -0.70580  -0.70148  -0.69363  -0.69003
 Alpha  occ. eigenvalues --   -0.68715  -0.68654  -0.67870  -0.67416  -0.66917
 Alpha  occ. eigenvalues --   -0.64769  -0.63549  -0.63286  -0.62744  -0.62159
 Alpha  occ. eigenvalues --   -0.61750  -0.61432  -0.61253  -0.60035  -0.59016
 Alpha  occ. eigenvalues --   -0.58660  -0.58100  -0.57005  -0.56602  -0.56319
 Alpha  occ. eigenvalues --   -0.56165  -0.55969  -0.55790  -0.55475  -0.54978
 Alpha  occ. eigenvalues --   -0.54684  -0.54337  -0.53910  -0.53146  -0.52708
 Alpha  occ. eigenvalues --   -0.52575  -0.52014  -0.51856  -0.51406  -0.51182
 Alpha  occ. eigenvalues --   -0.50809  -0.50237  -0.50032  -0.49466  -0.49297
 Alpha  occ. eigenvalues --   -0.48842  -0.48446  -0.48268  -0.47462  -0.47225
 Alpha  occ. eigenvalues --   -0.47021  -0.46502  -0.45811  -0.45026  -0.44629
 Alpha  occ. eigenvalues --   -0.44460  -0.43620  -0.43490  -0.43173  -0.40391
 Alpha  occ. eigenvalues --   -0.39750  -0.39299  -0.38779  -0.38405  -0.38059
 Alpha  occ. eigenvalues --   -0.37784  -0.37121  -0.36589  -0.36392  -0.35780
 Alpha  occ. eigenvalues --   -0.35548  -0.35360  -0.35229  -0.33565  -0.33115
 Alpha  occ. eigenvalues --   -0.32828
 Alpha virt. eigenvalues --   -0.12315  -0.11460  -0.11285  -0.09993  -0.09656
 Alpha virt. eigenvalues --   -0.07531  -0.07398  -0.06804  -0.06253  -0.04672
 Alpha virt. eigenvalues --   -0.03794  -0.03332  -0.01799  -0.01639  -0.01193

 Mulliken charges:
               1
     1  N   -0.767303
     2  H    0.409878
     3  H    0.404171
     4  H    0.434798
     5  C   -0.131537
     6  H    0.234043
     7  C    0.637340
     8  C   -0.392169
     9  H    0.217865
    10  H    0.179662
    11  O   -0.539597
    12  C    0.659374
    13  N   -0.735807
    14  H    0.378340
    15  H    0.357665
    16  O   -0.534025
    17  N   -0.626316
    18  H    0.413170
    19  C   -0.071230
    20  H    0.219410
    21  C    0.629853
    22  C   -0.394114
    23  H    0.178482
    24  H    0.191603
    25  O   -0.580267
    26  C    0.165408
    27  C   -0.150117
    28  H    0.158872
    29  C   -0.192988
    30  H    0.153287
    31  C   -0.134487
    32  H    0.164177
    33  C   -0.185072
    34  H    0.163100
    35  C   -0.174957
    36  H    0.163796
    37  N   -0.618205
    38  H    0.399406
    39  C   -0.059785
    40  H    0.184426
    41  C    0.631037
    42  C   -0.408863
    43  H    0.171063
    44  H    0.236193
    45  O   -0.501343
    46  C    0.625456
    47  N   -0.738182
    48  H    0.361607
    49  H    0.356869
    50  O   -0.539151
    51  N   -0.613720
    52  H    0.355705
    53  C   -0.066214
    54  H    0.220892
    55  C    0.599372
    56  C   -0.297884
    57  H    0.145348
    58  H    0.202614
    59  O   -0.448687
    60  C   -0.320866
    61  H    0.173628
    62  H    0.149666
    63  C   -0.103834
    64  H    0.185908
    65  H    0.149911
    66  N   -0.683472
    67  H    0.367117
    68  N   -0.787918
    69  H    0.323070
    70  H    0.374537
    71  N   -0.651325
    72  H    0.267253
    73  C    0.594624
    74  O   -0.563154
    75  H    0.422597
 Sum of Mulliken charges =   1.00000

 Dipole moment (field-independent basis, Debye):
    X=             -8.7618    Y=              7.8816    Z=              8.8869  Tot=             14.7602
 Quadrupole moment (field-independent basis, Debye-Ang):
   XX=           -125.7143   YY=           -165.1274   ZZ=           -198.7415
   XY=            -50.7216   XZ=            -17.8010   YZ=             40.7226

 Normal termination of Gaussian 16 at Mon Jun 27 16:35:33 2022.
