 Gaussian 16, Revision C.01,
 Gaussian 16:  ES64L-G16RevC.01  3-Jul-2019

 ----------------------------------------------------------------------
 # B3LYP/6-31G* empiricaldispersion=gd3bj guess=read geom=check nosymm
 integral(ultrafinegrid)
 ----------------------------------------------------------------------

 ------------------------------------------------------
 Candidate Structure: Conf:123 Charge calc in gas phase
 ------------------------------------------------------
 Structure from the checkpoint file:  "conf-123.chk"
 Charge =  1 Multiplicity = 1

                          Input orientation:
 ---------------------------------------------------------------------
 Center     Atomic      Atomic             Coordinates (Angstroms)
 Number     Number       Type             X           Y           Z
 ---------------------------------------------------------------------
      1          7           0       -4.252290   -2.021816    3.273769
      2          1           0       -5.262461   -1.874988    3.192762
      3          1           0       -3.954433   -2.644706    2.504159
      4          1           0       -3.995514   -2.385582    4.240310
      5          6           0       -3.466450   -0.751144    3.120145
      6          1           0       -3.998419    0.039913    3.653221
      7          6           0       -3.280894   -0.502970    1.619889
      8          6           0       -2.057293   -0.981221    3.678465
      9          1           0       -1.558632   -1.731727    3.052692
     10          1           0       -1.468823   -0.069442    3.568608
     11          8           0       -3.154722   -1.487221    0.889401
     12          6           0       -2.041535   -1.487690    5.114233
     13          7           0       -0.920240   -1.225189    5.795348
     14          1           0       -0.837046   -1.548743    6.751333
     15          1           0       -0.150862   -0.725354    5.343965
     16          8           0       -3.000926   -2.134865    5.570455
     17          7           0       -3.116768    0.775734    1.261549
     18          1           0       -3.255148    1.503127    1.952728
     19          6           0       -2.483928    1.181189    0.000439
     20          1           0       -2.623771    0.346520   -0.691399
     21          6           0       -0.979435    1.373967    0.296758
     22          6           0       -3.145491    2.448377   -0.547183
     23          1           0       -2.962840    3.267142    0.158265
     24          1           0       -2.635273    2.733060   -1.472877
     25          8           0       -0.450052    2.478817    0.305311
     26          6           0       -4.626645    2.248141   -0.761721
     27          6           0       -5.090200    1.470357   -1.829772
     28          1           0       -4.378956    1.048543   -2.536433
     29          6           0       -5.558198    2.797839    0.125109
     30          1           0       -5.212567    3.424029    0.945616
     31          6           0       -6.454444    1.244752   -2.004876
     32          1           0       -6.799373    0.647516   -2.843700
     33          6           0       -6.925605    2.577313   -0.047911
     34          1           0       -7.637278    3.024417    0.640259
     35          6           0       -7.376198    1.796776   -1.112497
     36          1           0       -8.439616    1.629624   -1.254806
     37          7           0       -0.314043    0.231083    0.655239
     38          1           0       -0.672509   -0.636708    0.268728
     39          6           0        1.138123    0.301207    0.822993
     40          1           0        1.347543    1.170360    1.447937
     41          6           0        1.781269    0.407801   -0.572761
     42          6           0        1.678292   -0.966944    1.485595
     43          1           0        2.771533   -0.879961    1.541438
     44          1           0        1.470888   -1.826960    0.838940
     45          8           0        1.464123   -0.408433   -1.433651
     46          6           0        1.174284   -1.206875    2.899294
     47          7           0        1.046063   -2.518558    3.243969
     48          1           0        0.905515   -2.748501    4.219707
     49          1           0        1.423230   -3.247821    2.653914
     50          8           0        0.888489   -0.293496    3.676772
     51          7           0        2.688661    1.393434   -0.734349
     52          1           0        2.809827    2.085469   -0.007303
     53          6           0        3.350702    1.629042   -2.011071
     54          1           0        3.266554    0.701848   -2.581319
     55          6           0        4.830034    1.929423   -1.831046
     56          6           0        2.703511    2.782911   -2.807836
     57          1           0        2.838331    3.724801   -2.262498
     58          1           0        3.253955    2.875896   -3.751544
     59          8           0        5.653264    1.816952   -2.705588
     60          6           0        1.213517    2.572409   -3.074815
     61          1           0        1.055332    1.644134   -3.637951
     62          1           0        0.685617    2.454500   -2.122282
     63          6           0        0.594802    3.742410   -3.849363
     64          1           0        1.071929    3.814638   -4.833238
     65          1           0       -0.469562    3.545051   -4.019132
     66          7           0        0.769481    5.034809   -3.175918
     67          1           0        1.254675    5.732737   -3.726384
     68          7           0       -1.067437    4.764249   -1.752192
     69          1           0       -1.749728    5.248709   -1.180776
     70          1           0       -0.548546    4.095459   -1.189168
     71          7           0       -0.439144    6.919603   -2.630869
     72          1           0       -1.147557    7.272599   -1.985164
     73          6           0       -0.278024    5.653959   -2.500238
     74          8           0        5.112820    2.414155   -0.594855
     75          1           0        6.062573    2.640316   -0.597408
 ---------------------------------------------------------------------

 SCF Done:  E(RB3LYP) =  -1917.51403280     A.U. after    3 cycles

 Alpha  occ. eigenvalues --  -19.27611 -19.27230 -19.27015 -19.25306 -19.24397
 Alpha  occ. eigenvalues --  -19.21380 -19.20682 -14.59241 -14.51327 -14.49357
 Alpha  occ. eigenvalues --  -14.49143 -14.47790 -14.45559 -14.39980 -14.39212
 Alpha  occ. eigenvalues --  -14.33211 -10.44408 -10.44210 -10.42649 -10.41666
 Alpha  occ. eigenvalues --  -10.40955 -10.39639 -10.38109 -10.35813 -10.35251
 Alpha  occ. eigenvalues --  -10.34634 -10.32746 -10.32151 -10.31654 -10.29259
 Alpha  occ. eigenvalues --  -10.28488 -10.27672 -10.27597 -10.27329 -10.27302
 Alpha  occ. eigenvalues --  -10.27177 -10.27033 -10.25993 -10.24864  -1.19768
 Alpha  occ. eigenvalues --   -1.18405  -1.18254  -1.16789  -1.16136  -1.13839
 Alpha  occ. eigenvalues --   -1.12838  -1.09254  -1.07933  -1.04849  -1.04128
 Alpha  occ. eigenvalues --   -1.03805  -1.02348  -1.02027  -0.95206  -0.94107
 Alpha  occ. eigenvalues --   -0.93711  -0.91028  -0.89392  -0.89295  -0.86873
 Alpha  occ. eigenvalues --   -0.84642  -0.82830  -0.82611  -0.81797  -0.79287
 Alpha  occ. eigenvalues --   -0.76081  -0.74818  -0.74397  -0.74020  -0.73900
 Alpha  occ. eigenvalues --   -0.71773  -0.71322  -0.70606  -0.68961  -0.68930
 Alpha  occ. eigenvalues --   -0.68286  -0.67797  -0.67666  -0.67205  -0.66816
 Alpha  occ. eigenvalues --   -0.65420  -0.64475  -0.64167  -0.63327  -0.62476
 Alpha  occ. eigenvalues --   -0.61208  -0.60778  -0.60548  -0.59465  -0.58645
 Alpha  occ. eigenvalues --   -0.58224  -0.57988  -0.57779  -0.57547  -0.56503
 Alpha  occ. eigenvalues --   -0.56021  -0.55571  -0.55148  -0.54823  -0.54634
 Alpha  occ. eigenvalues --   -0.54233  -0.54044  -0.53864  -0.53517  -0.52789
 Alpha  occ. eigenvalues --   -0.52322  -0.52085  -0.51470  -0.51187  -0.50907
 Alpha  occ. eigenvalues --   -0.50356  -0.49988  -0.49855  -0.49203  -0.49012
 Alpha  occ. eigenvalues --   -0.48771  -0.48298  -0.47847  -0.47072  -0.46807
 Alpha  occ. eigenvalues --   -0.46134  -0.45241  -0.44199  -0.43956  -0.42667
 Alpha  occ. eigenvalues --   -0.42449  -0.41968  -0.41613  -0.41345  -0.41217
 Alpha  occ. eigenvalues --   -0.41084  -0.40971  -0.40671  -0.40246  -0.39404
 Alpha  occ. eigenvalues --   -0.38983  -0.38633  -0.36931  -0.36400  -0.34659
 Alpha  occ. eigenvalues --   -0.33414  -0.33202  -0.32928  -0.32005  -0.30468
 Alpha  occ. eigenvalues --   -0.27293
 Alpha virt. eigenvalues --   -0.14511  -0.12458  -0.10925  -0.10172  -0.09482
 Alpha virt. eigenvalues --   -0.08690  -0.08547  -0.07262  -0.06453  -0.06171
 Alpha virt. eigenvalues --   -0.05120  -0.03831  -0.02023  -0.01798  -0.01503

 Mulliken charges:
               1
     1  N   -0.747274
     2  H    0.412776
     3  H    0.412456
     4  H    0.444531
     5  C   -0.128874
     6  H    0.209836
     7  C    0.657055
     8  C   -0.410697
     9  H    0.214965
    10  H    0.235214
    11  O   -0.532317
    12  C    0.632921
    13  N   -0.758163
    14  H    0.370796
    15  H    0.399313
    16  O   -0.548169
    17  N   -0.574621
    18  H    0.350766
    19  C   -0.090218
    20  H    0.213277
    21  C    0.643157
    22  C   -0.403775
    23  H    0.155203
    24  H    0.215413
    25  O   -0.512082
    26  C    0.186912
    27  C   -0.180915
    28  H    0.137259
    29  C   -0.203175
    30  H    0.117314
    31  C   -0.128877
    32  H    0.151002
    33  C   -0.131500
    34  H    0.144237
    35  C   -0.130664
    36  H    0.149798
    37  N   -0.604011
    38  H    0.353069
    39  C   -0.052631
    40  H    0.192306
    41  C    0.635738
    42  C   -0.409013
    43  H    0.216558
    44  H    0.188174
    45  O   -0.538838
    46  C    0.627226
    47  N   -0.746026
    48  H    0.352945
    49  H    0.364554
    50  O   -0.534445
    51  N   -0.593133
    52  H    0.353256
    53  C   -0.067422
    54  H    0.212972
    55  C    0.593050
    56  C   -0.269946
    57  H    0.163923
    58  H    0.171278
    59  O   -0.442656
    60  C   -0.270088
    61  H    0.151177
    62  H    0.135008
    63  C   -0.149291
    64  H    0.153451
    65  H    0.161492
    66  N   -0.576304
    67  H    0.337193
    68  N   -0.778408
    69  H    0.314400
    70  H    0.363683
    71  N   -0.627022
    72  H    0.263670
    73  C    0.539517
    74  O   -0.582554
    75  H    0.424269
 Sum of Mulliken charges =   1.00000

 Dipole moment (field-independent basis, Debye):
    X=            -10.7503    Y=             -6.5345    Z=             16.4193  Tot=             20.6848
 Quadrupole moment (field-independent basis, Debye-Ang):
   XX=           -139.9438   YY=           -223.6610   ZZ=           -172.4724
   XY=              7.0848   XZ=            -20.4085   YZ=            -13.5351

 Normal termination of Gaussian 16 at Mon Jun 27 16:18:09 2022.
