 Gaussian 16, Revision C.01,
 Gaussian 16:  ES64L-G16RevC.01  3-Jul-2019

 ----------------------------------------------------------------------
 # B3LYP/6-31G* empiricaldispersion=gd3bj guess=read geom=check nosymm
 integral(ultrafinegrid)
 ----------------------------------------------------------------------

 ------------------------------------------------------
 Candidate Structure: Conf:772 Charge calc in gas phase
 ------------------------------------------------------
 Structure from the checkpoint file:  "conf-772.chk"
 Charge =  1 Multiplicity = 1

                          Input orientation:
 ---------------------------------------------------------------------
 Center     Atomic      Atomic             Coordinates (Angstroms)
 Number     Number       Type             X           Y           Z
 ---------------------------------------------------------------------
      1          7           0       -5.363266   -2.005720   -2.829625
      2          1           0       -5.726658   -1.092180   -2.485463
      3          1           0       -4.989183   -1.830336   -3.831067
      4          1           0       -6.086435   -2.725310   -2.798117
      5          6           0       -4.163936   -2.303212   -1.970847
      6          1           0       -4.354344   -3.219689   -1.407117
      7          6           0       -4.057323   -1.094572   -1.009829
      8          6           0       -2.891553   -2.483145   -2.838771
      9          1           0       -2.003524   -2.392822   -2.209050
     10          1           0       -2.890079   -3.495129   -3.259127
     11          8           0       -4.704310   -0.080022   -1.255523
     12          6           0       -2.826125   -1.522469   -4.028038
     13          7           0       -1.666616   -0.918356   -4.260384
     14          1           0       -1.608896   -0.315463   -5.072619
     15          1           0       -0.859926   -0.987572   -3.627638
     16          8           0       -3.831464   -1.380492   -4.756099
     17          7           0       -3.229259   -1.243598    0.038724
     18          1           0       -2.797410   -2.143377    0.209348
     19          6           0       -2.901167   -0.133720    0.943397
     20          1           0       -3.812520    0.435897    1.131063
     21          6           0       -1.905044    0.851985    0.311837
     22          6           0       -2.335659   -0.721067    2.261351
     23          1           0       -3.163884   -1.187343    2.808347
     24          1           0       -1.626470   -1.520246    2.007011
     25          8           0       -1.942246    2.044651    0.572867
     26          6           0       -1.620198    0.300642    3.116322
     27          6           0       -0.234100    0.226779    3.280907
     28          1           0        0.316927   -0.597782    2.835018
     29          6           0       -2.317102    1.361274    3.707055
     30          1           0       -3.394553    1.434334    3.586097
     31          6           0        0.450978    1.200779    4.012127
     32          1           0        1.526455    1.119893    4.143421
     33          6           0       -1.638624    2.336258    4.433216
     34          1           0       -2.191380    3.155633    4.882286
     35          6           0       -0.251011    2.261969    4.584357
     36          1           0        0.274604    3.017079    5.161600
     37          7           0       -0.946258    0.283817   -0.459567
     38          1           0       -0.947579   -0.696474   -0.704329
     39          6           0        0.173111    1.046003   -0.960618
     40          1           0       -0.200196    1.975175   -1.405309
     41          6           0        0.840915    0.191483   -2.044982
     42          6           0        1.158300    1.396587    0.190193
     43          1           0        1.922730    0.614637    0.271240
     44          1           0        0.593709    1.416984    1.121800
     45          8           0        0.381098   -0.931268   -2.348039
     46          6           0        1.859173    2.724114   -0.033292
     47          7           0        1.894007    3.550705    1.032223
     48          1           0        2.327714    4.458547    0.927131
     49          1           0        1.361906    3.360085    1.869827
     50          8           0        2.376710    3.018541   -1.117456
     51          7           0        1.933991    0.718085   -2.594478
     52          1           0        2.265448    1.610513   -2.191942
     53          6           0        2.871009   -0.097863   -3.342475
     54          1           0        2.338967   -0.634975   -4.134364
     55          6           0        3.476408   -1.145542   -2.401707
     56          6           0        3.970920    0.782483   -3.957526
     57          1           0        4.501019    1.299513   -3.146550
     58          1           0        4.698149    0.124208   -4.442837
     59          8           0        3.369075   -1.152738   -1.195998
     60          6           0        3.432462    1.806104   -4.960729
     61          1           0        2.896366    1.276448   -5.763024
     62          1           0        2.706721    2.472208   -4.480508
     63          6           0        4.562675    2.648510   -5.550401
     64          1           0        5.075966    3.206444   -4.764007
     65          1           0        5.323639    2.000542   -6.013945
     66          7           0        4.038071    3.625616   -6.494154
     67          1           0        3.533175    3.211630   -7.271159
     68          7           0        4.328635    5.391345   -7.958571
     69          1           0        4.838769    6.238161   -8.178174
     70          1           0        3.336730    5.575896   -7.849431
     71          7           0        6.036362    4.808857   -6.357961
     72          1           0        6.487697    5.662900   -6.688682
     73          6           0        4.889241    4.651732   -6.907014
     74          8           0        4.176947   -2.062281   -3.095954
     75          1           0        4.572916   -2.674235   -2.446699
 ---------------------------------------------------------------------

 SCF Done:  E(RB3LYP) =  -1917.52236619     A.U. after    1 cycles

 Alpha  occ. eigenvalues --  -19.28276 -19.27180 -19.25990 -19.23263 -19.22758
 Alpha  occ. eigenvalues --  -19.21035 -19.20955 -14.56854 -14.51057 -14.48046
 Alpha  occ. eigenvalues --  -14.45818 -14.45072 -14.44781 -14.39404 -14.39342
 Alpha  occ. eigenvalues --  -14.32971 -10.44155 -10.43369 -10.41396 -10.40640
 Alpha  occ. eigenvalues --  -10.39611 -10.38445 -10.38361 -10.35613 -10.35011
 Alpha  occ. eigenvalues --  -10.33741 -10.32805 -10.32442 -10.30752 -10.28638
 Alpha  occ. eigenvalues --  -10.28616 -10.27558 -10.27396 -10.27280 -10.27269
 Alpha  occ. eigenvalues --  -10.27209 -10.27063 -10.26591 -10.25631  -1.19604
 Alpha  occ. eigenvalues --   -1.19280  -1.17646  -1.14718  -1.13178  -1.12553
 Alpha  occ. eigenvalues --   -1.11801  -1.10298  -1.07431  -1.03786  -1.02790
 Alpha  occ. eigenvalues --   -1.02471  -1.02157  -0.99615  -0.94729  -0.93768
 Alpha  occ. eigenvalues --   -0.93580  -0.90153  -0.89089  -0.88604  -0.86525
 Alpha  occ. eigenvalues --   -0.84337  -0.82805  -0.81888  -0.81806  -0.78564
 Alpha  occ. eigenvalues --   -0.75901  -0.74130  -0.74010  -0.73430  -0.73320
 Alpha  occ. eigenvalues --   -0.71098  -0.69698  -0.69321  -0.68905  -0.68384
 Alpha  occ. eigenvalues --   -0.67196  -0.67006  -0.66876  -0.66260  -0.65574
 Alpha  occ. eigenvalues --   -0.63633  -0.63289  -0.62954  -0.62467  -0.61702
 Alpha  occ. eigenvalues --   -0.60115  -0.59688  -0.59620  -0.58646  -0.58569
 Alpha  occ. eigenvalues --   -0.58296  -0.57837  -0.57326  -0.56416  -0.55974
 Alpha  occ. eigenvalues --   -0.55529  -0.55120  -0.54713  -0.54352  -0.54250
 Alpha  occ. eigenvalues --   -0.54069  -0.53656  -0.53354  -0.53069  -0.52748
 Alpha  occ. eigenvalues --   -0.52159  -0.51519  -0.50913  -0.50321  -0.50244
 Alpha  occ. eigenvalues --   -0.49899  -0.49608  -0.49500  -0.49203  -0.48670
 Alpha  occ. eigenvalues --   -0.47998  -0.47947  -0.47185  -0.46817  -0.46623
 Alpha  occ. eigenvalues --   -0.44560  -0.44345  -0.44044  -0.43377  -0.42988
 Alpha  occ. eigenvalues --   -0.42884  -0.42406  -0.41369  -0.41265  -0.41030
 Alpha  occ. eigenvalues --   -0.40650  -0.40263  -0.40126  -0.40015  -0.37616
 Alpha  occ. eigenvalues --   -0.37033  -0.36252  -0.35751  -0.35559  -0.34693
 Alpha  occ. eigenvalues --   -0.34376  -0.33211  -0.32654  -0.31077  -0.30055
 Alpha  occ. eigenvalues --   -0.27593
 Alpha virt. eigenvalues --   -0.13191  -0.11834  -0.09390  -0.09147  -0.08687
 Alpha virt. eigenvalues --   -0.08588  -0.07864  -0.07510  -0.06464  -0.06337
 Alpha virt. eigenvalues --   -0.04086  -0.01324  -0.00720  -0.00484  -0.00390

 Mulliken charges:
               1
     1  N   -0.778075
     2  H    0.424279
     3  H    0.452407
     4  H    0.401901
     5  C   -0.110572
     6  H    0.209195
     7  C    0.644991
     8  C   -0.395758
     9  H    0.204053
    10  H    0.222822
    11  O   -0.497270
    12  C    0.633224
    13  N   -0.763845
    14  H    0.366559
    15  H    0.428704
    16  O   -0.555093
    17  N   -0.627222
    18  H    0.346276
    19  C   -0.044687
    20  H    0.211023
    21  C    0.647165
    22  C   -0.390410
    23  H    0.183869
    24  H    0.142186
    25  O   -0.509806
    26  C    0.166675
    27  C   -0.196266
    28  H    0.134045
    29  C   -0.146961
    30  H    0.138216
    31  C   -0.145206
    32  H    0.149437
    33  C   -0.123781
    34  H    0.153968
    35  C   -0.138345
    36  H    0.150578
    37  N   -0.633892
    38  H    0.335703
    39  C   -0.028710
    40  H    0.211081
    41  C    0.617082
    42  C   -0.420993
    43  H    0.215839
    44  H    0.200062
    45  O   -0.606850
    46  C    0.639107
    47  N   -0.738990
    48  H    0.360854
    49  H    0.361949
    50  O   -0.536073
    51  N   -0.610542
    52  H    0.416082
    53  C   -0.037124
    54  H    0.178688
    55  C    0.601925
    56  C   -0.308917
    57  H    0.169446
    58  H    0.180284
    59  O   -0.467300
    60  C   -0.277030
    61  H    0.123074
    62  H    0.162129
    63  C   -0.102976
    64  H    0.189328
    65  H    0.143332
    66  N   -0.611760
    67  H    0.313630
    68  N   -0.756210
    69  H    0.325130
    70  H    0.323461
    71  N   -0.643112
    72  H    0.271628
    73  C    0.588628
    74  O   -0.560198
    75  H    0.423956
 Sum of Mulliken charges =   1.00000

 Dipole moment (field-independent basis, Debye):
    X=            -11.2433    Y=             -6.2033    Z=             -7.1659  Tot=             14.7052
 Quadrupole moment (field-independent basis, Debye-Ang):
   XX=           -155.9134   YY=           -167.9817   ZZ=           -160.7736
   XY=             46.3662   XZ=             20.3207   YZ=              9.6846

 Normal termination of Gaussian 16 at Mon Jun 27 16:35:25 2022.
