 Gaussian 16, Revision C.01,
 Gaussian 16:  ES64L-G16RevC.01  3-Jul-2019

 -------------------------------------------------------------------
 # B3LYP/6-31G* guess=read geom=check nosymm integral(ultrafinegrid)
 -------------------------------------------------------------------

 -----------------------------------------------------
 Candidate Structure: Conf:81 Charge calc in gas phase
 -----------------------------------------------------
 Structure from the checkpoint file:  "conf-81.chk"
 Charge =  1 Multiplicity = 1

                          Input orientation:
 ---------------------------------------------------------------------
 Center     Atomic      Atomic             Coordinates (Angstroms)
 Number     Number       Type             X           Y           Z
 ---------------------------------------------------------------------
      1          7           0       -3.554853   -1.195157    1.949471
      2          1           0       -4.328004   -1.699626    1.510388
      3          1           0       -3.290498   -0.355434    1.349445
      4          1           0       -2.727446   -1.808913    2.058022
      5          6           0       -3.880364   -0.684045    3.315922
      6          1           0       -4.306370    0.316816    3.220903
      7          1           0       -4.591384   -1.358076    3.800509
      8          6           0       -2.543697   -0.671666    4.080310
      9          8           0       -1.609688   -1.352623    3.659405
     10          7           0       -2.540999    0.086183    5.198657
     11          1           0       -3.247477    0.821251    5.215174
     12          6           0       -1.287494    0.428984    5.885277
     13          1           0       -0.548730   -0.342000    5.672159
     14          1           0       -1.465243    0.481206    6.963794
     15          6           0       -0.847418    1.768011    5.282979
     16          8           0       -0.132599    1.814734    4.282117
     17          7           0       -1.450957    2.871504    5.810736
     18          1           0       -2.096162    2.721752    6.575560
     19          6           0       -1.760095    3.992771    4.932746
     20          1           0       -2.251911    4.771345    5.522424
     21          1           0       -0.841450    4.412575    4.518443
     22          6           0       -2.699075    3.504477    3.807249
     23          8           0       -3.502018    2.585563    4.012581
     24          7           0       -2.560684    4.124098    2.618181
     25          1           0       -1.716445    4.678801    2.456690
     26          6           0       -3.186833    3.556220    1.427907
     27          1           0       -4.245910    3.373169    1.607580
     28          1           0       -3.079806    4.274989    0.610975
     29          6           0       -2.538524    2.210755    1.052165
     30          8           0       -3.242023    1.191470    0.901996
     31          7           0       -1.207150    2.221993    0.944952
     32          1           0       -0.713135    3.116440    1.021516
     33          6           0       -0.404692    1.008899    0.800415
     34          1           0       -0.559597    0.560080   -0.187059
     35          1           0       -0.695334    0.282958    1.566985
     36          6           0        1.069339    1.410969    0.916069
     37          8           0        1.586591    2.121964    0.061844
     38          7           0        1.725999    0.968083    2.022029
     39          1           0        1.178353    0.596601    2.789112
     40          6           0        3.079736    1.443859    2.293548
     41          1           0        3.432922    0.961537    3.209705
     42          1           0        3.746699    1.165402    1.475882
     43          6           0        3.180221    2.976101    2.422109
     44          8           0        4.124395    3.594694    1.959814
     45          7           0        2.148954    3.580265    3.101574
     46          1           0        1.342436    3.021603    3.362659
     47          6           0        1.918809    5.005114    2.902030
     48          1           0        1.326604    5.404078    3.729840
     49          1           0        2.885338    5.510642    2.877880
     50          6           0        1.142274    5.171224    1.593805
     51          8           0       -0.079235    4.887740    1.536495
     52          7           0        1.849786    5.522460    0.524834
     53          1           0        2.858743    5.664674    0.575730
     54          6           0        1.324762    5.505172   -0.826098
     55          1           0        0.429028    6.132094   -0.897071
     56          1           0        1.048058    4.480616   -1.106633
     57          6           0        2.435370    6.026070   -1.750250
     58          8           0        3.548041    6.301281   -1.308231
     59          7           0        2.092220    6.145142   -3.047822
     60          1           0        1.182909    5.869822   -3.408825
     61          6           0        3.034530    6.560875   -4.062072
     62          1           0        3.930828    5.926816   -4.044436
     63          1           0        3.370269    7.591635   -3.888639
     64          6           0        2.328219    6.451528   -5.418300
     65          8           0        1.170373    6.049833   -5.499996
     66          7           0        3.071646    6.841220   -6.485093
     67          1           0        4.045680    7.076520   -6.347940
     68          6           0        2.595553    6.706333   -7.848193
     69          1           0        2.440914    7.688571   -8.314724
     70          1           0        1.624007    6.209040   -7.817933
     71          6           0        3.516328    5.918642   -8.769014
     72          8           0        3.203096    5.555800   -9.875805
     73          8           0        4.741730    5.713245   -8.227781
     74          1           0        5.265642    5.236805   -8.900031
 ---------------------------------------------------------------------

 SCF Done:  E(RB3LYP) =  -2156.94744306     A.U. after    2 cycles

 Alpha  occ. eigenvalues --  -19.26898 -19.26588 -19.25595 -19.24750 -19.24072
 Alpha  occ. eigenvalues --  -19.21980 -19.21285 -19.20299 -19.19560 -19.19209
 Alpha  occ. eigenvalues --  -19.19088 -14.57445 -14.50192 -14.49184 -14.47573
 Alpha  occ. eigenvalues --  -14.47151 -14.45908 -14.45312 -14.44015 -14.43873
 Alpha  occ. eigenvalues --  -14.43241 -10.43884 -10.42305 -10.41109 -10.40806
 Alpha  occ. eigenvalues --  -10.38912 -10.38872 -10.38691 -10.38496 -10.36885
 Alpha  occ. eigenvalues --  -10.36578 -10.36481 -10.35915 -10.35228 -10.33924
 Alpha  occ. eigenvalues --  -10.33693 -10.31615 -10.31275 -10.31025 -10.30488
 Alpha  occ. eigenvalues --  -10.30397  -1.18946  -1.17224  -1.17210  -1.15973
 Alpha  occ. eigenvalues --   -1.15121  -1.13452  -1.12995  -1.12094  -1.11734
 Alpha  occ. eigenvalues --   -1.11100  -1.10837  -1.08228  -1.06923  -1.05159
 Alpha  occ. eigenvalues --   -1.04670  -1.02989  -1.02058  -1.01483  -1.00344
 Alpha  occ. eigenvalues --   -0.99833  -0.99667  -0.90105  -0.87874  -0.85970
 Alpha  occ. eigenvalues --   -0.84983  -0.83911  -0.83058  -0.81564  -0.80211
 Alpha  occ. eigenvalues --   -0.78636  -0.76587  -0.72979  -0.72730  -0.72279
 Alpha  occ. eigenvalues --   -0.71690  -0.70354  -0.69265  -0.68985  -0.68767
 Alpha  occ. eigenvalues --   -0.68208  -0.67031  -0.66892  -0.66087  -0.65771
 Alpha  occ. eigenvalues --   -0.65173  -0.64085  -0.63089  -0.62904  -0.61780
 Alpha  occ. eigenvalues --   -0.61385  -0.61155  -0.60467  -0.59606  -0.59163
 Alpha  occ. eigenvalues --   -0.58493  -0.58083  -0.57447  -0.57324  -0.56989
 Alpha  occ. eigenvalues --   -0.56539  -0.56044  -0.55543  -0.55469  -0.54775
 Alpha  occ. eigenvalues --   -0.54633  -0.54429  -0.54074  -0.53919  -0.53584
 Alpha  occ. eigenvalues --   -0.53333  -0.53119  -0.52539  -0.52419  -0.51980
 Alpha  occ. eigenvalues --   -0.51716  -0.51109  -0.51013  -0.50822  -0.50269
 Alpha  occ. eigenvalues --   -0.50079  -0.49403  -0.48929  -0.48622  -0.47907
 Alpha  occ. eigenvalues --   -0.47777  -0.47252  -0.46998  -0.46669  -0.46468
 Alpha  occ. eigenvalues --   -0.46138  -0.45955  -0.44832  -0.44564  -0.42805
 Alpha  occ. eigenvalues --   -0.42250  -0.41109  -0.40433  -0.39889  -0.38399
 Alpha  occ. eigenvalues --   -0.38228  -0.37768  -0.37701  -0.37034  -0.36583
 Alpha  occ. eigenvalues --   -0.36054  -0.35759  -0.35614  -0.34774  -0.34197
 Alpha  occ. eigenvalues --   -0.33153  -0.33074  -0.32881  -0.32180  -0.31859
 Alpha virt. eigenvalues --   -0.13936  -0.11175  -0.10506  -0.09593  -0.08396
 Alpha virt. eigenvalues --   -0.08173  -0.08060  -0.05435  -0.05385  -0.05206
 Alpha virt. eigenvalues --   -0.04866  -0.04185  -0.02847  -0.02023  -0.01239

 Mulliken charges:
               1
     1  N   -0.761017
     2  H    0.406837
     3  H    0.454111
     4  H    0.412336
     5  C   -0.291907
     6  H    0.260573
     7  H    0.235468
     8  C    0.629188
     9  O   -0.510646
    10  N   -0.582244
    11  H    0.370815
    12  C   -0.242955
    13  H    0.227120
    14  H    0.195102
    15  C    0.595224
    16  O   -0.514471
    17  N   -0.544208
    18  H    0.347921
    19  C   -0.260716
    20  H    0.211960
    21  H    0.204080
    22  C    0.623425
    23  O   -0.562719
    24  N   -0.594781
    25  H    0.390281
    26  C   -0.238924
    27  H    0.209640
    28  H    0.206367
    29  C    0.624502
    30  O   -0.593839
    31  N   -0.608458
    32  H    0.412304
    33  C   -0.189697
    34  H    0.198975
    35  H    0.160796
    36  C    0.554932
    37  O   -0.496518
    38  N   -0.589855
    39  H    0.358405
    40  C   -0.235714
    41  H    0.187556
    42  H    0.219852
    43  C    0.603594
    44  O   -0.492557
    45  N   -0.610634
    46  H    0.368509
    47  C   -0.229001
    48  H    0.168676
    49  H    0.207624
    50  C    0.620461
    51  O   -0.605004
    52  N   -0.563867
    53  H    0.388585
    54  C   -0.213716
    55  H    0.188385
    56  H    0.213440
    57  C    0.614198
    58  O   -0.518951
    59  N   -0.625935
    60  H    0.359109
    61  C   -0.194090
    62  H    0.200263
    63  H    0.196428
    64  C    0.600030
    65  O   -0.519071
    66  N   -0.597875
    67  H    0.351315
    68  C   -0.231332
    69  H    0.207177
    70  H    0.236186
    71  C    0.583158
    72  O   -0.436054
    73  O   -0.572384
    74  H    0.424232
 Sum of Mulliken charges =   1.00000

 Dipole moment (field-independent basis, Debye):
    X=            -10.0001    Y=              7.6203    Z=             12.3312  Tot=             17.6105
 Quadrupole moment (field-independent basis, Debye-Ang):
   XX=           -180.3655   YY=           -156.5403   ZZ=           -131.9193
   XY=             20.7516   XZ=            -70.9981   YZ=            -10.4293

 Normal termination of Gaussian 16 at Sat Jul  9 19:22:09 2022.
