 Gaussian 16, Revision C.01,
 Gaussian 16:  ES64L-G16RevC.01  3-Jul-2019

 -------------------------------------------------------------------
 # B3LYP/6-31G* guess=read geom=check nosymm integral(ultrafinegrid)
 -------------------------------------------------------------------

 ------------------------------------------------------
 Candidate Structure: Conf:879 Charge calc in gas phase
 ------------------------------------------------------
 Structure from the checkpoint file:  "conf-879.chk"
 Charge =  1 Multiplicity = 1

                          Input orientation:
 ---------------------------------------------------------------------
 Center     Atomic      Atomic             Coordinates (Angstroms)
 Number     Number       Type             X           Y           Z
 ---------------------------------------------------------------------
      1          7           0       -1.289695   -2.835617    1.288191
      2          1           0       -0.819224   -1.917499    1.662311
      3          1           0       -1.166670   -3.578135    1.979889
      4          1           0       -0.815514   -3.085575    0.401915
      5          6           0       -2.719286   -2.595596    0.938688
      6          1           0       -3.302030   -3.506755    1.099256
      7          1           0       -3.108972   -1.799825    1.578057
      8          6           0       -2.729689   -2.190348   -0.548381
      9          8           0       -1.693890   -2.306579   -1.199174
     10          7           0       -3.911867   -1.767722   -1.045506
     11          1           0       -4.642896   -1.547773   -0.379331
     12          6           0       -3.956664   -1.042241   -2.303837
     13          1           0       -4.940641   -1.170412   -2.764326
     14          1           0       -3.206094   -1.473696   -2.972085
     15          6           0       -3.633215    0.445388   -2.060367
     16          8           0       -3.163723    0.813816   -0.980542
     17          7           0       -3.903981    1.297530   -3.069209
     18          1           0       -4.163039    0.936004   -3.977466
     19          6           0       -3.554282    2.709919   -2.953387
     20          1           0       -3.838500    3.203326   -3.885748
     21          1           0       -4.132393    3.157654   -2.138509
     22          6           0       -2.036694    2.879432   -2.752023
     23          8           0       -1.237271    2.319167   -3.484400
     24          7           0       -1.674056    3.673956   -1.701855
     25          1           0       -2.388830    4.015928   -1.074879
     26          6           0       -0.282639    3.868074   -1.336591
     27          1           0        0.313325    3.923090   -2.252714
     28          1           0       -0.166502    4.816498   -0.807076
     29          6           0        0.351532    2.763757   -0.480395
     30          8           0        1.474016    2.921371   -0.002345
     31          7           0       -0.353424    1.614461   -0.316745
     32          1           0       -1.294827    1.518846   -0.685056
     33          6           0        0.306795    0.417917    0.174629
     34          1           0        1.346056    0.424323   -0.174006
     35          1           0       -0.199586   -0.449798   -0.250320
     36          6           0        0.312147    0.293950    1.701448
     37          8           0       -0.244913   -0.660903    2.302607
     38          7           0        0.959197    1.251750    2.359845
     39          1           0        1.426529    1.998677    1.830836
     40          6           0        1.088432    1.268336    3.804443
     41          1           0        0.162319    1.623980    4.277120
     42          1           0        1.266418    0.251672    4.170939
     43          6           0        2.239387    2.208352    4.176573
     44          8           0        2.706570    2.990478    3.350019
     45          7           0        2.667077    2.137048    5.458388
     46          1           0        2.328167    1.398837    6.060613
     47          6           0        3.738589    2.999795    5.960987
     48          1           0        3.583673    4.003757    5.556394
     49          1           0        3.675412    3.033801    7.048748
     50          6           0        5.136123    2.468147    5.594214
     51          8           0        5.848896    1.918763    6.434987
     52          7           0        5.489764    2.639386    4.298224
     53          1           0        4.790713    3.001236    3.655785
     54          6           0        6.777056    2.190069    3.775743
     55          1           0        7.554317    2.455044    4.500515
     56          1           0        6.971708    2.711548    2.838467
     57          6           0        6.839076    0.680978    3.480684
     58          8           0        6.962816    0.253762    2.330269
     59          7           0        6.753762   -0.117478    4.570586
     60          1           0        6.677648    0.330948    5.481051
     61          6           0        6.688362   -1.571329    4.473811
     62          1           0        6.055032   -1.833541    3.617604
     63          1           0        6.237569   -1.961123    5.387154
     64          6           0        8.047589   -2.280168    4.315669
     65          8           0        8.419079   -3.127993    5.116060
     66          7           0        8.759349   -1.888345    3.220902
     67          1           0        8.311369   -1.245547    2.571893
     68          6           0       10.010948   -2.515518    2.873243
     69          1           0       10.353508   -3.070943    3.752553
     70          1           0       10.777605   -1.772050    2.631742
     71          6           0        9.965265   -3.498656    1.709613
     72          8           0       10.953769   -3.918136    1.153707
     73          8           0        8.709203   -3.871795    1.369359
     74          1           0        8.817776   -4.512832    0.641188
 ---------------------------------------------------------------------

 SCF Done:  E(RB3LYP) =  -2156.93581846     A.U. after    2 cycles

 Alpha  occ. eigenvalues --  -19.27751 -19.25841 -19.25212 -19.24050 -19.22914
 Alpha  occ. eigenvalues --  -19.21592 -19.21381 -19.19892 -19.18261 -19.17850
 Alpha  occ. eigenvalues --  -19.15756 -14.57369 -14.51369 -14.49407 -14.47797
 Alpha  occ. eigenvalues --  -14.47465 -14.46983 -14.46066 -14.44051 -14.42271
 Alpha  occ. eigenvalues --  -14.39933 -10.44948 -10.42246 -10.41602 -10.40451
 Alpha  occ. eigenvalues --  -10.40225 -10.39277 -10.38692 -10.37022 -10.36695
 Alpha  occ. eigenvalues --  -10.36238 -10.35292 -10.34732 -10.34538 -10.34073
 Alpha  occ. eigenvalues --  -10.33107 -10.32726 -10.32129 -10.29884 -10.28495
 Alpha  occ. eigenvalues --  -10.27518  -1.19982  -1.17018  -1.16633  -1.14882
 Alpha  occ. eigenvalues --   -1.14765  -1.13953  -1.13239  -1.12228  -1.11633
 Alpha  occ. eigenvalues --   -1.09859  -1.07671  -1.07564  -1.05625  -1.05194
 Alpha  occ. eigenvalues --   -1.04429  -1.03303  -1.03200  -1.01732  -1.00094
 Alpha  occ. eigenvalues --   -0.98335  -0.96425  -0.90868  -0.87946  -0.87278
 Alpha  occ. eigenvalues --   -0.85072  -0.83662  -0.82249  -0.80871  -0.79786
 Alpha  occ. eigenvalues --   -0.78341  -0.75662  -0.73891  -0.73307  -0.72873
 Alpha  occ. eigenvalues --   -0.72170  -0.70389  -0.69449  -0.69034  -0.68755
 Alpha  occ. eigenvalues --   -0.67397  -0.67037  -0.66111  -0.65297  -0.64714
 Alpha  occ. eigenvalues --   -0.64514  -0.64187  -0.62882  -0.62601  -0.62412
 Alpha  occ. eigenvalues --   -0.61525  -0.60683  -0.60552  -0.60228  -0.59780
 Alpha  occ. eigenvalues --   -0.58730  -0.58680  -0.58238  -0.57690  -0.57435
 Alpha  occ. eigenvalues --   -0.56481  -0.56045  -0.55349  -0.55242  -0.54885
 Alpha  occ. eigenvalues --   -0.54746  -0.53509  -0.53266  -0.53149  -0.53052
 Alpha  occ. eigenvalues --   -0.52506  -0.52173  -0.52110  -0.51204  -0.51088
 Alpha  occ. eigenvalues --   -0.50820  -0.50533  -0.50243  -0.49900  -0.49594
 Alpha  occ. eigenvalues --   -0.49299  -0.49209  -0.48516  -0.47542  -0.47456
 Alpha  occ. eigenvalues --   -0.47178  -0.47117  -0.46061  -0.45977  -0.45601
 Alpha  occ. eigenvalues --   -0.45083  -0.44004  -0.43742  -0.42596  -0.42311
 Alpha  occ. eigenvalues --   -0.41405  -0.41356  -0.40635  -0.39573  -0.39148
 Alpha  occ. eigenvalues --   -0.38529  -0.38005  -0.37791  -0.36735  -0.35801
 Alpha  occ. eigenvalues --   -0.35648  -0.35165  -0.35024  -0.34136  -0.33253
 Alpha  occ. eigenvalues --   -0.33007  -0.32966  -0.31053  -0.29108  -0.28683
 Alpha virt. eigenvalues --   -0.13527  -0.11222  -0.10816  -0.09039  -0.08868
 Alpha virt. eigenvalues --   -0.08509  -0.07367  -0.06658  -0.06324  -0.04861
 Alpha virt. eigenvalues --   -0.03578  -0.03038  -0.02739  -0.02482  -0.02226

 Mulliken charges:
               1
     1  N   -0.778170
     2  H    0.463023
     3  H    0.402642
     4  H    0.412584
     5  C   -0.276507
     6  H    0.236163
     7  H    0.234802
     8  C    0.634064
     9  O   -0.501100
    10  N   -0.555936
    11  H    0.353503
    12  C   -0.270865
    13  H    0.203698
    14  H    0.244017
    15  C    0.630569
    16  O   -0.544002
    17  N   -0.566769
    18  H    0.359945
    19  C   -0.234736
    20  H    0.207264
    21  H    0.179255
    22  C    0.599463
    23  O   -0.492868
    24  N   -0.599645
    25  H    0.343562
    26  C   -0.228394
    27  H    0.234318
    28  H    0.200153
    29  C    0.605489
    30  O   -0.518238
    31  N   -0.616541
    32  H    0.405272
    33  C   -0.251392
    34  H    0.219216
    35  H    0.171049
    36  C    0.633097
    37  O   -0.608949
    38  N   -0.589704
    39  H    0.420140
    40  C   -0.206276
    41  H    0.203269
    42  H    0.192565
    43  C    0.611675
    44  O   -0.517224
    45  N   -0.591248
    46  H    0.348642
    47  C   -0.238245
    48  H    0.205002
    49  H    0.199547
    50  C    0.597563
    51  O   -0.520498
    52  N   -0.585862
    53  H    0.377778
    54  C   -0.237020
    55  H    0.201627
    56  H    0.193252
    57  C    0.591058
    58  O   -0.532055
    59  N   -0.586454
    60  H    0.378901
    61  C   -0.240798
    62  H    0.178547
    63  H    0.178466
    64  C    0.596371
    65  O   -0.502940
    66  N   -0.593660
    67  H    0.370040
    68  C   -0.229365
    69  H    0.228806
    70  H    0.192154
    71  C    0.576563
    72  O   -0.451995
    73  O   -0.558826
    74  H    0.411163
 Sum of Mulliken charges =   1.00000

 Dipole moment (field-independent basis, Debye):
    X=            -18.4423    Y=             -0.1095    Z=              3.4896  Tot=             18.7699
 Quadrupole moment (field-independent basis, Debye-Ang):
   XX=           -233.4143   YY=           -188.6218   ZZ=           -196.5840
   XY=             38.8487   XZ=              8.1510   YZ=              9.5573

 Normal termination of Gaussian 16 at Sat Jul  9 19:21:38 2022.
