 Gaussian 16, Revision C.01,
 Gaussian 16:  ES64L-G16RevC.01  3-Jul-2019

 -------------------------------------------------------------------
 # B3LYP/6-31G* guess=read geom=check nosymm integral(ultrafinegrid)
 -------------------------------------------------------------------

 ------------------------------------------------------
 Candidate Structure: Conf:549 Charge calc in gas phase
 ------------------------------------------------------
 Structure from the checkpoint file:  "conf-549.chk"
 Charge =  1 Multiplicity = 1

                          Input orientation:
 ---------------------------------------------------------------------
 Center     Atomic      Atomic             Coordinates (Angstroms)
 Number     Number       Type             X           Y           Z
 ---------------------------------------------------------------------
      1          7           0        3.964522    2.995900   11.029007
      2          1           0        3.981191    3.775522   11.692399
      3          1           0        4.191487    2.136194   11.536558
      4          1           0        4.681674    3.161942   10.246252
      5          6           0        2.690687    2.907871   10.233271
      6          1           0        2.224592    1.933601   10.390375
      7          1           0        2.001724    3.691550   10.553146
      8          6           0        3.164494    3.103964    8.766896
      9          8           0        4.380107    3.276942    8.592060
     10          7           0        2.234441    3.070129    7.828328
     11          1           0        1.236765    2.921503    8.014652
     12          6           0        2.496909    3.230135    6.405712
     13          1           0        3.193537    2.461880    6.051923
     14          1           0        2.945405    4.209065    6.202030
     15          6           0        1.122188    3.095266    5.721241
     16          8           0        0.115345    2.906484    6.407512
     17          7           0        1.122332    3.196216    4.386195
     18          1           0        1.968192    3.340709    3.837877
     19          6           0       -0.083335    3.078902    3.590380
     20          1           0       -0.599724    2.136206    3.809604
     21          1           0       -0.783353    3.892616    3.818538
     22          6           0        0.340817    3.137115    2.117328
     23          8           0        1.524583    3.316279    1.814822
     24          7           0       -0.648073    2.999892    1.212567
     25          1           0       -1.579791    2.762486    1.527412
     26          6           0       -0.405098    3.054131   -0.230851
     27          1           0       -1.342175    3.303358   -0.728643
     28          1           0        0.325191    3.846150   -0.421376
     29          6           0        0.084870    1.714841   -0.812357
     30          8           0       -0.642375    1.035282   -1.535106
     31          7           0        1.345182    1.368473   -0.461204
     32          1           0        1.867062    2.009579    0.126456
     33          6           0        1.938713    0.076067   -0.798235
     34          1           0        1.192913   -0.715197   -0.661420
     35          1           0        2.772800   -0.106966   -0.120555
     36          6           0        2.491314   -0.057521   -2.225348
     37          8           0        3.649324   -0.428468   -2.421213
     38          7           0        1.605848    0.211659   -3.217206
     39          1           0        0.630712    0.330892   -2.949071
     40          6           0        1.912096   -0.108223   -4.609617
     41          1           0        1.257721    0.470462   -5.262651
     42          1           0        2.955056    0.157460   -4.801596
     43          6           0        1.657461   -1.601663   -4.871184
     44          8           0        0.665182   -2.003937   -5.462755
     45          7           0        2.611513   -2.430200   -4.335822
     46          1           0        3.265613   -1.995299   -3.687943
     47          6           0        2.274759   -3.813510   -4.100358
     48          1           0        1.712028   -4.182793   -4.962164
     49          1           0        3.193397   -4.405756   -4.014290
     50          6           0        1.454869   -3.991003   -2.807055
     51          8           0        1.431593   -3.143099   -1.923720
     52          7           0        0.807908   -5.194604   -2.707075
     53          1           0        0.741348   -5.767360   -3.538495
     54          6           0       -0.032901   -5.535449   -1.571186
     55          1           0       -1.062675   -5.731338   -1.887853
     56          1           0       -0.050563   -4.660598   -0.915865
     57          6           0        0.422103   -6.745299   -0.743879
     58          8           0       -0.317229   -7.230517    0.105710
     59          7           0        1.666967   -7.207961   -1.007902
     60          1           0        2.246605   -6.796040   -1.730197
     61          6           0        2.217418   -8.358553   -0.337976
     62          1           0        1.496901   -9.186588   -0.343794
     63          1           0        2.434413   -8.143636    0.718694
     64          6           0        3.509266   -8.754585   -1.058563
     65          8           0        3.968517   -8.086428   -1.982513
     66          7           0        4.108121   -9.878086   -0.598018
     67          1           0        3.711086  -10.431715    0.152657
     68          6           0        5.335800  -10.375097   -1.176938
     69          1           0        6.145481   -9.638603   -1.098579
     70          1           0        5.219626  -10.590125   -2.246825
     71          6           0        5.737525  -11.642462   -0.451369
     72          8           0        5.114669  -12.137927    0.463072
     73          8           0        6.876750  -12.153346   -0.949842
     74          1           0        7.071623  -12.964522   -0.442911
 ---------------------------------------------------------------------

 SCF Done:  E(RB3LYP) =  -2156.90679825     A.U. after    3 cycles

 Alpha  occ. eigenvalues --  -19.29432 -19.25857 -19.24151 -19.23136 -19.20471
 Alpha  occ. eigenvalues --  -19.18907 -19.17073 -19.16468 -19.16271 -19.14852
 Alpha  occ. eigenvalues --  -19.14374 -14.62827 -14.51903 -14.47815 -14.47270
 Alpha  occ. eigenvalues --  -14.43141 -14.41596 -14.41217 -14.40198 -14.39510
 Alpha  occ. eigenvalues --  -14.38575 -10.46294 -10.43294 -10.41432 -10.40235
 Alpha  occ. eigenvalues --  -10.38621 -10.36572 -10.36120 -10.34324 -10.34256
 Alpha  occ. eigenvalues --  -10.33510 -10.33433 -10.32090 -10.31823 -10.31629
 Alpha  occ. eigenvalues --  -10.29282 -10.28316 -10.27665 -10.26869 -10.26765
 Alpha  occ. eigenvalues --  -10.26477  -1.21906  -1.16956  -1.16594  -1.16083
 Alpha  occ. eigenvalues --   -1.14851  -1.10676  -1.09160  -1.08414  -1.08400
 Alpha  occ. eigenvalues --   -1.08051  -1.07951  -1.06494  -1.06369  -1.04292
 Alpha  occ. eigenvalues --   -1.03079  -0.99094  -0.98066  -0.97411  -0.96483
 Alpha  occ. eigenvalues --   -0.95561  -0.95121  -0.92825  -0.88041  -0.84965
 Alpha  occ. eigenvalues --   -0.82110  -0.81693  -0.80146  -0.78810  -0.76866
 Alpha  occ. eigenvalues --   -0.76691  -0.76613  -0.75083  -0.74469  -0.72577
 Alpha  occ. eigenvalues --   -0.71159  -0.69498  -0.68946  -0.67679  -0.66047
 Alpha  occ. eigenvalues --   -0.65564  -0.64769  -0.63943  -0.63749  -0.63292
 Alpha  occ. eigenvalues --   -0.62589  -0.62461  -0.61125  -0.60920  -0.60576
 Alpha  occ. eigenvalues --   -0.60252  -0.59103  -0.58726  -0.58497  -0.57742
 Alpha  occ. eigenvalues --   -0.57431  -0.56954  -0.56069  -0.54952  -0.54903
 Alpha  occ. eigenvalues --   -0.54528  -0.54366  -0.53820  -0.53647  -0.53552
 Alpha  occ. eigenvalues --   -0.52673  -0.51907  -0.51799  -0.51379  -0.51060
 Alpha  occ. eigenvalues --   -0.50772  -0.50290  -0.49995  -0.49796  -0.48879
 Alpha  occ. eigenvalues --   -0.48398  -0.48059  -0.47932  -0.46970  -0.46871
 Alpha  occ. eigenvalues --   -0.46768  -0.46015  -0.45892  -0.45142  -0.44874
 Alpha  occ. eigenvalues --   -0.44773  -0.44508  -0.44443  -0.43701  -0.43155
 Alpha  occ. eigenvalues --   -0.42751  -0.41802  -0.41798  -0.41700  -0.40538
 Alpha  occ. eigenvalues --   -0.40313  -0.38899  -0.38790  -0.38105  -0.38094
 Alpha  occ. eigenvalues --   -0.37359  -0.36642  -0.34492  -0.33878  -0.32205
 Alpha  occ. eigenvalues --   -0.32088  -0.31514  -0.31357  -0.30993  -0.30870
 Alpha  occ. eigenvalues --   -0.29283  -0.28967  -0.28875  -0.27712  -0.27255
 Alpha virt. eigenvalues --   -0.14481  -0.13944  -0.09709  -0.08690  -0.08334
 Alpha virt. eigenvalues --   -0.06995  -0.05741  -0.05089  -0.03539  -0.03321
 Alpha virt. eigenvalues --   -0.02662  -0.02615  -0.02183  -0.01727  -0.00989

 Mulliken charges:
               1
     1  N   -0.750002
     2  H    0.425353
     3  H    0.425433
     4  H    0.441771
     5  C   -0.277276
     6  H    0.251259
     7  H    0.251100
     8  C    0.640928
     9  O   -0.520886
    10  N   -0.606207
    11  H    0.382342
    12  C   -0.211168
    13  H    0.217750
    14  H    0.218220
    15  C    0.621710
    16  O   -0.528634
    17  N   -0.623701
    18  H    0.370747
    19  C   -0.198241
    20  H    0.206555
    21  H    0.208373
    22  C    0.614590
    23  O   -0.540188
    24  N   -0.588872
    25  H    0.354805
    26  C   -0.243888
    27  H    0.201205
    28  H    0.204293
    29  C    0.601328
    30  O   -0.514197
    31  N   -0.586532
    32  H    0.366492
    33  C   -0.250584
    34  H    0.222394
    35  H    0.177617
    36  C    0.617650
    37  O   -0.533897
    38  N   -0.589006
    39  H    0.379189
    40  C   -0.237069
    41  H    0.180435
    42  H    0.189458
    43  C    0.586845
    44  O   -0.507187
    45  N   -0.573967
    46  H    0.369959
    47  C   -0.254530
    48  H    0.192459
    49  H    0.189199
    50  C    0.612854
    51  O   -0.518663
    52  N   -0.616400
    53  H    0.340002
    54  C   -0.221534
    55  H    0.187415
    56  H    0.214624
    57  C    0.594196
    58  O   -0.526378
    59  N   -0.609994
    60  H    0.353282
    61  C   -0.186399
    62  H    0.191820
    63  H    0.183695
    64  C    0.603363
    65  O   -0.528264
    66  N   -0.625469
    67  H    0.357722
    68  C   -0.173528
    69  H    0.207941
    70  H    0.210213
    71  C    0.566251
    72  O   -0.458067
    73  O   -0.556343
    74  H    0.424234
 Sum of Mulliken charges =   1.00000

 Dipole moment (field-independent basis, Debye):
    X=             15.7984    Y=             11.2134    Z=             44.9299  Tot=             48.9288
 Quadrupole moment (field-independent basis, Debye-Ang):
   XX=           -172.3921   YY=           -103.4207   ZZ=            225.0182
   XY=            -20.2312   XZ=            146.5331   YZ=            144.9767

 Normal termination of Gaussian 16 at Sat Jul  9 19:21:40 2022.
