 Gaussian 16, Revision C.01,
 Gaussian 16:  ES64L-G16RevC.01  3-Jul-2019

 -------------------------------------------------------------------
 # B3LYP/6-31G* guess=read geom=check nosymm integral(ultrafinegrid)
 -------------------------------------------------------------------

 -----------------------------------------------------
 Candidate Structure: Conf:90 Charge calc in gas phase
 -----------------------------------------------------
 Structure from the checkpoint file:  "conf-90.chk"
 Charge =  1 Multiplicity = 1

                          Input orientation:
 ---------------------------------------------------------------------
 Center     Atomic      Atomic             Coordinates (Angstroms)
 Number     Number       Type             X           Y           Z
 ---------------------------------------------------------------------
      1          7           0       -1.097714   -0.258972   -1.360485
      2          1           0       -1.850499   -0.868532   -1.687194
      3          1           0       -0.522939   -0.762326   -0.612725
      4          1           0       -1.479755    0.611237   -0.953793
      5          6           0       -0.155498    0.148871   -2.448514
      6          1           0        0.629720   -0.603452   -2.554187
      7          1           0       -0.707760    0.260359   -3.385436
      8          6           0        0.424251    1.502146   -2.020203
      9          8           0       -0.157127    2.156867   -1.144328
     10          7           0        1.520761    1.901981   -2.685911
     11          1           0        2.115972    1.168229   -3.075126
     12          6           0        2.141967    3.194627   -2.389711
     13          1           0        1.349630    3.913909   -2.174909
     14          1           0        2.691843    3.522606   -3.274318
     15          6           0        3.135898    3.019271   -1.235235
     16          8           0        4.181889    2.400515   -1.415135
     17          7           0        2.745440    3.487276   -0.021660
     18          1           0        1.864824    3.981057    0.044852
     19          6           0        3.492972    3.193546    1.195656
     20          1           0        4.564941    3.178020    0.975152
     21          1           0        3.318941    3.989064    1.926068
     22          6           0        3.139969    1.848727    1.854173
     23          8           0        3.836172    1.411997    2.768563
     24          7           0        2.034398    1.222928    1.370603
     25          1           0        1.504710    1.689084    0.644407
     26          6           0        1.586693   -0.094456    1.795738
     27          1           0        2.157694   -0.394362    2.675035
     28          1           0        0.535569   -0.067491    2.092160
     29          6           0        1.729818   -1.102416    0.650646
     30          8           0        0.733244   -1.510412    0.015221
     31          7           0        2.973567   -1.493736    0.350775
     32          1           0        3.780087   -1.133642    0.872250
     33          6           0        3.291563   -2.274122   -0.840198
     34          1           0        2.401354   -2.824570   -1.145059
     35          1           0        4.085723   -2.982893   -0.591006
     36          6           0        3.708912   -1.327065   -1.977369
     37          8           0        2.860617   -0.676514   -2.606842
     38          7           0        5.033489   -1.244094   -2.189584
     39          1           0        5.670840   -1.729539   -1.566724
     40          6           0        5.660893   -0.236447   -3.035678
     41          1           0        6.042542   -0.689583   -3.958554
     42          1           0        4.913701    0.514553   -3.290984
     43          6           0        6.840576    0.336784   -2.245998
     44          8           0        7.679807   -0.426965   -1.762482
     45          7           0        6.867787    1.683154   -2.120890
     46          1           0        5.984543    2.168331   -2.246536
     47          6           0        7.833685    2.331650   -1.236081
     48          1           0        8.810588    1.868676   -1.394728
     49          1           0        7.888451    3.390425   -1.491098
     50          6           0        7.395333    2.218726    0.233796
     51          8           0        6.839842    3.144281    0.819161
     52          7           0        7.664140    1.009052    0.801417
     53          1           0        7.979437    0.264797    0.183969
     54          6           0        7.227346    0.693495    2.136729
     55          1           0        6.710822    1.579979    2.522111
     56          1           0        8.087230    0.494968    2.790882
     57          6           0        6.246250   -0.480236    2.196712
     58          8           0        5.575838   -0.838110    1.222177
     59          7           0        6.170444   -1.061100    3.417401
     60          1           0        6.782356   -0.713826    4.144976
     61          6           0        5.278265   -2.152270    3.770625
     62          1           0        5.844059   -3.047822    4.044424
     63          1           0        4.686353   -2.393169    2.883515
     64          6           0        4.341509   -1.853104    4.949824
     65          8           0        3.998535   -2.748242    5.707732
     66          7           0        3.944469   -0.553801    5.096341
     67          1           0        4.050696    0.103474    4.327424
     68          6           0        3.004326   -0.238738    6.145001
     69          1           0        2.989116    0.844072    6.308541
     70          1           0        3.318562   -0.712672    7.077950
     71          6           0        1.582248   -0.697166    5.834864
     72          8           0        1.164003   -1.021634    4.743776
     73          8           0        0.820424   -0.661755    6.942473
     74          1           0       -0.074902   -0.956454    6.689466
 ---------------------------------------------------------------------

 SCF Done:  E(RB3LYP) =  -2156.97142635     A.U. after    3 cycles

 Alpha  occ. eigenvalues --  -19.27567 -19.27074 -19.24909 -19.24000 -19.23297
 Alpha  occ. eigenvalues --  -19.22821 -19.22273 -19.22227 -19.21397 -19.19823
 Alpha  occ. eigenvalues --  -19.19090 -14.57301 -14.49928 -14.48857 -14.47740
 Alpha  occ. eigenvalues --  -14.47713 -14.47366 -14.46566 -14.45399 -14.44026
 Alpha  occ. eigenvalues --  -14.43638 -10.43883 -10.41369 -10.41337 -10.40336
 Alpha  occ. eigenvalues --  -10.40213 -10.40199 -10.39318 -10.38507 -10.38431
 Alpha  occ. eigenvalues --  -10.37000 -10.36575 -10.35540 -10.33817 -10.33464
 Alpha  occ. eigenvalues --  -10.33271 -10.32698 -10.31711 -10.31589 -10.31242
 Alpha  occ. eigenvalues --  -10.31125  -1.18902  -1.18617  -1.16169  -1.15949
 Alpha  occ. eigenvalues --   -1.14570  -1.14391  -1.13732  -1.13185  -1.11966
 Alpha  occ. eigenvalues --   -1.11418  -1.11242  -1.09594  -1.06337  -1.05154
 Alpha  occ. eigenvalues --   -1.04270  -1.03286  -1.02831  -1.02702  -1.01728
 Alpha  occ. eigenvalues --   -1.00364  -0.99821  -0.89791  -0.87838  -0.86314
 Alpha  occ. eigenvalues --   -0.85633  -0.84381  -0.83049  -0.81897  -0.80714
 Alpha  occ. eigenvalues --   -0.79369  -0.77348  -0.72871  -0.72705  -0.72360
 Alpha  occ. eigenvalues --   -0.71085  -0.70447  -0.70047  -0.69723  -0.69557
 Alpha  occ. eigenvalues --   -0.68934  -0.68029  -0.66744  -0.66310  -0.65916
 Alpha  occ. eigenvalues --   -0.65577  -0.64456  -0.63831  -0.63026  -0.62063
 Alpha  occ. eigenvalues --   -0.61370  -0.60554  -0.60143  -0.59951  -0.59525
 Alpha  occ. eigenvalues --   -0.58744  -0.58686  -0.58326  -0.58057  -0.57820
 Alpha  occ. eigenvalues --   -0.57250  -0.56459  -0.56263  -0.55860  -0.55323
 Alpha  occ. eigenvalues --   -0.55202  -0.55029  -0.54634  -0.54052  -0.53846
 Alpha  occ. eigenvalues --   -0.53408  -0.53111  -0.52676  -0.52467  -0.52165
 Alpha  occ. eigenvalues --   -0.51973  -0.51482  -0.50776  -0.50657  -0.50147
 Alpha  occ. eigenvalues --   -0.50095  -0.49779  -0.49309  -0.49081  -0.48989
 Alpha  occ. eigenvalues --   -0.48513  -0.48203  -0.47859  -0.47578  -0.46584
 Alpha  occ. eigenvalues --   -0.46311  -0.46202  -0.45800  -0.45013  -0.44155
 Alpha  occ. eigenvalues --   -0.41693  -0.41064  -0.40286  -0.39869  -0.39781
 Alpha  occ. eigenvalues --   -0.39640  -0.37664  -0.36983  -0.36820  -0.36796
 Alpha  occ. eigenvalues --   -0.36543  -0.36448  -0.36177  -0.35817  -0.35724
 Alpha  occ. eigenvalues --   -0.34710  -0.33829  -0.33608  -0.32613  -0.32277
 Alpha virt. eigenvalues --   -0.12987  -0.11925  -0.10568  -0.09052  -0.08389
 Alpha virt. eigenvalues --   -0.08125  -0.07892  -0.07218  -0.06844  -0.05832
 Alpha virt. eigenvalues --   -0.05713  -0.03692  -0.02419  -0.01881  -0.01028

 Mulliken charges:
               1
     1  N   -0.756860
     2  H    0.405985
     3  H    0.446348
     4  H    0.408015
     5  C   -0.292466
     6  H    0.271064
     7  H    0.232294
     8  C    0.615953
     9  O   -0.544312
    10  N   -0.582966
    11  H    0.398238
    12  C   -0.238126
    13  H    0.197173
    14  H    0.206492
    15  C    0.605740
    16  O   -0.516505
    17  N   -0.598129
    18  H    0.356143
    19  C   -0.267766
    20  H    0.273494
    21  H    0.204974
    22  C    0.620035
    23  O   -0.529872
    24  N   -0.602765
    25  H    0.352981
    26  C   -0.242055
    27  H    0.231144
    28  H    0.189813
    29  C    0.619261
    30  O   -0.588675
    31  N   -0.588337
    32  H    0.418688
    33  C   -0.240568
    34  H    0.209108
    35  H    0.188674
    36  C    0.622062
    37  O   -0.560264
    38  N   -0.569845
    39  H    0.369485
    40  C   -0.202027
    41  H    0.203251
    42  H    0.182281
    43  C    0.597359
    44  O   -0.534792
    45  N   -0.577762
    46  H    0.373394
    47  C   -0.243219
    48  H    0.200410
    49  H    0.192196
    50  C    0.595761
    51  O   -0.513568
    52  N   -0.578937
    53  H    0.372589
    54  C   -0.242101
    55  H    0.235137
    56  H    0.173164
    57  C    0.634358
    58  O   -0.567851
    59  N   -0.590501
    60  H    0.350263
    61  C   -0.233831
    62  H    0.205651
    63  H    0.193866
    64  C    0.586159
    65  O   -0.498279
    66  N   -0.608933
    67  H    0.389633
    68  C   -0.232785
    69  H    0.195637
    70  H    0.222727
    71  C    0.597661
    72  O   -0.474268
    73  O   -0.546279
    74  H    0.419990
 Sum of Mulliken charges =   1.00000

 Dipole moment (field-independent basis, Debye):
    X=              7.3604    Y=              4.1869    Z=             -3.8079  Tot=              9.2847
 Quadrupole moment (field-independent basis, Debye-Ang):
   XX=           -159.6701   YY=           -217.6406   ZZ=           -192.9743
   XY=              9.5521   XZ=              6.3725   YZ=              3.9951

 Normal termination of Gaussian 16 at Sat Jul  9 19:22:58 2022.
