 Gaussian 16, Revision C.01,
 Gaussian 16:  ES64L-G16RevC.01  3-Jul-2019

 -------------------------------------------------------------------
 # B3LYP/6-31G* guess=read geom=check nosymm integral(ultrafinegrid)
 -------------------------------------------------------------------

 ------------------------------------------------------
 Candidate Structure: Conf:538 Charge calc in gas phase
 ------------------------------------------------------
 Structure from the checkpoint file:  "conf-538.chk"
 Charge =  1 Multiplicity = 1

                          Input orientation:
 ---------------------------------------------------------------------
 Center     Atomic      Atomic             Coordinates (Angstroms)
 Number     Number       Type             X           Y           Z
 ---------------------------------------------------------------------
      1          7           0        2.944941   -0.515572   -0.654130
      2          1           0        2.492582   -0.093531    0.221104
      3          1           0        3.724681   -1.089306   -0.320408
      4          1           0        3.368930    0.279823   -1.206077
      5          6           0        1.980929   -1.332237   -1.441813
      6          1           0        2.541532   -2.015737   -2.087278
      7          1           0        1.380098   -1.927356   -0.749359
      8          6           0        1.132731   -0.419442   -2.338447
      9          8           0        1.611363    0.612400   -2.804997
     10          7           0       -0.109230   -0.863034   -2.626947
     11          1           0       -0.506387   -1.613967   -2.077506
     12          6           0       -1.019725   -0.094726   -3.459962
     13          1           0       -1.634622   -0.786909   -4.045169
     14          1           0       -0.419843    0.498581   -4.153607
     15          6           0       -1.934455    0.809562   -2.613300
     16          8           0       -2.094129    0.608897   -1.409958
     17          7           0       -2.579927    1.787783   -3.293949
     18          1           0       -2.245307    2.036822   -4.215371
     19          6           0       -3.344970    2.790134   -2.567056
     20          1           0       -3.780846    3.480011   -3.295092
     21          1           0       -4.163224    2.303349   -2.027960
     22          6           0       -2.420663    3.563578   -1.608009
     23          8           0       -1.251462    3.784764   -1.887919
     24          7           0       -2.961407    3.925230   -0.407542
     25          1           0       -3.936120    3.748498   -0.207101
     26          6           0       -2.122073    4.569256    0.592042
     27          1           0       -1.708775    5.510884    0.220824
     28          1           0       -2.732875    4.789823    1.472516
     29          6           0       -0.913536    3.712781    1.004730
     30          8           0        0.106912    4.229540    1.441820
     31          7           0       -1.065101    2.350558    0.896164
     32          1           0       -1.882798    2.031578    0.386807
     33          6           0        0.105883    1.524100    0.650766
     34          1           0        0.796344    2.041441   -0.029343
     35          1           0       -0.243467    0.620604    0.146573
     36          6           0        0.935850    1.105486    1.853172
     37          8           0        1.938315    0.385048    1.670318
     38          7           0        0.558603    1.551215    3.054818
     39          1           0       -0.289061    2.104809    3.080611
     40          6           0        1.356030    1.434140    4.267355
     41          1           0        0.777251    0.956292    5.062230
     42          1           0        2.209414    0.790672    4.041158
     43          6           0        1.874832    2.769207    4.835526
     44          8           0        2.285963    2.795738    5.984822
     45          7           0        1.865808    3.846125    3.994951
     46          1           0        1.433273    3.778481    3.078465
     47          6           0        2.201052    5.178101    4.479557
     48          1           0        1.458265    5.898058    4.125925
     49          1           0        2.162986    5.155974    5.572697
     50          6           0        3.576895    5.731927    4.087703
     51          8           0        3.822001    6.922477    4.234435
     52          7           0        4.481243    4.829856    3.623283
     53          1           0        4.211342    3.873183    3.437124
     54          6           0        5.806407    5.232716    3.223838
     55          1           0        6.526562    5.132287    4.050981
     56          1           0        5.779927    6.294780    2.956413
     57          6           0        6.284579    4.364131    2.064238
     58          8           0        5.729803    3.294408    1.787963
     59          7           0        7.366469    4.821994    1.390613
     60          1           0        7.723214    5.743520    1.605437
     61          6           0        8.041781    4.050542    0.348613
     62          1           0        8.083925    3.004477    0.671299
     63          1           0        9.058440    4.427698    0.236733
     64          6           0        7.373512    4.129844   -1.037358
     65          8           0        7.973528    4.522685   -2.027661
     66          7           0        6.076619    3.707554   -1.053102
     67          1           0        5.676126    3.332386   -0.195184
     68          6           0        5.306561    3.710513   -2.268204
     69          1           0        5.993802    3.680486   -3.122880
     70          1           0        4.703904    4.621913   -2.393408
     71          6           0        4.367344    2.529456   -2.327373
     72          8           0        4.385607    1.610535   -1.512264
     73          8           0        3.509538    2.606421   -3.335185
     74          1           0        2.882455    1.850303   -3.275890
 ---------------------------------------------------------------------

 SCF Done:  E(RB3LYP) =  -2156.95510064     A.U. after    3 cycles

 Alpha  occ. eigenvalues --  -19.29516 -19.28008 -19.25625 -19.25441 -19.25012
 Alpha  occ. eigenvalues --  -19.23607 -19.23202 -19.20843 -19.18912 -19.18460
 Alpha  occ. eigenvalues --  -19.16785 -14.55592 -14.52030 -14.49386 -14.48501
 Alpha  occ. eigenvalues --  -14.48484 -14.47295 -14.45368 -14.43853 -14.42855
 Alpha  occ. eigenvalues --  -14.42172 -10.45471 -10.43294 -10.42441 -10.41605
 Alpha  occ. eigenvalues --  -10.40603 -10.40591 -10.40174 -10.37815 -10.37027
 Alpha  occ. eigenvalues --  -10.36850 -10.35798 -10.35477 -10.34803 -10.34560
 Alpha  occ. eigenvalues --  -10.34403 -10.32392 -10.31868 -10.30763 -10.30310
 Alpha  occ. eigenvalues --  -10.29177  -1.21423  -1.19947  -1.17272  -1.16377
 Alpha  occ. eigenvalues --   -1.15639  -1.14877  -1.12663  -1.12539  -1.11178
 Alpha  occ. eigenvalues --   -1.10880  -1.10337  -1.08956  -1.07940  -1.05512
 Alpha  occ. eigenvalues --   -1.05213  -1.04528  -1.02933  -1.01183  -0.99871
 Alpha  occ. eigenvalues --   -0.99612  -0.98167  -0.91105  -0.88260  -0.86919
 Alpha  occ. eigenvalues --   -0.85175  -0.84681  -0.83063  -0.82189  -0.80969
 Alpha  occ. eigenvalues --   -0.79272  -0.76450  -0.74730  -0.72844  -0.71963
 Alpha  occ. eigenvalues --   -0.71726  -0.71340  -0.70768  -0.69969  -0.68991
 Alpha  occ. eigenvalues --   -0.67828  -0.67420  -0.66577  -0.65909  -0.65455
 Alpha  occ. eigenvalues --   -0.64980  -0.64818  -0.64066  -0.63646  -0.63127
 Alpha  occ. eigenvalues --   -0.62256  -0.61681  -0.60870  -0.60818  -0.60466
 Alpha  occ. eigenvalues --   -0.59698  -0.59240  -0.58214  -0.57898  -0.57629
 Alpha  occ. eigenvalues --   -0.56933  -0.56628  -0.56517  -0.56091  -0.55979
 Alpha  occ. eigenvalues --   -0.55401  -0.55153  -0.54856  -0.54655  -0.54285
 Alpha  occ. eigenvalues --   -0.53776  -0.53518  -0.53249  -0.52704  -0.52323
 Alpha  occ. eigenvalues --   -0.52102  -0.51772  -0.51422  -0.50654  -0.50412
 Alpha  occ. eigenvalues --   -0.49759  -0.49427  -0.49212  -0.48778  -0.48514
 Alpha  occ. eigenvalues --   -0.47947  -0.47680  -0.47425  -0.47049  -0.46748
 Alpha  occ. eigenvalues --   -0.45910  -0.45110  -0.44151  -0.43811  -0.42714
 Alpha  occ. eigenvalues --   -0.42535  -0.41744  -0.41465  -0.40541  -0.39889
 Alpha  occ. eigenvalues --   -0.39579  -0.39396  -0.38974  -0.38631  -0.37365
 Alpha  occ. eigenvalues --   -0.36749  -0.36062  -0.36005  -0.35209  -0.34352
 Alpha  occ. eigenvalues --   -0.32715  -0.32691  -0.31646  -0.31294  -0.30166
 Alpha virt. eigenvalues --   -0.14198  -0.11727  -0.10244  -0.09806  -0.09722
 Alpha virt. eigenvalues --   -0.09211  -0.07703  -0.06758  -0.05648  -0.05291
 Alpha virt. eigenvalues --   -0.04679  -0.04034  -0.03725  -0.02853  -0.01724

 Mulliken charges:
               1
     1  N   -0.796418
     2  H    0.445959
     3  H    0.402688
     4  H    0.439277
     5  C   -0.267883
     6  H    0.241900
     7  H    0.210794
     8  C    0.639750
     9  O   -0.525702
    10  N   -0.568066
    11  H    0.360306
    12  C   -0.260928
    13  H    0.218278
    14  H    0.217867
    15  C    0.637708
    16  O   -0.534226
    17  N   -0.560653
    18  H    0.357678
    19  C   -0.246602
    20  H    0.209490
    21  H    0.191409
    22  C    0.612297
    23  O   -0.499509
    24  N   -0.614930
    25  H    0.350047
    26  C   -0.221109
    27  H    0.227472
    28  H    0.198962
    29  C    0.595930
    30  O   -0.502807
    31  N   -0.614778
    32  H    0.370065
    33  C   -0.251418
    34  H    0.208237
    35  H    0.187142
    36  C    0.652687
    37  O   -0.576553
    38  N   -0.583710
    39  H    0.363323
    40  C   -0.240462
    41  H    0.207407
    42  H    0.225055
    43  C    0.581552
    44  O   -0.487162
    45  N   -0.643619
    46  H    0.374952
    47  C   -0.230560
    48  H    0.188904
    49  H    0.224198
    50  C    0.599401
    51  O   -0.511869
    52  N   -0.596250
    53  H    0.348709
    54  C   -0.203840
    55  H    0.197285
    56  H    0.203677
    57  C    0.608681
    58  O   -0.551972
    59  N   -0.585447
    60  H    0.352916
    61  C   -0.242086
    62  H    0.197638
    63  H    0.196639
    64  C    0.590309
    65  O   -0.495261
    66  N   -0.611387
    67  H    0.378248
    68  C   -0.193701
    69  H    0.234663
    70  H    0.203289
    71  C    0.586872
    72  O   -0.515799
    73  O   -0.562255
    74  H    0.457299
 Sum of Mulliken charges =   1.00000

 Dipole moment (field-independent basis, Debye):
    X=             -2.1072    Y=              0.4491    Z=             -7.8285  Tot=              8.1196
 Quadrupole moment (field-independent basis, Debye-Ang):
   XX=           -166.3670   YY=           -219.8898   ZZ=           -227.6776
   XY=            -28.9559   XZ=             14.2448   YZ=             -1.9167

 Normal termination of Gaussian 16 at Sat Jul  9 19:22:04 2022.
