 Gaussian 16, Revision C.01,
 Gaussian 16:  ES64L-G16RevC.01  3-Jul-2019

 -------------------------------------------------------------------
 # B3LYP/6-31G* guess=read geom=check nosymm integral(ultrafinegrid)
 -------------------------------------------------------------------

 ------------------------------------------------------
 Candidate Structure: Conf:510 Charge calc in gas phase
 ------------------------------------------------------
 Structure from the checkpoint file:  "conf-510.chk"
 Charge =  1 Multiplicity = 1

                          Input orientation:
 ---------------------------------------------------------------------
 Center     Atomic      Atomic             Coordinates (Angstroms)
 Number     Number       Type             X           Y           Z
 ---------------------------------------------------------------------
      1          7           0        4.854320    1.468454   -6.619482
      2          1           0        5.732227    1.212874   -7.111386
      3          1           0        5.127115    1.647414   -5.619408
      4          1           0        4.265069    0.618640   -6.575202
      5          6           0        4.113968    2.626565   -7.175173
      6          1           0        4.725806    3.524362   -7.059150
      7          1           0        3.932152    2.459414   -8.240983
      8          6           0        2.778898    2.701538   -6.417894
      9          8           0        2.280673    1.672913   -5.978118
     10          7           0        2.206320    3.928391   -6.331266
     11          1           0        2.788887    4.736440   -6.509089
     12          6           0        1.068137    4.124926   -5.456245
     13          1           0        0.402491    3.263883   -5.565346
     14          1           0        0.521318    5.018762   -5.770950
     15          6           0        1.505501    4.249258   -3.979514
     16          8           0        2.669484    4.068189   -3.631747
     17          7           0        0.504867    4.588923   -3.130914
     18          1           0       -0.461402    4.491210   -3.428759
     19          6           0        0.687651    4.609078   -1.693944
     20          1           0        1.555277    3.991649   -1.435270
     21          1           0        0.888402    5.625711   -1.330668
     22          6           0       -0.569426    4.044222   -1.027697
     23          8           0       -1.483835    3.566429   -1.705485
     24          7           0       -0.606731    4.116639    0.321842
     25          1           0        0.236146    4.376755    0.818329
     26          6           0       -1.676548    3.488729    1.100074
     27          1           0       -1.718838    3.955696    2.084188
     28          1           0       -2.619516    3.659406    0.574098
     29          6           0       -1.410939    1.986687    1.294103
     30          8           0       -1.084579    1.512033    2.370049
     31          7           0       -1.549195    1.244293    0.147904
     32          1           0       -1.691997    1.750422   -0.721727
     33          6           0       -0.994499   -0.080727    0.098646
     34          1           0       -1.480762   -0.661424   -0.693244
     35          1           0       -1.199686   -0.573857    1.054882
     36          6           0        0.530563   -0.077962   -0.112546
     37          8           0        1.206015    0.952965   -0.080294
     38          7           0        1.082664   -1.304664   -0.314707
     39          1           0        0.478799   -2.115496   -0.338017
     40          6           0        2.523788   -1.536646   -0.273778
     41          1           0        2.947972   -0.988506    0.575533
     42          1           0        2.698629   -2.603041   -0.131585
     43          6           0        3.247516   -1.126771   -1.567989
     44          8           0        3.666140   -1.978666   -2.352644
     45          7           0        3.400748    0.215739   -1.723856
     46          1           0        2.834571    0.781956   -1.086017
     47          6           0        3.839929    0.820526   -2.971673
     48          1           0        3.615546    0.154498   -3.812417
     49          1           0        3.294408    1.755097   -3.136124
     50          6           0        5.323486    1.164568   -3.056875
     51          8           0        5.768705    1.775601   -4.047882
     52          7           0        6.130291    0.786195   -2.053753
     53          1           0        5.725647    0.276020   -1.280613
     54          6           0        7.568501    1.043045   -2.082971
     55          1           0        7.989823    0.703679   -1.135451
     56          1           0        7.745213    2.118632   -2.181563
     57          6           0        8.255414    0.251100   -3.211400
     58          8           0        8.426756   -0.961302   -3.130688
     59          7           0        8.649886    0.998590   -4.281734
     60          1           0        8.198202    1.898244   -4.390334
     61          6           0        9.138730    0.353152   -5.497377
     62          1           0        9.869136   -0.407808   -5.213950
     63          1           0        9.623239    1.101916   -6.125464
     64          6           0        7.966819   -0.252305   -6.284924
     65          8           0        7.375907    0.398254   -7.156832
     66          7           0        7.629500   -1.510083   -5.913680
     67          1           0        8.047383   -1.858975   -5.052821
     68          6           0        6.436987   -2.183589   -6.416809
     69          1           0        6.632580   -3.257031   -6.479241
     70          1           0        6.207617   -1.789464   -7.406023
     71          6           0        5.265197   -1.919152   -5.472122
     72          8           0        4.374395   -1.110314   -5.701230
     73          8           0        5.374861   -2.610395   -4.351696
     74          1           0        4.674129   -2.336378   -3.697064
 ---------------------------------------------------------------------

 SCF Done:  E(RB3LYP) =  -2156.98082226     A.U. after    2 cycles

 Alpha  occ. eigenvalues --  -19.28026 -19.24462 -19.24316 -19.23996 -19.23628
 Alpha  occ. eigenvalues --  -19.23032 -19.23032 -19.22412 -19.22308 -19.21955
 Alpha  occ. eigenvalues --  -19.19352 -14.52577 -14.48614 -14.48027 -14.47519
 Alpha  occ. eigenvalues --  -14.47032 -14.47012 -14.46921 -14.46591 -14.46024
 Alpha  occ. eigenvalues --  -14.43603 -10.42287 -10.41141 -10.41125 -10.40561
 Alpha  occ. eigenvalues --  -10.39982 -10.39645 -10.39557 -10.39406 -10.39140
 Alpha  occ. eigenvalues --  -10.36763 -10.36528 -10.34216 -10.33945 -10.33715
 Alpha  occ. eigenvalues --  -10.33198 -10.33145 -10.33109 -10.32982 -10.32236
 Alpha  occ. eigenvalues --  -10.31404  -1.19970  -1.16137  -1.15943  -1.15358
 Alpha  occ. eigenvalues --   -1.14663  -1.14459  -1.14306  -1.13854  -1.13420
 Alpha  occ. eigenvalues --   -1.11203  -1.11091  -1.08222  -1.04795  -1.04167
 Alpha  occ. eigenvalues --   -1.03530  -1.03391  -1.02865  -1.02601  -1.02594
 Alpha  occ. eigenvalues --   -1.02285  -1.00222  -0.88103  -0.87669  -0.86655
 Alpha  occ. eigenvalues --   -0.85625  -0.84796  -0.83225  -0.81981  -0.80335
 Alpha  occ. eigenvalues --   -0.79487  -0.77739  -0.72515  -0.71326  -0.70993
 Alpha  occ. eigenvalues --   -0.70511  -0.69647  -0.69305  -0.68672  -0.68361
 Alpha  occ. eigenvalues --   -0.68310  -0.67996  -0.66959  -0.66477  -0.64843
 Alpha  occ. eigenvalues --   -0.64708  -0.64164  -0.63520  -0.62631  -0.62441
 Alpha  occ. eigenvalues --   -0.61741  -0.60697  -0.60465  -0.59894  -0.59338
 Alpha  occ. eigenvalues --   -0.58792  -0.58406  -0.58359  -0.58283  -0.57862
 Alpha  occ. eigenvalues --   -0.57785  -0.57161  -0.56272  -0.55880  -0.55397
 Alpha  occ. eigenvalues --   -0.55156  -0.54771  -0.54424  -0.54091  -0.53739
 Alpha  occ. eigenvalues --   -0.53255  -0.52476  -0.52316  -0.52144  -0.51962
 Alpha  occ. eigenvalues --   -0.51644  -0.51406  -0.51037  -0.50804  -0.50543
 Alpha  occ. eigenvalues --   -0.50209  -0.49699  -0.49321  -0.49249  -0.49052
 Alpha  occ. eigenvalues --   -0.48874  -0.48198  -0.48148  -0.48070  -0.47515
 Alpha  occ. eigenvalues --   -0.46898  -0.46724  -0.46260  -0.45577  -0.44997
 Alpha  occ. eigenvalues --   -0.41391  -0.40379  -0.39733  -0.39339  -0.39289
 Alpha  occ. eigenvalues --   -0.38720  -0.38575  -0.37689  -0.37593  -0.37164
 Alpha  occ. eigenvalues --   -0.36520  -0.36490  -0.35849  -0.35726  -0.35636
 Alpha  occ. eigenvalues --   -0.35411  -0.35361  -0.34486  -0.33629  -0.32244
 Alpha virt. eigenvalues --   -0.10817  -0.10229  -0.10060  -0.09815  -0.08935
 Alpha virt. eigenvalues --   -0.08422  -0.08390  -0.08259  -0.07669  -0.05631
 Alpha virt. eigenvalues --   -0.03914  -0.02354  -0.02087  -0.01556  -0.00896

 Mulliken charges:
               1
     1  N   -0.815839
     2  H    0.433785
     3  H    0.436535
     4  H    0.435081
     5  C   -0.265477
     6  H    0.202365
     7  H    0.231919
     8  C    0.634402
     9  O   -0.504345
    10  N   -0.567573
    11  H    0.347153
    12  C   -0.259802
    13  H    0.223860
    14  H    0.197322
    15  C    0.603800
    16  O   -0.521143
    17  N   -0.588198
    18  H    0.358930
    19  C   -0.211478
    20  H    0.207992
    21  H    0.194480
    22  C    0.610792
    23  O   -0.541904
    24  N   -0.576984
    25  H    0.351393
    26  C   -0.247848
    27  H    0.198203
    28  H    0.207164
    29  C    0.598612
    30  O   -0.492850
    31  N   -0.579430
    32  H    0.367650
    33  C   -0.252615
    34  H    0.183016
    35  H    0.223973
    36  C    0.627755
    37  O   -0.538943
    38  N   -0.584469
    39  H    0.355383
    40  C   -0.236557
    41  H    0.197751
    42  H    0.202875
    43  C    0.593195
    44  O   -0.519047
    45  N   -0.616503
    46  H    0.390833
    47  C   -0.288555
    48  H    0.238524
    49  H    0.234808
    50  C    0.640386
    51  O   -0.581782
    52  N   -0.565635
    53  H    0.363272
    54  C   -0.227397
    55  H    0.204987
    56  H    0.190409
    57  C    0.598777
    58  O   -0.506429
    59  N   -0.558944
    60  H    0.352920
    61  C   -0.235749
    62  H    0.206451
    63  H    0.198725
    64  C    0.599308
    65  O   -0.558089
    66  N   -0.570429
    67  H    0.386321
    68  C   -0.208167
    69  H    0.205942
    70  H    0.201282
    71  C    0.581934
    72  O   -0.500268
    73  O   -0.563719
    74  H    0.465903
 Sum of Mulliken charges =   1.00000

 Dipole moment (field-independent basis, Debye):
    X=             18.2363    Y=              9.1535    Z=            -18.8324  Tot=             27.7670
 Quadrupole moment (field-independent basis, Debye-Ang):
   XX=           -109.2375   YY=           -170.3502   ZZ=           -117.2392
   XY=             24.3744   XZ=            -89.5560   YZ=            -43.8711

 Normal termination of Gaussian 16 at Sat Jul  9 19:21:51 2022.
