 Gaussian 16, Revision C.01,
 Gaussian 16:  ES64L-G16RevC.01  3-Jul-2019

 -------------------------------------------------------------------
 # B3LYP/6-31G* guess=read geom=check nosymm integral(ultrafinegrid)
 -------------------------------------------------------------------

 ------------------------------------------------------
 Candidate Structure: Conf:446 Charge calc in gas phase
 ------------------------------------------------------
 Structure from the checkpoint file:  "conf-446.chk"
 Charge =  1 Multiplicity = 1

                          Input orientation:
 ---------------------------------------------------------------------
 Center     Atomic      Atomic             Coordinates (Angstroms)
 Number     Number       Type             X           Y           Z
 ---------------------------------------------------------------------
      1          7           0        4.464723    2.535557   -1.324245
      2          1           0        5.055288    2.352102   -2.138184
      3          1           0        4.507198    1.714339   -0.686666
      4          1           0        3.456849    2.569876   -1.639533
      5          6           0        4.851822    3.773369   -0.586981
      6          1           0        5.930641    3.924047   -0.682736
      7          1           0        4.331792    4.626003   -1.028359
      8          6           0        4.489082    3.533558    0.891591
      9          8           0        4.407565    2.373595    1.293003
     10          7           0        4.319229    4.633178    1.648341
     11          1           0        4.195543    5.523747    1.182900
     12          6           0        3.784543    4.535307    3.014088
     13          1           0        3.940604    5.500106    3.501075
     14          1           0        4.332748    3.772297    3.571360
     15          6           0        2.277161    4.272384    2.898112
     16          8           0        1.560804    5.099271    2.315222
     17          7           0        1.837734    3.091711    3.367684
     18          1           0        2.486928    2.423768    3.774803
     19          6           0        0.456605    2.635002    3.223307
     20          1           0        0.307988    1.799058    3.902039
     21          1           0       -0.224769    3.440525    3.511138
     22          6           0        0.149911    2.171312    1.790135
     23          8           0       -0.074865    0.988682    1.495333
     24          7           0        0.143668    3.176215    0.880171
     25          1           0        0.421603    4.104421    1.210063
     26          6           0       -0.187884    2.967876   -0.518069
     27          1           0       -1.148986    2.448541   -0.598741
     28          1           0       -0.274417    3.942875   -0.999475
     29          6           0        0.895339    2.181791   -1.271261
     30          8           0        1.813348    2.759153   -1.877737
     31          7           0        0.727076    0.843288   -1.234413
     32          1           0        0.104777    0.513566   -0.495656
     33          6           0        1.556775   -0.108177   -1.952862
     34          1           0        2.030220    0.417657   -2.784048
     35          1           0        0.911759   -0.892377   -2.364106
     36          6           0        2.668065   -0.701452   -1.075655
     37          8           0        3.725300   -0.106122   -0.870993
     38          7           0        2.391752   -1.910911   -0.516708
     39          1           0        1.550853   -2.396917   -0.799089
     40          6           0        3.381043   -2.638359    0.264892
     41          1           0        3.282563   -3.709772    0.067058
     42          1           0        4.377130   -2.330775   -0.060500
     43          6           0        3.336441   -2.451591    1.783803
     44          8           0        4.233712   -2.948498    2.464961
     45          7           0        2.292191   -1.774047    2.320686
     46          1           0        1.659162   -1.245610    1.732527
     47          6           0        2.194276   -1.593057    3.767186
     48          1           0        1.161988   -1.354022    4.022643
     49          1           0        2.487164   -2.529135    4.250959
     50          6           0        3.080930   -0.433257    4.234992
     51          8           0        2.586708    0.651795    4.569076
     52          7           0        4.413623   -0.662756    4.223563
     53          1           0        4.710132   -1.547080    3.808419
     54          6           0        5.360939    0.453371    4.244425
     55          1           0        5.255234    1.066983    3.344423
     56          1           0        6.369389    0.027779    4.258730
     57          6           0        5.206312    1.404425    5.439533
     58          8           0        5.279064    2.619456    5.277954
     59          7           0        5.041126    0.813946    6.651697
     60          1           0        4.968893   -0.194472    6.686827
     61          6           0        4.881931    1.568477    7.885516
     62          1           0        5.276418    2.572572    7.706992
     63          1           0        5.472010    1.112652    8.684418
     64          6           0        3.445648    1.717962    8.414379
     65          8           0        3.256688    2.028791    9.579949
     66          7           0        2.449602    1.501997    7.505666
     67          1           0        2.678226    1.278376    6.543320
     68          6           0        1.054782    1.707701    7.844789
     69          1           0        1.005169    1.840348    8.929110
     70          1           0        0.450260    0.847178    7.546527
     71          6           0        0.478226    2.935314    7.148292
     72          8           0       -0.358977    2.903628    6.269379
     73          8           0        1.024497    4.078024    7.606133
     74          1           0        0.606817    4.809090    7.112382
 ---------------------------------------------------------------------

 SCF Done:  E(RB3LYP) =  -2156.95905090     A.U. after    3 cycles

 Alpha  occ. eigenvalues --  -19.26550 -19.25692 -19.25669 -19.25653 -19.23912
 Alpha  occ. eigenvalues --  -19.23065 -19.22933 -19.21765 -19.21225 -19.20619
 Alpha  occ. eigenvalues --  -19.17548 -14.56487 -14.50359 -14.49429 -14.49259
 Alpha  occ. eigenvalues --  -14.48197 -14.47146 -14.46344 -14.46063 -14.45293
 Alpha  occ. eigenvalues --  -14.42809 -10.42982 -10.42824 -10.42218 -10.40627
 Alpha  occ. eigenvalues --  -10.40509 -10.39416 -10.39171 -10.39068 -10.38939
 Alpha  occ. eigenvalues --  -10.38217 -10.36261 -10.35280 -10.35027 -10.34266
 Alpha  occ. eigenvalues --  -10.33964 -10.33010 -10.32740 -10.31687 -10.30208
 Alpha  occ. eigenvalues --  -10.29915  -1.17886  -1.17578  -1.17507  -1.16680
 Alpha  occ. eigenvalues --   -1.15675  -1.14826  -1.14201  -1.13283  -1.12432
 Alpha  occ. eigenvalues --   -1.11386  -1.09700  -1.08518  -1.06323  -1.05511
 Alpha  occ. eigenvalues --   -1.05360  -1.03969  -1.03154  -1.02903  -1.01886
 Alpha  occ. eigenvalues --   -1.01218  -0.98752  -0.89589  -0.88933  -0.87155
 Alpha  occ. eigenvalues --   -0.85669  -0.84222  -0.82923  -0.82022  -0.80722
 Alpha  occ. eigenvalues --   -0.79471  -0.78102  -0.73205  -0.72346  -0.72018
 Alpha  occ. eigenvalues --   -0.71395  -0.71003  -0.70071  -0.69733  -0.69249
 Alpha  occ. eigenvalues --   -0.68807  -0.67883  -0.67469  -0.66893  -0.65406
 Alpha  occ. eigenvalues --   -0.65334  -0.64780  -0.63868  -0.63344  -0.62752
 Alpha  occ. eigenvalues --   -0.62062  -0.61863  -0.61499  -0.61001  -0.60616
 Alpha  occ. eigenvalues --   -0.59362  -0.58871  -0.58492  -0.58253  -0.57350
 Alpha  occ. eigenvalues --   -0.56767  -0.56547  -0.55945  -0.55277  -0.55124
 Alpha  occ. eigenvalues --   -0.54909  -0.54702  -0.54340  -0.54252  -0.53840
 Alpha  occ. eigenvalues --   -0.53586  -0.53049  -0.52721  -0.52287  -0.52058
 Alpha  occ. eigenvalues --   -0.51885  -0.51529  -0.51218  -0.50871  -0.50483
 Alpha  occ. eigenvalues --   -0.50204  -0.49843  -0.49683  -0.49237  -0.49102
 Alpha  occ. eigenvalues --   -0.48637  -0.48306  -0.48166  -0.47756  -0.47329
 Alpha  occ. eigenvalues --   -0.46992  -0.46860  -0.45562  -0.45269  -0.42712
 Alpha  occ. eigenvalues --   -0.41667  -0.41097  -0.40479  -0.40262  -0.39509
 Alpha  occ. eigenvalues --   -0.39322  -0.38892  -0.38268  -0.37790  -0.37608
 Alpha  occ. eigenvalues --   -0.36520  -0.36078  -0.35881  -0.35756  -0.35403
 Alpha  occ. eigenvalues --   -0.35267  -0.34507  -0.34267  -0.31801  -0.30863
 Alpha virt. eigenvalues --   -0.12892  -0.12091  -0.11149  -0.10965  -0.09396
 Alpha virt. eigenvalues --   -0.08933  -0.07837  -0.07176  -0.06997  -0.06915
 Alpha virt. eigenvalues --   -0.05439  -0.03987  -0.03249  -0.01547  -0.01173

 Mulliken charges:
               1
     1  N   -0.785417
     2  H    0.398686
     3  H    0.450813
     4  H    0.449735
     5  C   -0.272530
     6  H    0.236339
     7  H    0.221207
     8  C    0.629471
     9  O   -0.510024
    10  N   -0.568911
    11  H    0.355836
    12  C   -0.275443
    13  H    0.203101
    14  H    0.251294
    15  C    0.610606
    16  O   -0.554089
    17  N   -0.596754
    18  H    0.395105
    19  C   -0.235403
    20  H    0.210177
    21  H    0.214009
    22  C    0.594422
    23  O   -0.558929
    24  N   -0.592335
    25  H    0.395492
    26  C   -0.223999
    27  H    0.196091
    28  H    0.203477
    29  C    0.604969
    30  O   -0.564187
    31  N   -0.555872
    32  H    0.377088
    33  C   -0.241091
    34  H    0.205750
    35  H    0.185069
    36  C    0.616037
    37  O   -0.533789
    38  N   -0.602923
    39  H    0.354825
    40  C   -0.229215
    41  H    0.213789
    42  H    0.225874
    43  C    0.618558
    44  O   -0.525029
    45  N   -0.588580
    46  H    0.357508
    47  C   -0.235802
    48  H    0.204351
    49  H    0.210397
    50  C    0.599707
    51  O   -0.541720
    52  N   -0.596175
    53  H    0.387737
    54  C   -0.254691
    55  H    0.215063
    56  H    0.193418
    57  C    0.608896
    58  O   -0.520325
    59  N   -0.590340
    60  H    0.342215
    61  C   -0.235837
    62  H    0.224809
    63  H    0.196901
    64  C    0.597569
    65  O   -0.495385
    66  N   -0.634301
    67  H    0.384460
    68  C   -0.194848
    69  H    0.223313
    70  H    0.174895
    71  C    0.561658
    72  O   -0.467130
    73  O   -0.533793
    74  H    0.414152
 Sum of Mulliken charges =   1.00000

 Dipole moment (field-independent basis, Debye):
    X=             15.6730    Y=              4.7473    Z=             -2.7493  Tot=             16.6054
 Quadrupole moment (field-independent basis, Debye-Ang):
   XX=           -156.7968   YY=           -181.6432   ZZ=           -230.5665
   XY=             30.6754   XZ=             -5.7543   YZ=            -17.8450

 Normal termination of Gaussian 16 at Sat Jul  9 19:22:17 2022.
