 Gaussian 16, Revision C.01,
 Gaussian 16:  ES64L-G16RevC.01  3-Jul-2019

 -------------------------------------------------------------------
 # B3LYP/6-31G* guess=read geom=check nosymm integral(ultrafinegrid)
 -------------------------------------------------------------------

 ------------------------------------------------------
 Candidate Structure: Conf:234 Charge calc in gas phase
 ------------------------------------------------------
 Structure from the checkpoint file:  "conf-234.chk"
 Charge =  1 Multiplicity = 1

                          Input orientation:
 ---------------------------------------------------------------------
 Center     Atomic      Atomic             Coordinates (Angstroms)
 Number     Number       Type             X           Y           Z
 ---------------------------------------------------------------------
      1          7           0       -6.890913    3.759157   -1.332150
      2          1           0       -7.349492    2.843621   -1.340851
      3          1           0       -7.075334    4.252579   -0.398196
      4          1           0       -7.270001    4.315928   -2.103420
      5          6           0       -5.388232    3.680029   -1.327861
      6          1           0       -5.074763    2.635648   -1.375266
      7          1           0       -4.989158    4.214478   -2.191783
      8          6           0       -4.990706    4.352086    0.014464
      9          8           0       -5.914551    4.770814    0.726651
     10          7           0       -3.698157    4.422648    0.288078
     11          1           0       -2.963871    4.059578   -0.327291
     12          6           0       -3.151947    5.009329    1.502176
     13          1           0       -3.545237    4.496964    2.387737
     14          1           0       -3.426567    6.068021    1.576835
     15          6           0       -1.623964    4.838758    1.391403
     16          8           0       -1.145018    4.303534    0.394280
     17          7           0       -0.904431    5.301740    2.437475
     18          1           0       -1.387997    5.759179    3.200456
     19          6           0        0.555213    5.257641    2.477668
     20          1           0        0.904667    5.006512    1.473810
     21          1           0        0.949301    6.246213    2.729693
     22          6           0        1.180254    4.250450    3.457214
     23          8           0        2.392290    4.260175    3.619371
     24          7           0        0.313258    3.421752    4.102096
     25          1           0       -0.612194    3.304142    3.706138
     26          6           0        0.779634    2.270066    4.851875
     27          1           0        1.872769    2.263771    4.859285
     28          1           0        0.437028    2.321783    5.893935
     29          6           0        0.213220    0.998637    4.212006
     30          8           0       -0.793297    1.046852    3.491826
     31          7           0        0.875086   -0.143956    4.503502
     32          1           0        1.832034   -0.057337    4.847659
     33          6           0        0.472949   -1.429716    3.932192
     34          1           0       -0.612160   -1.413904    3.802010
     35          1           0        0.748535   -2.233092    4.616256
     36          6           0        1.195197   -1.682371    2.596869
     37          8           0        2.020993   -2.568755    2.457510
     38          7           0        0.891411   -0.769362    1.613309
     39          1           0        0.189309   -0.065265    1.818629
     40          6           0        1.753465   -0.619226    0.455608
     41          1           0        2.107174   -1.606399    0.149465
     42          1           0        1.190333   -0.192208   -0.379483
     43          6           0        3.009423    0.247685    0.677939
     44          8           0        3.857361    0.333252   -0.214358
     45          7           0        3.064330    0.895001    1.860889
     46          1           0        2.362515    0.655648    2.547437
     47          6           0        4.229330    1.590926    2.381374
     48          1           0        5.038799    1.505114    1.656605
     49          1           0        3.990666    2.649125    2.547478
     50          6           0        4.602371    0.977820    3.737270
     51          8           0        3.728053    0.634226    4.549234
     52          7           0        5.920275    0.876261    3.974230
     53          1           0        6.565846    1.026107    3.203146
     54          6           0        6.476812    0.232643    5.160193
     55          1           0        5.729685   -0.449153    5.574850
     56          1           0        6.729003    0.975769    5.926451
     57          6           0        7.766927   -0.456820    4.710333
     58          8           0        8.663799    0.205272    4.189415
     59          7           0        7.835208   -1.803325    4.864394
     60          1           0        7.003794   -2.307431    5.142733
     61          6           0        8.918803   -2.574266    4.249392
     62          1           0        9.007411   -3.533096    4.760736
     63          1           0        9.843827   -2.005389    4.368944
     64          6           0        8.606103   -2.850237    2.765712
     65          8           0        8.187014   -3.936908    2.392935
     66          7           0        8.794960   -1.770871    1.943736
     67          1           0        8.986710   -0.877020    2.389177
     68          6           0        8.217741   -1.744761    0.616010
     69          1           0        7.875615   -2.752006    0.371512
     70          1           0        8.962155   -1.453939   -0.137416
     71          6           0        7.054624   -0.760789    0.536948
     72          8           0        6.910090    0.164609    1.321256
     73          8           0        6.241562   -1.013659   -0.480749
     74          1           0        5.464870   -0.395574   -0.443447
 ---------------------------------------------------------------------

 SCF Done:  E(RB3LYP) =  -2156.92076365     A.U. after    2 cycles

 Alpha  occ. eigenvalues --  -19.29957 -19.25194 -19.23195 -19.21045 -19.19973
 Alpha  occ. eigenvalues --  -19.19050 -19.19013 -19.18617 -19.18592 -19.18121
 Alpha  occ. eigenvalues --  -19.15855 -14.63317 -14.52540 -14.49348 -14.44685
 Alpha  occ. eigenvalues --  -14.44673 -14.43334 -14.43173 -14.43113 -14.42798
 Alpha  occ. eigenvalues --  -14.39984 -10.46852 -10.43757 -10.42574 -10.37824
 Alpha  occ. eigenvalues --  -10.37763 -10.37477 -10.37093 -10.36084 -10.35922
 Alpha  occ. eigenvalues --  -10.35794 -10.35593 -10.33168 -10.33086 -10.30866
 Alpha  occ. eigenvalues --  -10.30306 -10.29778 -10.29508 -10.28566 -10.28131
 Alpha  occ. eigenvalues --  -10.27502  -1.22428  -1.17396  -1.16782  -1.14901
 Alpha  occ. eigenvalues --   -1.12835  -1.11865  -1.10868  -1.10567  -1.10155
 Alpha  occ. eigenvalues --   -1.09763  -1.09053  -1.07673  -1.06051  -1.05342
 Alpha  occ. eigenvalues --   -1.01126  -1.00773  -1.00122  -0.99049  -0.98870
 Alpha  occ. eigenvalues --   -0.98236  -0.96379  -0.93369  -0.88245  -0.84702
 Alpha  occ. eigenvalues --   -0.83408  -0.82531  -0.80861  -0.79573  -0.77942
 Alpha  occ. eigenvalues --   -0.77129  -0.77110  -0.76450  -0.75207  -0.74739
 Alpha  occ. eigenvalues --   -0.71740  -0.69625  -0.67951  -0.67249  -0.66562
 Alpha  occ. eigenvalues --   -0.66129  -0.65756  -0.65400  -0.65132  -0.64857
 Alpha  occ. eigenvalues --   -0.64044  -0.63804  -0.62397  -0.62244  -0.61703
 Alpha  occ. eigenvalues --   -0.61329  -0.60870  -0.60092  -0.58861  -0.58207
 Alpha  occ. eigenvalues --   -0.57654  -0.56576  -0.56314  -0.55655  -0.55175
 Alpha  occ. eigenvalues --   -0.55021  -0.54743  -0.54640  -0.54132  -0.53720
 Alpha  occ. eigenvalues --   -0.53388  -0.53151  -0.52800  -0.52367  -0.52230
 Alpha  occ. eigenvalues --   -0.51841  -0.51351  -0.51094  -0.50650  -0.50462
 Alpha  occ. eigenvalues --   -0.49608  -0.49475  -0.48633  -0.48422  -0.48093
 Alpha  occ. eigenvalues --   -0.47645  -0.46777  -0.46580  -0.46308  -0.45787
 Alpha  occ. eigenvalues --   -0.45386  -0.45197  -0.45012  -0.44463  -0.44234
 Alpha  occ. eigenvalues --   -0.43873  -0.43784  -0.43303  -0.42435  -0.42396
 Alpha  occ. eigenvalues --   -0.41948  -0.41111  -0.39649  -0.39243  -0.36432
 Alpha  occ. eigenvalues --   -0.36091  -0.35555  -0.35225  -0.34355  -0.34246
 Alpha  occ. eigenvalues --   -0.33590  -0.33289  -0.33136  -0.32857  -0.32061
 Alpha  occ. eigenvalues --   -0.31433  -0.31304  -0.30916  -0.29949  -0.28778
 Alpha virt. eigenvalues --   -0.15011  -0.14344  -0.10520  -0.08899  -0.07531
 Alpha virt. eigenvalues --   -0.07503  -0.06309  -0.05932  -0.04610  -0.04590
 Alpha virt. eigenvalues --   -0.04433  -0.03930  -0.03908  -0.03560  -0.02923

 Mulliken charges:
               1
     1  N   -0.749391
     2  H    0.426742
     3  H    0.441844
     4  H    0.426668
     5  C   -0.277698
     6  H    0.252720
     7  H    0.252661
     8  C    0.641658
     9  O   -0.519287
    10  N   -0.606540
    11  H    0.384011
    12  C   -0.213387
    13  H    0.218368
    14  H    0.217405
    15  C    0.611744
    16  O   -0.509658
    17  N   -0.617818
    18  H    0.352876
    19  C   -0.238596
    20  H    0.233734
    21  H    0.209686
    22  C    0.592902
    23  O   -0.495707
    24  N   -0.583320
    25  H    0.337058
    26  C   -0.248695
    27  H    0.232294
    28  H    0.196784
    29  C    0.576551
    30  O   -0.557327
    31  N   -0.597019
    32  H    0.396107
    33  C   -0.231990
    34  H    0.195438
    35  H    0.197641
    36  C    0.568150
    37  O   -0.476884
    38  N   -0.618522
    39  H    0.352841
    40  C   -0.226506
    41  H    0.225862
    42  H    0.181041
    43  C    0.611721
    44  O   -0.551856
    45  N   -0.594368
    46  H    0.354627
    47  C   -0.259726
    48  H    0.220593
    49  H    0.217842
    50  C    0.627226
    51  O   -0.576160
    52  N   -0.603690
    53  H    0.398117
    54  C   -0.181560
    55  H    0.177334
    56  H    0.196268
    57  C    0.579916
    58  O   -0.520448
    59  N   -0.574824
    60  H    0.346518
    61  C   -0.238141
    62  H    0.189242
    63  H    0.201521
    64  C    0.578046
    65  O   -0.495414
    66  N   -0.585104
    67  H    0.371291
    68  C   -0.231264
    69  H    0.225033
    70  H    0.194605
    71  C    0.578773
    72  O   -0.496829
    73  O   -0.576534
    74  H    0.462804
 Sum of Mulliken charges =   1.00000

 Dipole moment (field-independent basis, Debye):
    X=            -26.2168    Y=             20.0505    Z=              1.3223  Tot=             33.0316
 Quadrupole moment (field-independent basis, Debye-Ang):
   XX=            -69.5541   YY=           -163.7968   ZZ=           -180.6600
   XY=            -94.7523   XZ=             55.6750   YZ=            -11.6270

 Normal termination of Gaussian 16 at Sat Jul  9 19:22:04 2022.
