 Gaussian 16, Revision C.01,
 Gaussian 16:  ES64L-G16RevC.01  3-Jul-2019

 -------------------------------------------------------------------
 # B3LYP/6-31G* guess=read geom=check nosymm integral(ultrafinegrid)
 -------------------------------------------------------------------

 ------------------------------------------------------
 Candidate Structure: Conf:211 Charge calc in gas phase
 ------------------------------------------------------
 Structure from the checkpoint file:  "conf-211.chk"
 Charge =  1 Multiplicity = 1

                          Input orientation:
 ---------------------------------------------------------------------
 Center     Atomic      Atomic             Coordinates (Angstroms)
 Number     Number       Type             X           Y           Z
 ---------------------------------------------------------------------
      1          7           0       -3.357965    5.236296    1.070400
      2          1           0       -4.141983    4.618869    0.846227
      3          1           0       -3.662470    6.137051    1.463093
      4          1           0       -2.845987    5.444742    0.177719
      5          6           0       -2.397444    4.607960    2.032633
      6          1           0       -2.944481    4.327011    2.936536
      7          1           0       -1.973045    3.727304    1.552542
      8          6           0       -1.364675    5.707013    2.328882
      9          8           0       -1.747444    6.868375    2.395959
     10          7           0       -0.080926    5.291292    2.456243
     11          1           0        0.114699    4.319417    2.238340
     12          6           0        1.013764    6.251677    2.342270
     13          1           0        1.924389    5.799260    2.747323
     14          1           0        0.781155    7.143198    2.924118
     15          6           0        1.241156    6.720349    0.886793
     16          8           0        1.506916    7.874567    0.620248
     17          7           0        1.141365    5.723712   -0.077885
     18          1           0        0.767076    4.832592    0.236710
     19          6           0        0.733253    6.090755   -1.432310
     20          1           0        0.799722    7.179760   -1.510430
     21          1           0        1.391189    5.642336   -2.181843
     22          6           0       -0.713193    5.633085   -1.631504
     23          8           0       -1.596088    5.994289   -0.841050
     24          7           0       -0.940333    4.779873   -2.653194
     25          1           0       -0.127485    4.375845   -3.117647
     26          6           0       -2.193881    4.036307   -2.732152
     27          1           0       -3.039856    4.714506   -2.621713
     28          1           0       -2.250629    3.555952   -3.713004
     29          6           0       -2.266541    2.990740   -1.601108
     30          8           0       -3.115248    3.042733   -0.712072
     31          7           0       -1.292321    2.037984   -1.659268
     32          1           0       -0.548749    2.156624   -2.344443
     33          6           0       -0.988625    1.184277   -0.520648
     34          1           0       -0.793390    0.161347   -0.857927
     35          1           0       -1.865275    1.177197    0.130106
     36          6           0        0.208697    1.784327    0.226916
     37          8           0        0.129155    2.916718    0.730022
     38          7           0        1.338789    1.049961    0.238661
     39          1           0        1.363414    0.199453   -0.313036
     40          6           0        2.653994    1.645605    0.482930
     41          1           0        2.518546    2.544889    1.083486
     42          1           0        3.284456    0.936520    1.024127
     43          6           0        3.248644    1.896173   -0.909354
     44          8           0        3.489609    0.946296   -1.645080
     45          7           0        3.382112    3.189758   -1.308877
     46          1           0        3.010908    3.939855   -0.737928
     47          6           0        3.644033    3.448814   -2.710406
     48          1           0        3.813428    4.522816   -2.838604
     49          1           0        4.554651    2.925613   -3.014400
     50          6           0        2.463734    3.024189   -3.605932
     51          8           0        1.287083    3.083418   -3.197285
     52          7           0        2.791503    2.652314   -4.843301
     53          1           0        3.760238    2.551994   -5.148496
     54          6           0        1.836633    2.264217   -5.860121
     55          1           0        1.152184    3.089968   -6.091362
     56          1           0        1.228331    1.416937   -5.519938
     57          6           0        2.652719    1.875704   -7.106841
     58          8           0        3.881837    1.924616   -7.086800
     59          7           0        1.929086    1.494774   -8.172446
     60          1           0        0.912308    1.454447   -8.171662
     61          6           0        2.529528    1.088815   -9.424901
     62          1           0        3.204507    0.236367   -9.276597
     63          1           0        3.128582    1.902437   -9.854028
     64          6           0        1.381467    0.710162  -10.370907
     65          8           0        0.211659    0.788880  -10.002449
     66          7           0        1.762923    0.288299  -11.599897
     67          1           0        2.740839    0.317572  -11.856745
     68          6           0        0.802633   -0.028233  -12.641912
     69          1           0       -0.182661    0.307443  -12.312476
     70          1           0        0.734455   -1.112461  -12.805352
     71          6           0        1.109532    0.605355  -13.990357
     72          8           0        0.335570    0.616413  -14.914374
     73          8           0        2.366289    1.110173  -14.051855
     74          1           0        2.483878    1.458431  -14.956541
 ---------------------------------------------------------------------

 SCF Done:  E(RB3LYP) =  -2156.95000487     A.U. after    3 cycles

 Alpha  occ. eigenvalues --  -19.27502 -19.25571 -19.24258 -19.24140 -19.23842
 Alpha  occ. eigenvalues --  -19.23199 -19.22453 -19.21363 -19.21324 -19.21183
 Alpha  occ. eigenvalues --  -19.20835 -14.55793 -14.49780 -14.48259 -14.47986
 Alpha  occ. eigenvalues --  -14.47495 -14.47331 -14.47302 -14.45776 -14.45269
 Alpha  occ. eigenvalues --  -14.45227 -10.42493 -10.41172 -10.40913 -10.40708
 Alpha  occ. eigenvalues --  -10.40662 -10.39858 -10.39807 -10.38722 -10.38421
 Alpha  occ. eigenvalues --  -10.38187 -10.36576 -10.35232 -10.34728 -10.34603
 Alpha  occ. eigenvalues --  -10.34173 -10.33665 -10.33190 -10.32850 -10.32103
 Alpha  occ. eigenvalues --  -10.31408  -1.18123  -1.17148  -1.16182  -1.15606
 Alpha  occ. eigenvalues --   -1.15394  -1.15196  -1.14338  -1.13462  -1.13168
 Alpha  occ. eigenvalues --   -1.12596  -1.10271  -1.09150  -1.05665  -1.05091
 Alpha  occ. eigenvalues --   -1.04017  -1.03698  -1.03532  -1.03380  -1.01849
 Alpha  occ. eigenvalues --   -1.01572  -1.01391  -0.88889  -0.87632  -0.87105
 Alpha  occ. eigenvalues --   -0.86025  -0.84737  -0.83438  -0.82105  -0.80910
 Alpha  occ. eigenvalues --   -0.79284  -0.78543  -0.72357  -0.71771  -0.71104
 Alpha  occ. eigenvalues --   -0.70735  -0.70175  -0.69960  -0.69870  -0.69642
 Alpha  occ. eigenvalues --   -0.69012  -0.68753  -0.67731  -0.67319  -0.66710
 Alpha  occ. eigenvalues --   -0.65519  -0.64895  -0.63397  -0.62902  -0.62060
 Alpha  occ. eigenvalues --   -0.61349  -0.61082  -0.60045  -0.59797  -0.59476
 Alpha  occ. eigenvalues --   -0.59245  -0.58647  -0.58550  -0.57795  -0.57382
 Alpha  occ. eigenvalues --   -0.57059  -0.56688  -0.56486  -0.55914  -0.55596
 Alpha  occ. eigenvalues --   -0.55333  -0.55172  -0.54813  -0.54711  -0.54450
 Alpha  occ. eigenvalues --   -0.53943  -0.53571  -0.53239  -0.52834  -0.52294
 Alpha  occ. eigenvalues --   -0.52033  -0.51582  -0.51444  -0.51188  -0.50688
 Alpha  occ. eigenvalues --   -0.50406  -0.49882  -0.49557  -0.49348  -0.49061
 Alpha  occ. eigenvalues --   -0.48835  -0.48335  -0.47935  -0.47821  -0.47810
 Alpha  occ. eigenvalues --   -0.47384  -0.46948  -0.46229  -0.45955  -0.44528
 Alpha  occ. eigenvalues --   -0.40970  -0.40292  -0.40077  -0.39330  -0.38920
 Alpha  occ. eigenvalues --   -0.38801  -0.38620  -0.37636  -0.37254  -0.37089
 Alpha  occ. eigenvalues --   -0.36824  -0.36598  -0.36371  -0.35982  -0.35650
 Alpha  occ. eigenvalues --   -0.35433  -0.34924  -0.34706  -0.33854  -0.33167
 Alpha virt. eigenvalues --   -0.13050  -0.11317  -0.10197  -0.10019  -0.09223
 Alpha virt. eigenvalues --   -0.08451  -0.07225  -0.07064  -0.06342  -0.05869
 Alpha virt. eigenvalues --   -0.05175  -0.03957  -0.03032  -0.01733  -0.00605

 Mulliken charges:
               1
     1  N   -0.740912
     2  H    0.413532
     3  H    0.410075
     4  H    0.454403
     5  C   -0.300351
     6  H    0.225094
     7  H    0.237053
     8  C    0.637628
     9  O   -0.498249
    10  N   -0.614171
    11  H    0.369100
    12  C   -0.255285
    13  H    0.191356
    14  H    0.236366
    15  C    0.597855
    16  O   -0.458381
    17  N   -0.635799
    18  H    0.366454
    19  C   -0.224922
    20  H    0.235482
    21  H    0.154755
    22  C    0.598480
    23  O   -0.553035
    24  N   -0.587887
    25  H    0.385964
    26  C   -0.247540
    27  H    0.205505
    28  H    0.196324
    29  C    0.612323
    30  O   -0.545997
    31  N   -0.580739
    32  H    0.371837
    33  C   -0.237472
    34  H    0.182641
    35  H    0.219974
    36  C    0.612272
    37  O   -0.555069
    38  N   -0.552690
    39  H    0.362871
    40  C   -0.237582
    41  H    0.181453
    42  H    0.213376
    43  C    0.606051
    44  O   -0.507562
    45  N   -0.577449
    46  H    0.354908
    47  C   -0.247925
    48  H    0.201338
    49  H    0.210680
    50  C    0.649495
    51  O   -0.598385
    52  N   -0.588975
    53  H    0.378280
    54  C   -0.203444
    55  H    0.189085
    56  H    0.194390
    57  C    0.615160
    58  O   -0.522285
    59  N   -0.625028
    60  H    0.362218
    61  C   -0.196900
    62  H    0.201469
    63  H    0.200233
    64  C    0.603299
    65  O   -0.519945
    66  N   -0.602044
    67  H    0.354825
    68  C   -0.226941
    69  H    0.236253
    70  H    0.210102
    71  C    0.583520
    72  O   -0.432049
    73  O   -0.575332
    74  H    0.426870
 Sum of Mulliken charges =   1.00000

 Dipole moment (field-independent basis, Debye):
    X=              0.4153    Y=             11.6572    Z=            -11.5143  Tot=             16.3903
 Quadrupole moment (field-independent basis, Debye-Ang):
   XX=           -193.3482   YY=           -211.0334   ZZ=            -80.0896
   XY=            -15.5860   XZ=            -58.1451   YZ=            -16.8985

 Normal termination of Gaussian 16 at Sat Jul  9 19:22:34 2022.
