 Gaussian 16, Revision C.01,
 Gaussian 16:  ES64L-G16RevC.01  3-Jul-2019

 -------------------------------------------------------------------
 # B3LYP/6-31G* guess=read geom=check nosymm integral(ultrafinegrid)
 -------------------------------------------------------------------

 ------------------------------------------------------
 Candidate Structure: Conf:961 Charge calc in gas phase
 ------------------------------------------------------
 Structure from the checkpoint file:  "conf-961.chk"
 Charge =  1 Multiplicity = 1

                          Input orientation:
 ---------------------------------------------------------------------
 Center     Atomic      Atomic             Coordinates (Angstroms)
 Number     Number       Type             X           Y           Z
 ---------------------------------------------------------------------
      1          7           0       -2.887035   14.849493   -6.121698
      2          1           0       -3.618772   15.356325   -5.616316
      3          1           0       -1.987260   14.808884   -5.530490
      4          1           0       -2.708026   15.335880   -7.004359
      5          6           0       -3.173478   13.382218   -6.287904
      6          1           0       -4.150046   13.146052   -5.861842
      7          1           0       -3.171688   13.123561   -7.348136
      8          6           0       -2.012423   12.698872   -5.513486
      9          8           0       -1.182229   13.452331   -4.980086
     10          7           0       -2.007354   11.379254   -5.488478
     11          1           0       -2.716109   10.790728   -5.943344
     12          6           0       -1.005768   10.566177   -4.814448
     13          1           0       -0.978594   10.793774   -3.743086
     14          1           0       -0.008581   10.759887   -5.224984
     15          6           0       -1.439820    9.106263   -5.065840
     16          8           0       -2.455882    8.884143   -5.731691
     17          7           0       -0.657376    8.168980   -4.526460
     18          1           0        0.175185    8.379369   -3.974339
     19          6           0       -0.905929    6.745809   -4.648818
     20          1           0       -1.891321    6.485591   -4.243969
     21          1           0       -0.893135    6.435415   -5.700682
     22          6           0        0.213076    6.043485   -3.859525
     23          8           0        1.085840    6.706837   -3.295943
     24          7           0        0.154812    4.703465   -3.841761
     25          1           0       -0.577398    4.169589   -4.306450
     26          6           0        1.119324    3.881642   -3.141998
     27          1           0        2.128498    4.029735   -3.546885
     28          1           0        1.158508    4.146212   -2.077960
     29          6           0        0.677879    2.421629   -3.322412
     30          8           0       -0.319963    2.141253   -3.987442
     31          7           0        1.452389    1.505993   -2.712663
     32          1           0        2.254689    1.753261   -2.138742
     33          6           0        1.169168    0.088977   -2.760486
     34          1           0        1.274334   -0.300793   -3.782003
     35          1           0        0.136105   -0.109036   -2.447175
     36          6           0        2.164625   -0.609327   -1.824483
     37          8           0        3.032585    0.028603   -1.237440
     38          7           0        2.010644   -1.956775   -1.721762
     39          1           0        1.229350   -2.391447   -2.195995
     40          6           0        2.834651   -2.785764   -0.852120
     41          1           0        3.504387   -2.112299   -0.310997
     42          1           0        2.217591   -3.306792   -0.113701
     43          6           0        3.684709   -3.850752   -1.560999
     44          8           0        4.163633   -4.779505   -0.922270
     45          7           0        3.870195   -3.673798   -2.889794
     46          1           0        3.472437   -2.890733   -3.395865
     47          6           0        4.665913   -4.576906   -3.684163
     48          1           0        5.717729   -4.566711   -3.365848
     49          1           0        4.314223   -5.609878   -3.564792
     50          6           0        4.553139   -4.135203   -5.147367
     51          8           0        3.894348   -3.146858   -5.473105
     52          7           0        5.228081   -4.899007   -6.032017
     53          1           0        5.775184   -5.705925   -5.749295
     54          6           0        5.244830   -4.612088   -7.448585
     55          1           0        5.427879   -3.545048   -7.617853
     56          1           0        4.282006   -4.861031   -7.917387
     57          6           0        6.322463   -5.477227   -8.097701
     58          8           0        6.847050   -6.411199   -7.485677
     59          7           0        6.649195   -5.151198   -9.372245
     60          1           0        6.059515   -4.490845   -9.863066
     61          6           0        7.503782   -6.014799  -10.189043
     62          1           0        8.323302   -6.369278   -9.559071
     63          1           0        7.905426   -5.431224  -11.017959
     64          6           0        6.685793   -7.180353  -10.767418
     65          8           0        6.280881   -7.181061  -11.920284
     66          7           0        6.421751   -8.175746   -9.861281
     67          1           0        6.638887   -7.965851   -8.890225
     68          6           0        5.337360   -9.091116  -10.117681
     69          1           0        5.487471  -10.032774   -9.579876
     70          1           0        5.312795   -9.319803  -11.186582
     71          6           0        3.986351   -8.501521   -9.720295
     72          8           0        3.806188   -7.394690   -9.261075
     73          8           0        2.992197   -9.385047   -9.943899
     74          1           0        2.159979   -8.948645   -9.680607
 ---------------------------------------------------------------------

 SCF Done:  E(RB3LYP) =  -2156.91534265     A.U. after    3 cycles

 Alpha  occ. eigenvalues --  -19.28646 -19.24579 -19.22732 -19.20036 -19.19186
 Alpha  occ. eigenvalues --  -19.18905 -19.18880 -19.18539 -19.17034 -19.15954
 Alpha  occ. eigenvalues --  -19.14951 -14.62074 -14.50959 -14.46088 -14.43797
 Alpha  occ. eigenvalues --  -14.43410 -14.42875 -14.42866 -14.41282 -14.40050
 Alpha  occ. eigenvalues --  -14.39934 -10.45454 -10.42556 -10.39977 -10.37321
 Alpha  occ. eigenvalues --  -10.37076 -10.36239 -10.36158 -10.35584 -10.35417
 Alpha  occ. eigenvalues --  -10.34276 -10.33066 -10.32773 -10.32053 -10.30408
 Alpha  occ. eigenvalues --  -10.30027 -10.28644 -10.28039 -10.27996 -10.27887
 Alpha  occ. eigenvalues --  -10.27762  -1.21113  -1.15694  -1.15533  -1.14672
 Alpha  occ. eigenvalues --   -1.12061  -1.11173  -1.10475  -1.10409  -1.08916
 Alpha  occ. eigenvalues --   -1.07822  -1.07464  -1.07050  -1.06528  -1.02588
 Alpha  occ. eigenvalues --   -1.00296  -0.99548  -0.99225  -0.98823  -0.97725
 Alpha  occ. eigenvalues --   -0.96583  -0.96240  -0.91983  -0.86626  -0.83999
 Alpha  occ. eigenvalues --   -0.82530  -0.81934  -0.80217  -0.79080  -0.77314
 Alpha  occ. eigenvalues --   -0.76003  -0.75864  -0.75688  -0.73624  -0.73335
 Alpha  occ. eigenvalues --   -0.69498  -0.68024  -0.67285  -0.67205  -0.66188
 Alpha  occ. eigenvalues --   -0.65248  -0.65130  -0.64793  -0.64228  -0.63105
 Alpha  occ. eigenvalues --   -0.62737  -0.62474  -0.62142  -0.60918  -0.60060
 Alpha  occ. eigenvalues --   -0.59388  -0.59299  -0.57482  -0.56732  -0.56568
 Alpha  occ. eigenvalues --   -0.56429  -0.55687  -0.54980  -0.54879  -0.54769
 Alpha  occ. eigenvalues --   -0.54180  -0.53856  -0.53784  -0.53336  -0.53063
 Alpha  occ. eigenvalues --   -0.52848  -0.52771  -0.52449  -0.51627  -0.51546
 Alpha  occ. eigenvalues --   -0.51107  -0.50799  -0.50382  -0.50070  -0.49852
 Alpha  occ. eigenvalues --   -0.48370  -0.48066  -0.47775  -0.47534  -0.46777
 Alpha  occ. eigenvalues --   -0.46606  -0.45790  -0.45696  -0.45449  -0.45068
 Alpha  occ. eigenvalues --   -0.44955  -0.44794  -0.44095  -0.43831  -0.43745
 Alpha  occ. eigenvalues --   -0.43313  -0.42736  -0.42245  -0.41757  -0.41432
 Alpha  occ. eigenvalues --   -0.40893  -0.39448  -0.37394  -0.36855  -0.36001
 Alpha  occ. eigenvalues --   -0.34643  -0.34057  -0.33827  -0.33610  -0.33502
 Alpha  occ. eigenvalues --   -0.33107  -0.32690  -0.32482  -0.32034  -0.31189
 Alpha  occ. eigenvalues --   -0.31122  -0.30300  -0.29335  -0.28640  -0.28482
 Alpha virt. eigenvalues --   -0.13674  -0.13308  -0.08322  -0.07656  -0.06214
 Alpha virt. eigenvalues --   -0.05580  -0.04717  -0.04666  -0.03753  -0.03725
 Alpha virt. eigenvalues --   -0.02787  -0.02728  -0.02047  -0.01823  -0.01071

 Mulliken charges:
               1
     1  N   -0.750854
     2  H    0.423686
     3  H    0.441334
     4  H    0.423642
     5  C   -0.276912
     6  H    0.249760
     7  H    0.249752
     8  C    0.640493
     9  O   -0.524182
    10  N   -0.605115
    11  H    0.381720
    12  C   -0.212131
    13  H    0.216128
    14  H    0.216236
    15  C    0.620568
    16  O   -0.534855
    17  N   -0.621783
    18  H    0.369869
    19  C   -0.200428
    20  H    0.201755
    21  H    0.201943
    22  C    0.612935
    23  O   -0.532800
    24  N   -0.623511
    25  H    0.364244
    26  C   -0.195514
    27  H    0.198626
    28  H    0.197687
    29  C    0.609330
    30  O   -0.532134
    31  N   -0.623564
    32  H    0.364285
    33  C   -0.198034
    34  H    0.202478
    35  H    0.193316
    36  C    0.599111
    37  O   -0.510353
    38  N   -0.621300
    39  H    0.342398
    40  C   -0.228011
    41  H    0.226961
    42  H    0.191485
    43  C    0.596807
    44  O   -0.515889
    45  N   -0.612666
    46  H    0.349776
    47  C   -0.187272
    48  H    0.191683
    49  H    0.192248
    50  C    0.603701
    51  O   -0.539548
    52  N   -0.622170
    53  H    0.360001
    54  C   -0.194484
    55  H    0.189200
    56  H    0.213348
    57  C    0.620725
    58  O   -0.545258
    59  N   -0.584615
    60  H    0.348058
    61  C   -0.242339
    62  H    0.199108
    63  H    0.187946
    64  C    0.588580
    65  O   -0.498200
    66  N   -0.573551
    67  H    0.365928
    68  C   -0.238566
    69  H    0.195530
    70  H    0.227357
    71  C    0.584545
    72  O   -0.471357
    73  O   -0.553494
    74  H    0.416606
 Sum of Mulliken charges =   1.00000

 Dipole moment (field-independent basis, Debye):
    X=            -10.7389    Y=             52.2806    Z=            -30.4313  Tot=             61.4382
 Quadrupole moment (field-independent basis, Debye-Ang):
   XX=           -187.1041   YY=            586.5457   ZZ=            -58.7811
   XY=           -181.0579   XZ=             45.1175   YZ=           -319.5573

 Normal termination of Gaussian 16 at Sat Jul  9 19:22:58 2022.
