 Gaussian 16, Revision C.01,
 Gaussian 16:  ES64L-G16RevC.01  3-Jul-2019

 -------------------------------------------------------------------
 # B3LYP/6-31G* guess=read geom=check nosymm integral(ultrafinegrid)
 -------------------------------------------------------------------

 ------------------------------------------------------
 Candidate Structure: Conf:876 Charge calc in gas phase
 ------------------------------------------------------
 Structure from the checkpoint file:  "conf-876.chk"
 Charge =  1 Multiplicity = 1

                          Input orientation:
 ---------------------------------------------------------------------
 Center     Atomic      Atomic             Coordinates (Angstroms)
 Number     Number       Type             X           Y           Z
 ---------------------------------------------------------------------
      1          7           0       -1.065894    8.286729    6.546818
      2          1           0       -1.412904    7.397419    6.955885
      3          1           0       -1.799466    8.996828    6.608934
      4          1           0       -0.862457    8.053876    5.540921
      5          6           0        0.216610    8.725576    7.241988
      6          1           0        0.284533    9.811376    7.201958
      7          1           0        0.182560    8.371244    8.276091
      8          6           0        1.381936    8.129595    6.438073
      9          8           0        2.205432    8.834726    5.889142
     10          7           0        1.326648    6.759270    6.339121
     11          1           0        0.549546    6.307868    6.816279
     12          6           0        1.726821    6.134616    5.095836
     13          1           0        2.007886    5.090373    5.251247
     14          1           0        2.598901    6.671588    4.709906
     15          6           0        0.593583    6.243455    4.057588
     16          8           0       -0.275744    7.128198    4.119411
     17          7           0        0.658680    5.339736    3.060479
     18          1           0        1.264113    4.530666    3.200447
     19          6           0       -0.271163    5.330510    1.953598
     20          1           0       -0.926502    6.199649    2.072133
     21          1           0        0.270198    5.445631    1.006015
     22          6           0       -1.139382    4.066500    1.926599
     23          8           0       -1.490731    3.478273    2.948192
     24          7           0       -1.514267    3.656541    0.686094
     25          1           0       -1.237218    4.211838   -0.112981
     26          6           0       -2.456170    2.561899    0.481807
     27          1           0       -3.098890    2.485563    1.360735
     28          1           0       -3.091870    2.793188   -0.377908
     29          6           0       -1.854763    1.165466    0.250906
     30          8           0       -2.591327    0.189993    0.234108
     31          7           0       -0.512722    1.104100    0.046138
     32          1           0        0.076613    1.920519    0.146144
     33          6           0        0.168474   -0.160977   -0.121248
     34          1           0        0.255420   -0.433131   -1.184036
     35          1           0       -0.423871   -0.944779    0.361133
     36          6           0        1.575497   -0.044799    0.459294
     37          8           0        2.154672    1.044164    0.508834
     38          7           0        2.144309   -1.201598    0.876908
     39          1           0        1.585090   -2.042610    0.919314
     40          6           0        3.495126   -1.237554    1.434947
     41          1           0        3.807580   -2.279554    1.512140
     42          1           0        4.173959   -0.708180    0.760546
     43          6           0        3.513424   -0.628862    2.846369
     44          8           0        3.228850   -1.293820    3.841616
     45          7           0        3.832189    0.694171    2.887473
     46          1           0        3.727575    1.201145    2.012903
     47          6           0        3.720151    1.451538    4.129091
     48          1           0        4.120779    0.837099    4.939673
     49          1           0        4.308914    2.365888    4.044243
     50          6           0        2.262039    1.839913    4.406422
     51          8           0        1.838076    2.988961    4.223589
     52          7           0        1.464321    0.828122    4.806159
     53          1           0        1.877426   -0.099869    4.872107
     54          6           0        0.019335    0.984183    4.848151
     55          1           0       -0.420662   -0.014677    4.916728
     56          1           0       -0.331293    1.456296    3.925899
     57          6           0       -0.478362    1.764188    6.071128
     58          8           0       -0.214148    1.408697    7.222497
     59          7           0       -1.280724    2.819063    5.784763
     60          1           0       -1.357584    3.148726    4.822493
     61          6           0       -2.024416    3.507170    6.828933
     62          1           0       -2.475935    2.765350    7.496651
     63          1           0       -2.815516    4.095553    6.362618
     64          6           0       -1.155602    4.464632    7.650861
     65          8           0       -1.213418    5.704269    7.503407
     66          7           0       -0.323143    3.898685    8.532769
     67          1           0       -0.223609    2.880507    8.480023
     68          6           0        0.586731    4.700924    9.339235
     69          1           0        1.345636    5.195823    8.726614
     70          1           0        1.088872    4.028620   10.040419
     71          6           0       -0.130054    5.787503   10.140496
     72          8           0        0.179338    6.959348   10.137769
     73          8           0       -1.123487    5.278488   10.888023
     74          1           0       -1.511868    6.016775   11.395828
 ---------------------------------------------------------------------

 SCF Done:  E(RB3LYP) =  -2156.96113869     A.U. after    1 cycles

 Alpha  occ. eigenvalues --  -19.29843 -19.25199 -19.24443 -19.24085 -19.23904
 Alpha  occ. eigenvalues --  -19.22820 -19.22647 -19.22541 -19.21893 -19.21671
 Alpha  occ. eigenvalues --  -19.19599 -14.55942 -14.48348 -14.47863 -14.47448
 Alpha  occ. eigenvalues --  -14.47164 -14.46160 -14.46076 -14.46037 -14.45902
 Alpha  occ. eigenvalues --  -14.45069 -10.42869 -10.41359 -10.41032 -10.40501
 Alpha  occ. eigenvalues --  -10.40016 -10.39832 -10.39206 -10.38912 -10.38655
 Alpha  occ. eigenvalues --  -10.37531 -10.36103 -10.34454 -10.34331 -10.33888
 Alpha  occ. eigenvalues --  -10.33003 -10.32996 -10.32760 -10.32590 -10.32588
 Alpha  occ. eigenvalues --  -10.32543  -1.20963  -1.16313  -1.15844  -1.15345
 Alpha  occ. eigenvalues --   -1.14737  -1.14362  -1.14186  -1.13426  -1.13044
 Alpha  occ. eigenvalues --   -1.11919  -1.11842  -1.10478  -1.04302  -1.04182
 Alpha  occ. eigenvalues --   -1.03695  -1.03198  -1.02977  -1.02591  -1.02315
 Alpha  occ. eigenvalues --   -1.01650  -1.01066  -0.88006  -0.87784  -0.86726
 Alpha  occ. eigenvalues --   -0.86009  -0.84811  -0.83359  -0.82102  -0.80428
 Alpha  occ. eigenvalues --   -0.79180  -0.78095  -0.73560  -0.71444  -0.71094
 Alpha  occ. eigenvalues --   -0.70655  -0.70385  -0.69981  -0.69590  -0.68749
 Alpha  occ. eigenvalues --   -0.68012  -0.67913  -0.67589  -0.67248  -0.65774
 Alpha  occ. eigenvalues --   -0.64354  -0.64080  -0.63713  -0.63034  -0.62478
 Alpha  occ. eigenvalues --   -0.61523  -0.61268  -0.60122  -0.60036  -0.59441
 Alpha  occ. eigenvalues --   -0.59205  -0.58677  -0.58348  -0.57997  -0.57581
 Alpha  occ. eigenvalues --   -0.57097  -0.56736  -0.56501  -0.56228  -0.55962
 Alpha  occ. eigenvalues --   -0.55856  -0.54911  -0.54443  -0.54151  -0.53790
 Alpha  occ. eigenvalues --   -0.53442  -0.53280  -0.52857  -0.52227  -0.51851
 Alpha  occ. eigenvalues --   -0.51726  -0.51288  -0.51214  -0.51170  -0.50977
 Alpha  occ. eigenvalues --   -0.50438  -0.50095  -0.49522  -0.49119  -0.48897
 Alpha  occ. eigenvalues --   -0.48577  -0.48537  -0.48149  -0.47917  -0.47546
 Alpha  occ. eigenvalues --   -0.47289  -0.47151  -0.46856  -0.46407  -0.44303
 Alpha  occ. eigenvalues --   -0.42242  -0.39904  -0.39223  -0.39054  -0.38930
 Alpha  occ. eigenvalues --   -0.38573  -0.38299  -0.38203  -0.37708  -0.37182
 Alpha  occ. eigenvalues --   -0.37090  -0.36760  -0.36462  -0.35713  -0.35486
 Alpha  occ. eigenvalues --   -0.34829  -0.34530  -0.34313  -0.33737  -0.33160
 Alpha virt. eigenvalues --   -0.11258  -0.10824  -0.09933  -0.09758  -0.09503
 Alpha virt. eigenvalues --   -0.08842  -0.08528  -0.08133  -0.07490  -0.05847
 Alpha virt. eigenvalues --   -0.05776  -0.03516  -0.02271  -0.01630  -0.00328

 Mulliken charges:
               1
     1  N   -0.798270
     2  H    0.436824
     3  H    0.401062
     4  H    0.448899
     5  C   -0.295881
     6  H    0.228776
     7  H    0.266171
     8  C    0.573442
     9  O   -0.453182
    10  N   -0.603532
    11  H    0.374623
    12  C   -0.281906
    13  H    0.213598
    14  H    0.233120
    15  C    0.619765
    16  O   -0.563953
    17  N   -0.588323
    18  H    0.393232
    19  C   -0.240975
    20  H    0.228867
    21  H    0.178889
    22  C    0.609908
    23  O   -0.516939
    24  N   -0.607288
    25  H    0.350917
    26  C   -0.233229
    27  H    0.219918
    28  H    0.203918
    29  C    0.604673
    30  O   -0.499817
    31  N   -0.606628
    32  H    0.344517
    33  C   -0.200302
    34  H    0.205091
    35  H    0.198738
    36  C    0.605923
    37  O   -0.544061
    38  N   -0.585911
    39  H    0.356089
    40  C   -0.231934
    41  H    0.203451
    42  H    0.197299
    43  C    0.592879
    44  O   -0.517924
    45  N   -0.565363
    46  H    0.368966
    47  C   -0.236712
    48  H    0.208447
    49  H    0.187261
    50  C    0.594124
    51  O   -0.554218
    52  N   -0.563465
    53  H    0.384468
    54  C   -0.250662
    55  H    0.199257
    56  H    0.194536
    57  C    0.621938
    58  O   -0.533926
    59  N   -0.616358
    60  H    0.408053
    61  C   -0.229384
    62  H    0.207277
    63  H    0.188841
    64  C    0.612527
    65  O   -0.593057
    66  N   -0.566899
    67  H    0.398340
    68  C   -0.214587
    69  H    0.203342
    70  H    0.212764
    71  C    0.588198
    72  O   -0.462606
    73  O   -0.538464
    74  H    0.426824
 Sum of Mulliken charges =   1.00000

 Dipole moment (field-independent basis, Debye):
    X=             -1.1976    Y=             21.5466    Z=             21.2924  Tot=             30.3159
 Quadrupole moment (field-independent basis, Debye-Ang):
   XX=           -215.0234   YY=            -82.2683   ZZ=            -59.4275
   XY=            -52.1116   XZ=            -30.0097   YZ=            137.7176

 Normal termination of Gaussian 16 at Sat Jul  9 19:21:32 2022.
