 Gaussian 16, Revision C.01,
 Gaussian 16:  ES64L-G16RevC.01  3-Jul-2019

 -------------------------------------------------------------------
 # B3LYP/6-31G* guess=read geom=check nosymm integral(ultrafinegrid)
 -------------------------------------------------------------------

 ------------------------------------------------------
 Candidate Structure: Conf:574 Charge calc in gas phase
 ------------------------------------------------------
 Structure from the checkpoint file:  "conf-574.chk"
 Charge =  1 Multiplicity = 1

                          Input orientation:
 ---------------------------------------------------------------------
 Center     Atomic      Atomic             Coordinates (Angstroms)
 Number     Number       Type             X           Y           Z
 ---------------------------------------------------------------------
      1          7           0       -3.736177    4.019442   -5.926358
      2          1           0       -4.554137    3.679853   -6.437371
      3          1           0       -2.931108    4.014675   -6.581614
      4          1           0       -3.447164    3.296846   -5.200906
      5          6           0       -3.957394    5.352627   -5.303407
      6          1           0       -4.413799    6.019739   -6.040808
      7          1           0       -4.638574    5.238897   -4.456903
      8          6           0       -2.577191    5.889109   -4.908964
      9          8           0       -1.601717    5.566985   -5.588076
     10          7           0       -2.519646    6.701072   -3.836883
     11          1           0       -3.344554    6.841739   -3.268296
     12          6           0       -1.262033    7.306464   -3.385590
     13          1           0       -1.495798    8.166693   -2.758956
     14          1           0       -0.710166    7.644983   -4.267886
     15          6           0       -0.387822    6.348795   -2.552284
     16          8           0       -0.073259    6.618655   -1.394110
     17          7           0       -0.002817    5.218086   -3.191925
     18          1           0       -0.273842    5.089106   -4.162321
     19          6           0        0.879053    4.245931   -2.559985
     20          1           0        1.270460    3.568629   -3.318111
     21          1           0        1.718629    4.774187   -2.094857
     22          6           0        0.165574    3.395305   -1.500473
     23          8           0       -0.259424    2.250251   -1.726048
     24          7           0        0.064217    3.948835   -0.274445
     25          1           0        0.230136    4.952857   -0.218137
     26          6           0       -0.631432    3.249881    0.802474
     27          1           0       -0.720903    3.936786    1.648912
     28          1           0       -1.636146    2.950429    0.492613
     29          6           0        0.066394    1.962763    1.279348
     30          8           0       -0.579276    1.069140    1.799888
     31          7           0        1.420087    1.926069    1.093040
     32          1           0        1.872872    2.745778    0.713147
     33          6           0        2.236562    0.787257    1.465248
     34          1           0        1.566451    0.052526    1.923213
     35          1           0        2.992810    1.058254    2.208285
     36          6           0        2.979947    0.122470    0.300742
     37          8           0        4.007260   -0.512292    0.497776
     38          7           0        2.414652    0.269732   -0.936689
     39          1           0        1.547678    0.781452   -1.050975
     40          6           0        3.013035   -0.348816   -2.094453
     41          1           0        3.990791   -0.727650   -1.782715
     42          1           0        2.423021   -1.214267   -2.436025
     43          6           0        3.108884    0.623851   -3.268860
     44          8           0        2.285059    1.511664   -3.457244
     45          7           0        4.134462    0.385183   -4.149386
     46          1           0        4.899160   -0.202657   -3.843832
     47          6           0        4.345992    1.267501   -5.289130
     48          1           0        4.033951    2.282130   -5.033310
     49          1           0        5.413185    1.292955   -5.530454
     50          6           0        3.593215    0.877580   -6.566664
     51          8           0        3.455150    1.691216   -7.480723
     52          7           0        3.151711   -0.400810   -6.640676
     53          1           0        3.227465   -0.985053   -5.819620
     54          6           0        2.555602   -0.943743   -7.855145
     55          1           0        2.595237   -2.032291   -7.809121
     56          1           0        3.140686   -0.596682   -8.713068
     57          6           0        1.080864   -0.553771   -8.036213
     58          8           0        0.175419   -1.384553   -7.908258
     59          7           0        0.856777    0.746675   -8.340861
     60          1           0        1.658723    1.377220   -8.319399
     61          6           0       -0.460461    1.249804   -8.707850
     62          1           0       -0.923621    0.545851   -9.410822
     63          1           0       -0.339323    2.210148   -9.209419
     64          6           0       -1.441870    1.471075   -7.546449
     65          8           0       -2.075233    2.528539   -7.431383
     66          7           0       -1.596695    0.427145   -6.705194
     67          1           0       -1.100102   -0.439418   -6.930210
     68          6           0       -2.516676    0.486193   -5.585990
     69          1           0       -2.637559   -0.526522   -5.192964
     70          1           0       -3.494012    0.853380   -5.911284
     71          6           0       -2.009193    1.381198   -4.451113
     72          8           0       -2.588295    2.413967   -4.097612
     73          8           0       -0.912377    0.928598   -3.903222
     74          1           0       -0.600709    1.513974   -3.137741
 ---------------------------------------------------------------------

 SCF Done:  E(RB3LYP) =  -2156.96229107     A.U. after    3 cycles

 Alpha  occ. eigenvalues --  -19.28747 -19.26623 -19.25978 -19.23979 -19.23272
 Alpha  occ. eigenvalues --  -19.23212 -19.22367 -19.21828 -19.21630 -19.18982
 Alpha  occ. eigenvalues --  -19.18300 -14.56433 -14.51288 -14.47180 -14.47147
 Alpha  occ. eigenvalues --  -14.46922 -14.46649 -14.46521 -14.45757 -14.44251
 Alpha  occ. eigenvalues --  -14.43602 -10.44179 -10.43706 -10.40304 -10.40256
 Alpha  occ. eigenvalues --  -10.39940 -10.39759 -10.39350 -10.38919 -10.38722
 Alpha  occ. eigenvalues --  -10.36830 -10.35959 -10.35334 -10.34462 -10.33255
 Alpha  occ. eigenvalues --  -10.33047 -10.33000 -10.32663 -10.31993 -10.31760
 Alpha  occ. eigenvalues --  -10.29899  -1.21065  -1.18938  -1.15438  -1.14737
 Alpha  occ. eigenvalues --   -1.14641  -1.14335  -1.13719  -1.13038  -1.12532
 Alpha  occ. eigenvalues --   -1.11263  -1.11208  -1.10366  -1.06972  -1.03546
 Alpha  occ. eigenvalues --   -1.03491  -1.03213  -1.02886  -1.02158  -1.01453
 Alpha  occ. eigenvalues --   -1.00643  -0.99168  -0.90138  -0.87261  -0.86591
 Alpha  occ. eigenvalues --   -0.85764  -0.84179  -0.83430  -0.81785  -0.80483
 Alpha  occ. eigenvalues --   -0.79244  -0.77290  -0.73769  -0.73279  -0.72127
 Alpha  occ. eigenvalues --   -0.70626  -0.70406  -0.69988  -0.69435  -0.68642
 Alpha  occ. eigenvalues --   -0.68227  -0.67556  -0.66652  -0.66309  -0.66177
 Alpha  occ. eigenvalues --   -0.64595  -0.64247  -0.63826  -0.63401  -0.63124
 Alpha  occ. eigenvalues --   -0.62168  -0.61450  -0.61241  -0.60428  -0.59770
 Alpha  occ. eigenvalues --   -0.59362  -0.58808  -0.58506  -0.58070  -0.57956
 Alpha  occ. eigenvalues --   -0.57551  -0.57320  -0.57013  -0.55469  -0.54887
 Alpha  occ. eigenvalues --   -0.54623  -0.54297  -0.53926  -0.53687  -0.53379
 Alpha  occ. eigenvalues --   -0.53007  -0.52583  -0.52287  -0.52176  -0.52025
 Alpha  occ. eigenvalues --   -0.51596  -0.51419  -0.51202  -0.51071  -0.50797
 Alpha  occ. eigenvalues --   -0.50493  -0.50336  -0.49495  -0.49161  -0.48868
 Alpha  occ. eigenvalues --   -0.48202  -0.47902  -0.47665  -0.47321  -0.47188
 Alpha  occ. eigenvalues --   -0.46666  -0.46489  -0.45629  -0.44269  -0.43078
 Alpha  occ. eigenvalues --   -0.42553  -0.41603  -0.40785  -0.40424  -0.39389
 Alpha  occ. eigenvalues --   -0.38586  -0.38422  -0.37940  -0.37646  -0.36546
 Alpha  occ. eigenvalues --   -0.36526  -0.36312  -0.35526  -0.34823  -0.34738
 Alpha  occ. eigenvalues --   -0.34577  -0.34108  -0.32795  -0.32739  -0.31362
 Alpha virt. eigenvalues --   -0.13319  -0.10999  -0.10246  -0.09444  -0.09382
 Alpha virt. eigenvalues --   -0.08463  -0.08254  -0.07498  -0.07455  -0.05465
 Alpha virt. eigenvalues --   -0.05275  -0.04498  -0.02562  -0.01081  -0.00707

 Mulliken charges:
               1
     1  N   -0.772910
     2  H    0.398618
     3  H    0.449444
     4  H    0.445572
     5  C   -0.269828
     6  H    0.240678
     7  H    0.213289
     8  C    0.646541
     9  O   -0.517756
    10  N   -0.584531
    11  H    0.359712
    12  C   -0.249743
    13  H    0.211566
    14  H    0.220403
    15  C    0.602531
    16  O   -0.514260
    17  N   -0.592730
    18  H    0.384565
    19  C   -0.257881
    20  H    0.229733
    21  H    0.191269
    22  C    0.625394
    23  O   -0.557226
    24  N   -0.601657
    25  H    0.385416
    26  C   -0.230156
    27  H    0.198279
    28  H    0.205854
    29  C    0.607120
    30  O   -0.491037
    31  N   -0.609145
    32  H    0.333238
    33  C   -0.223863
    34  H    0.230885
    35  H    0.195067
    36  C    0.583619
    37  O   -0.505895
    38  N   -0.607888
    39  H    0.367838
    40  C   -0.222024
    41  H    0.203256
    42  H    0.189567
    43  C    0.599772
    44  O   -0.514927
    45  N   -0.621176
    46  H    0.353003
    47  C   -0.222705
    48  H    0.210651
    49  H    0.203389
    50  C    0.617539
    51  O   -0.532194
    52  N   -0.579316
    53  H    0.348894
    54  C   -0.232272
    55  H    0.198050
    56  H    0.204888
    57  C    0.599907
    58  O   -0.532362
    59  N   -0.587485
    60  H    0.388768
    61  C   -0.237842
    62  H    0.209723
    63  H    0.196377
    64  C    0.608998
    65  O   -0.577616
    66  N   -0.583219
    67  H    0.399746
    68  C   -0.205806
    69  H    0.209548
    70  H    0.163354
    71  C    0.615072
    72  O   -0.535313
    73  O   -0.555081
    74  H    0.478709
 Sum of Mulliken charges =   1.00000

 Dipole moment (field-independent basis, Debye):
    X=             -6.6979    Y=             18.3231    Z=            -25.6997  Tot=             32.2656
 Quadrupole moment (field-independent basis, Debye-Ang):
   XX=           -150.7565   YY=           -127.5953   ZZ=            -93.0444
   XY=            -63.8770   XZ=             38.9306   YZ=            -63.3964

 Normal termination of Gaussian 16 at Sat Jul  9 19:22:08 2022.
