 Gaussian 16, Revision C.01,
 Gaussian 16:  ES64L-G16RevC.01  3-Jul-2019

 -------------------------------------------------------------------
 # B3LYP/6-31G* guess=read geom=check nosymm integral(ultrafinegrid)
 -------------------------------------------------------------------

 ------------------------------------------------------
 Candidate Structure: Conf:217 Charge calc in gas phase
 ------------------------------------------------------
 Structure from the checkpoint file:  "conf-217.chk"
 Charge =  1 Multiplicity = 1

                          Input orientation:
 ---------------------------------------------------------------------
 Center     Atomic      Atomic             Coordinates (Angstroms)
 Number     Number       Type             X           Y           Z
 ---------------------------------------------------------------------
      1          7           0       -5.681310    4.751761   -0.046850
      2          1           0       -5.095888    3.904115   -0.286528
      3          1           0       -5.552658    5.015824    0.932861
      4          1           0       -6.661048    4.486993   -0.230072
      5          6           0       -5.354536    5.856689   -1.013369
      6          1           0       -5.921868    6.745995   -0.727851
      7          1           0       -4.283409    6.062565   -0.993357
      8          6           0       -5.831753    5.290265   -2.357144
      9          8           0       -6.879518    4.626910   -2.356123
     10          7           0       -5.020804    5.485705   -3.400875
     11          1           0       -4.095274    5.899218   -3.208261
     12          6           0       -5.150789    4.656686   -4.602996
     13          1           0       -4.596081    5.120397   -5.418280
     14          1           0       -6.205233    4.570374   -4.873486
     15          6           0       -4.511007    3.299329   -4.261894
     16          8           0       -3.340912    3.039833   -4.513923
     17          7           0       -5.320595    2.462676   -3.545451
     18          1           0       -6.212282    2.829370   -3.229748
     19          6           0       -4.747425    1.333489   -2.850778
     20          1           0       -5.563062    0.705431   -2.476702
     21          1           0       -4.161548    0.736084   -3.554356
     22          6           0       -3.867904    1.735256   -1.650944
     23          8           0       -4.109122    2.720815   -0.927355
     24          7           0       -2.849058    0.907992   -1.407116
     25          1           0       -2.593886    0.175019   -2.066297
     26          6           0       -1.925600    1.034769   -0.295719
     27          1           0       -1.461396    2.030473   -0.271605
     28          1           0       -2.441941    0.887097    0.660942
     29          6           0       -0.848080   -0.035915   -0.499581
     30          8           0       -0.834774   -0.726384   -1.522775
     31          7           0        0.058489   -0.174391    0.492862
     32          1           0        0.095532    0.521684    1.227427
     33          6           0        1.197977   -1.086031    0.352245
     34          1           0        0.843447   -1.998985   -0.131153
     35          1           0        1.584768   -1.321953    1.343731
     36          6           0        2.315383   -0.401687   -0.447743
     37          8           0        3.260880    0.144521    0.123274
     38          7           0        2.125761   -0.368257   -1.791239
     39          1           0        1.238093   -0.709144   -2.148868
     40          6           0        2.968823    0.442571   -2.669065
     41          1           0        4.011479    0.306623   -2.366473
     42          1           0        2.845650    0.100029   -3.696503
     43          6           0        2.590171    1.934210   -2.618472
     44          8           0        2.158097    2.540441   -3.599409
     45          7           0        2.738686    2.506266   -1.396292
     46          1           0        3.114422    1.938984   -0.638801
     47          6           0        2.353199    3.886492   -1.154893
     48          1           0        2.706813    4.171090   -0.162836
     49          1           0        2.822985    4.538464   -1.898988
     50          6           0        0.825201    4.078510   -1.165568
     51          8           0        0.136200    3.936595   -0.158179
     52          7           0        0.317609    4.450510   -2.383085
     53          1           0        0.883936    4.184982   -3.187672
     54          6           0       -1.093411    4.734470   -2.555249
     55          1           0       -1.663100    4.252073   -1.755419
     56          1           0       -1.457987    4.329627   -3.505277
     57          6           0       -1.436805    6.227753   -2.505207
     58          8           0       -2.623217    6.616079   -2.510634
     59          7           0       -0.410081    7.076421   -2.458996
     60          1           0        0.545923    6.729695   -2.416136
     61          6           0       -0.543340    8.514492   -2.408238
     62          1           0       -1.137886    8.821177   -1.537849
     63          1           0       -1.060025    8.890962   -3.300072
     64          6           0        0.876883    9.094820   -2.315683
     65          8           0        1.854324    8.355485   -2.238040
     66          7           0        0.950403   10.445964   -2.325555
     67          1           0        0.106605   11.002366   -2.358142
     68          6           0        2.214541   11.148501   -2.183179
     69          1           0        2.638467   11.414595   -3.161581
     70          1           0        2.933315   10.483347   -1.699739
     71          6           0        2.116992   12.432590   -1.376936
     72          8           0        3.073892   13.050759   -0.984825
     73          8           0        0.833229   12.831684   -1.188768
     74          1           0        0.872391   13.675949   -0.699662
 ---------------------------------------------------------------------

 SCF Done:  E(RB3LYP) =  -2156.95760753     A.U. after    2 cycles

 Alpha  occ. eigenvalues --  -19.28257 -19.24890 -19.24734 -19.23642 -19.22426
 Alpha  occ. eigenvalues --  -19.22048 -19.21865 -19.21325 -19.21056 -19.20934
 Alpha  occ. eigenvalues --  -19.20206 -14.57879 -14.47851 -14.47831 -14.47830
 Alpha  occ. eigenvalues --  -14.46216 -14.46029 -14.45796 -14.45264 -14.44893
 Alpha  occ. eigenvalues --  -14.44065 -10.42007 -10.41277 -10.40693 -10.40533
 Alpha  occ. eigenvalues --  -10.39216 -10.39095 -10.38741 -10.38064 -10.38057
 Alpha  occ. eigenvalues --  -10.37915 -10.37069 -10.34108 -10.34048 -10.33421
 Alpha  occ. eigenvalues --  -10.33021 -10.32666 -10.32024 -10.31908 -10.31227
 Alpha  occ. eigenvalues --  -10.31155  -1.18837  -1.17247  -1.16040  -1.15268
 Alpha  occ. eigenvalues --   -1.14005  -1.13807  -1.13101  -1.12900  -1.12535
 Alpha  occ. eigenvalues --   -1.11969  -1.11491  -1.09863  -1.04656  -1.04244
 Alpha  occ. eigenvalues --   -1.03600  -1.02917  -1.02565  -1.02026  -1.01365
 Alpha  occ. eigenvalues --   -1.00812  -1.00040  -0.88818  -0.87545  -0.86432
 Alpha  occ. eigenvalues --   -0.85205  -0.84184  -0.82998  -0.81615  -0.80169
 Alpha  occ. eigenvalues --   -0.79008  -0.77412  -0.73111  -0.72109  -0.71237
 Alpha  occ. eigenvalues --   -0.70630  -0.70308  -0.69712  -0.69187  -0.68605
 Alpha  occ. eigenvalues --   -0.68293  -0.67792  -0.67108  -0.65744  -0.65377
 Alpha  occ. eigenvalues --   -0.64850  -0.63613  -0.62916  -0.62106  -0.61699
 Alpha  occ. eigenvalues --   -0.61582  -0.60595  -0.59687  -0.59415  -0.59064
 Alpha  occ. eigenvalues --   -0.58783  -0.58457  -0.58008  -0.57757  -0.57348
 Alpha  occ. eigenvalues --   -0.56658  -0.56296  -0.56121  -0.56051  -0.55542
 Alpha  occ. eigenvalues --   -0.55338  -0.54939  -0.54301  -0.53993  -0.53436
 Alpha  occ. eigenvalues --   -0.53061  -0.52677  -0.52421  -0.51382  -0.51229
 Alpha  occ. eigenvalues --   -0.50788  -0.50556  -0.50242  -0.50021  -0.49912
 Alpha  occ. eigenvalues --   -0.49726  -0.49629  -0.49169  -0.48742  -0.48728
 Alpha  occ. eigenvalues --   -0.48341  -0.47821  -0.47686  -0.47650  -0.47033
 Alpha  occ. eigenvalues --   -0.46780  -0.46337  -0.46042  -0.45177  -0.44640
 Alpha  occ. eigenvalues --   -0.40069  -0.39926  -0.39665  -0.38871  -0.38696
 Alpha  occ. eigenvalues --   -0.38124  -0.37713  -0.37460  -0.36958  -0.36542
 Alpha  occ. eigenvalues --   -0.36282  -0.36198  -0.36092  -0.35525  -0.34758
 Alpha  occ. eigenvalues --   -0.34401  -0.33967  -0.33926  -0.32701  -0.32548
 Alpha virt. eigenvalues --   -0.12314  -0.10177  -0.09516  -0.08437  -0.08019
 Alpha virt. eigenvalues --   -0.07983  -0.07544  -0.07500  -0.07084  -0.06430
 Alpha virt. eigenvalues --   -0.05789  -0.02064  -0.01746  -0.01257  -0.00945

 Mulliken charges:
               1
     1  N   -0.758034
     2  H    0.453889
     3  H    0.404953
     4  H    0.411436
     5  C   -0.290220
     6  H    0.230912
     7  H    0.250936
     8  C    0.618046
     9  O   -0.549045
    10  N   -0.593766
    11  H    0.412176
    12  C   -0.247207
    13  H    0.205017
    14  H    0.206643
    15  C    0.591897
    16  O   -0.502961
    17  N   -0.571864
    18  H    0.367648
    19  C   -0.245982
    20  H    0.200020
    21  H    0.205578
    22  C    0.655356
    23  O   -0.602721
    24  N   -0.594231
    25  H    0.378042
    26  C   -0.221730
    27  H    0.239029
    28  H    0.193078
    29  C    0.610117
    30  O   -0.536578
    31  N   -0.588955
    32  H    0.358276
    33  C   -0.237328
    34  H    0.207588
    35  H    0.203217
    36  C    0.595001
    37  O   -0.522479
    38  N   -0.577833
    39  H    0.373434
    40  C   -0.241698
    41  H    0.209847
    42  H    0.197656
    43  C    0.591324
    44  O   -0.525249
    45  N   -0.596181
    46  H    0.385223
    47  C   -0.219883
    48  H    0.192043
    49  H    0.191599
    50  C    0.574796
    51  O   -0.518598
    52  N   -0.612658
    53  H    0.382881
    54  C   -0.254733
    55  H    0.197699
    56  H    0.227220
    57  C    0.623187
    58  O   -0.582598
    59  N   -0.588023
    60  H    0.377866
    61  C   -0.197510
    62  H    0.192173
    63  H    0.195823
    64  C    0.606652
    65  O   -0.515337
    66  N   -0.610820
    67  H    0.355307
    68  C   -0.216103
    69  H    0.213222
    70  H    0.234336
    71  C    0.581353
    72  O   -0.429766
    73  O   -0.579965
    74  H    0.427560
 Sum of Mulliken charges =   1.00000

 Dipole moment (field-independent basis, Debye):
    X=            -17.1688    Y=             22.3525    Z=             -3.4347  Tot=             28.3937
 Quadrupole moment (field-independent basis, Debye-Ang):
   XX=           -147.1035   YY=            -36.7424   ZZ=           -215.1735
   XY=            -88.9548   XZ=              4.3472   YZ=            -29.9847

 Normal termination of Gaussian 16 at Sat Jul  9 19:22:06 2022.
