 Gaussian 16, Revision C.01,
 Gaussian 16:  ES64L-G16RevC.01  3-Jul-2019

 -------------------------------------------------------------------
 # B3LYP/6-31G* guess=read geom=check nosymm integral(ultrafinegrid)
 -------------------------------------------------------------------

 ------------------------------------------------------
 Candidate Structure: Conf:962 Charge calc in gas phase
 ------------------------------------------------------
 Structure from the checkpoint file:  "conf-962.chk"
 Charge =  1 Multiplicity = 1

                          Input orientation:
 ---------------------------------------------------------------------
 Center     Atomic      Atomic             Coordinates (Angstroms)
 Number     Number       Type             X           Y           Z
 ---------------------------------------------------------------------
      1          7           0        3.324861    2.175647    4.746366
      2          1           0        3.323607    2.699848    3.851994
      3          1           0        4.258561    2.288739    5.195986
      4          1           0        3.224316    1.168168    4.525687
      5          6           0        2.211062    2.625953    5.626028
      6          1           0        2.317061    2.118021    6.587095
      7          1           0        2.289476    3.707337    5.758143
      8          6           0        0.898035    2.188389    4.974719
      9          8           0        0.885425    1.218640    4.223130
     10          7           0       -0.209298    2.896924    5.301350
     11          1           0       -0.113894    3.794728    5.759889
     12          6           0       -1.463994    2.664972    4.592648
     13          1           0       -2.300815    2.809568    5.282488
     14          1           0       -1.465150    1.633198    4.241761
     15          6           0       -1.594505    3.689424    3.462175
     16          8           0       -1.514293    4.893071    3.726325
     17          7           0       -1.782008    3.208915    2.209701
     18          1           0       -1.536340    2.243532    2.018706
     19          6           0       -1.894088    4.108522    1.059453
     20          1           0       -2.398464    3.586063    0.246594
     21          1           0       -2.490700    4.972408    1.364807
     22          6           0       -0.513462    4.548252    0.552982
     23          8           0       -0.083634    4.217517   -0.551553
     24          7           0        0.207654    5.278108    1.446477
     25          1           0       -0.212747    5.468878    2.354932
     26          6           0        1.618521    5.561247    1.223061
     27          1           0        1.757002    5.931137    0.202683
     28          1           0        1.945185    6.323406    1.930936
     29          6           0        2.453223    4.293612    1.453743
     30          8           0        3.082650    4.116784    2.524326
     31          7           0        2.423643    3.405465    0.452811
     32          1           0        1.717091    3.572085   -0.268482
     33          6           0        2.996469    2.078417    0.568137
     34          1           0        3.936535    2.137970    1.121930
     35          1           0        3.217175    1.712545   -0.440253
     36          6           0        2.015595    1.094562    1.233402
     37          8           0        0.801978    1.245644    1.173963
     38          7           0        2.630781    0.035234    1.832882
     39          1           0        3.634603    0.052018    1.967701
     40          6           0        1.893244   -0.993135    2.527117
     41          1           0        0.847666   -0.680975    2.561856
     42          1           0        1.948664   -1.949894    1.986574
     43          6           0        2.447375   -1.217802    3.934908
     44          8           0        3.555096   -0.778130    4.279057
     45          7           0        1.682679   -1.983582    4.739738
     46          1           0        0.751497   -2.226281    4.431417
     47          6           0        2.102324   -2.420374    6.058777
     48          1           0        1.230408   -2.853790    6.557711
     49          1           0        2.858165   -3.210667    5.969812
     50          6           0        2.627567   -1.268720    6.934219
     51          8           0        2.114169   -0.156439    6.937794
     52          7           0        3.683404   -1.620656    7.717320
     53          1           0        4.062007   -2.554711    7.635712
     54          6           0        4.360884   -0.694275    8.606651
     55          1           0        4.525222   -1.150980    9.586221
     56          1           0        3.704675    0.168551    8.747503
     57          6           0        5.722007   -0.188488    8.108287
     58          8           0        6.503802    0.333605    8.885511
     59          7           0        5.986566   -0.378463    6.776122
     60          1           0        5.238071   -0.671787    6.158470
     61          6           0        7.167392    0.205598    6.192618
     62          1           0        7.630846   -0.490476    5.483577
     63          1           0        7.872923    0.382781    7.012360
     64          6           0        6.876804    1.546477    5.513716
     65          8           0        5.896696    2.238621    5.812028
     66          7           0        7.771160    1.950501    4.584999
     67          1           0        8.522366    1.333704    4.309429
     68          6           0        7.565014    3.188448    3.859442
     69          1           0        8.362283    3.302424    3.119070
     70          1           0        7.603937    4.048731    4.532820
     71          6           0        6.212224    3.190650    3.144813
     72          8           0        5.634534    2.180387    2.779321
     73          8           0        5.752078    4.427792    2.991489
     74          1           0        4.827937    4.382813    2.632703
 ---------------------------------------------------------------------

 SCF Done:  E(RB3LYP) =  -2156.98611054     A.U. after    1 cycles

 Alpha  occ. eigenvalues --  -19.28493 -19.24448 -19.24351 -19.24058 -19.23731
 Alpha  occ. eigenvalues --  -19.23506 -19.22642 -19.22462 -19.21696 -19.21552
 Alpha  occ. eigenvalues --  -19.20164 -14.53087 -14.48680 -14.48124 -14.47936
 Alpha  occ. eigenvalues --  -14.47594 -14.47162 -14.47089 -14.46478 -14.45646
 Alpha  occ. eigenvalues --  -14.45419 -10.42453 -10.41313 -10.41199 -10.40737
 Alpha  occ. eigenvalues --  -10.40367 -10.40362 -10.39631 -10.39101 -10.38496
 Alpha  occ. eigenvalues --  -10.37824 -10.35899 -10.35103 -10.34026 -10.33711
 Alpha  occ. eigenvalues --  -10.33549 -10.33152 -10.32991 -10.32957 -10.32502
 Alpha  occ. eigenvalues --  -10.32373  -1.20219  -1.16304  -1.15930  -1.15333
 Alpha  occ. eigenvalues --   -1.15206  -1.14434  -1.14384  -1.13389  -1.13073
 Alpha  occ. eigenvalues --   -1.12328  -1.11235  -1.08363  -1.04696  -1.04112
 Alpha  occ. eigenvalues --   -1.03866  -1.03784  -1.03600  -1.02992  -1.02687
 Alpha  occ. eigenvalues --   -1.01644  -1.01333  -0.88337  -0.87630  -0.86904
 Alpha  occ. eigenvalues --   -0.86392  -0.84783  -0.83393  -0.81986  -0.80678
 Alpha  occ. eigenvalues --   -0.79453  -0.78417  -0.73139  -0.72022  -0.70945
 Alpha  occ. eigenvalues --   -0.70385  -0.69633  -0.69629  -0.68951  -0.68619
 Alpha  occ. eigenvalues --   -0.68073  -0.67981  -0.67799  -0.67463  -0.65730
 Alpha  occ. eigenvalues --   -0.64691  -0.64450  -0.63786  -0.63071  -0.62277
 Alpha  occ. eigenvalues --   -0.61188  -0.60858  -0.60522  -0.59868  -0.59724
 Alpha  occ. eigenvalues --   -0.59363  -0.59348  -0.58654  -0.58196  -0.57900
 Alpha  occ. eigenvalues --   -0.57277  -0.56769  -0.56535  -0.56196  -0.55706
 Alpha  occ. eigenvalues --   -0.55560  -0.55312  -0.54858  -0.54494  -0.54146
 Alpha  occ. eigenvalues --   -0.53340  -0.53231  -0.52627  -0.52599  -0.52382
 Alpha  occ. eigenvalues --   -0.52067  -0.51461  -0.51178  -0.50869  -0.50797
 Alpha  occ. eigenvalues --   -0.50510  -0.50315  -0.50044  -0.49439  -0.49186
 Alpha  occ. eigenvalues --   -0.49047  -0.48840  -0.48296  -0.47575  -0.47369
 Alpha  occ. eigenvalues --   -0.47053  -0.46853  -0.46479  -0.45940  -0.45207
 Alpha  occ. eigenvalues --   -0.41499  -0.39389  -0.39081  -0.38774  -0.38576
 Alpha  occ. eigenvalues --   -0.38539  -0.38197  -0.38070  -0.38040  -0.37886
 Alpha  occ. eigenvalues --   -0.37785  -0.36942  -0.36430  -0.35806  -0.35516
 Alpha  occ. eigenvalues --   -0.35105  -0.34964  -0.34718  -0.34299  -0.33342
 Alpha virt. eigenvalues --   -0.11020  -0.10243  -0.09971  -0.09766  -0.09261
 Alpha virt. eigenvalues --   -0.09001  -0.08762  -0.07633  -0.07218  -0.06346
 Alpha virt. eigenvalues --   -0.03826  -0.02717  -0.02659  -0.02382  -0.01868

 Mulliken charges:
               1
     1  N   -0.839894
     2  H    0.431354
     3  H    0.453493
     4  H    0.438841
     5  C   -0.272248
     6  H    0.260379
     7  H    0.202781
     8  C    0.646212
     9  O   -0.524038
    10  N   -0.582981
    11  H    0.354598
    12  C   -0.234999
    13  H    0.208510
    14  H    0.196370
    15  C    0.609821
    16  O   -0.535799
    17  N   -0.573929
    18  H    0.372225
    19  C   -0.243976
    20  H    0.204638
    21  H    0.213238
    22  C    0.611609
    23  O   -0.522033
    24  N   -0.592346
    25  H    0.382455
    26  C   -0.227391
    27  H    0.207936
    28  H    0.192703
    29  C    0.597761
    30  O   -0.600914
    31  N   -0.540154
    32  H    0.400050
    33  C   -0.285127
    34  H    0.211524
    35  H    0.207400
    36  C    0.625461
    37  O   -0.525267
    38  N   -0.605217
    39  H    0.353930
    40  C   -0.215358
    41  H    0.220619
    42  H    0.194433
    43  C    0.647190
    44  O   -0.568925
    45  N   -0.570541
    46  H    0.356539
    47  C   -0.231807
    48  H    0.206471
    49  H    0.178368
    50  C    0.627153
    51  O   -0.525043
    52  N   -0.604982
    53  H    0.345888
    54  C   -0.237097
    55  H    0.207826
    56  H    0.219095
    57  C    0.596823
    58  O   -0.489404
    59  N   -0.598594
    60  H    0.355834
    61  C   -0.246287
    62  H    0.173528
    63  H    0.238562
    64  C    0.643582
    65  O   -0.558701
    66  N   -0.570079
    67  H    0.353575
    68  C   -0.215478
    69  H    0.206189
    70  H    0.220784
    71  C    0.585938
    72  O   -0.500946
    73  O   -0.576352
    74  H    0.454220
 Sum of Mulliken charges =   1.00000

 Dipole moment (field-independent basis, Debye):
    X=             13.9308    Y=              3.0316    Z=             18.9534  Tot=             23.7168
 Quadrupole moment (field-independent basis, Debye-Ang):
   XX=           -128.3806   YY=           -179.2852   ZZ=           -149.3716
   XY=              7.5753   XZ=             42.8118   YZ=             -9.1995

 Normal termination of Gaussian 16 at Sat Jul  9 19:22:54 2022.
