 Gaussian 16, Revision C.01,
 Gaussian 16:  ES64L-G16RevC.01  3-Jul-2019

 -------------------------------------------------------------------
 # B3LYP/6-31G* guess=read geom=check nosymm integral(ultrafinegrid)
 -------------------------------------------------------------------

 ------------------------------------------------------
 Candidate Structure: Conf:242 Charge calc in gas phase
 ------------------------------------------------------
 Structure from the checkpoint file:  "conf-242.chk"
 Charge =  1 Multiplicity = 1

                          Input orientation:
 ---------------------------------------------------------------------
 Center     Atomic      Atomic             Coordinates (Angstroms)
 Number     Number       Type             X           Y           Z
 ---------------------------------------------------------------------
      1          7           0       -1.785414   -3.382409   -0.853694
      2          1           0       -1.373359   -3.004030   -1.739082
      3          1           0       -1.336610   -4.307382   -0.734926
      4          1           0       -2.807025   -3.421317   -0.948711
      5          6           0       -1.433786   -2.494251    0.293826
      6          1           0       -1.689707   -3.015250    1.220213
      7          1           0       -0.359510   -2.313147    0.289544
      8          6           0       -2.276316   -1.223821    0.155696
      9          8           0       -3.382592   -1.284928   -0.370245
     10          7           0       -1.709650   -0.116381    0.695196
     11          1           0       -0.706528   -0.167363    0.861913
     12          6           0       -2.286647    1.205599    0.501980
     13          1           0       -2.409540    1.713860    1.465505
     14          1           0       -3.274073    1.068139    0.052203
     15          6           0       -1.391774    2.000170   -0.459686
     16          8           0       -0.997761    1.513916   -1.512407
     17          7           0       -0.961513    3.228718   -0.041060
     18          1           0       -1.387928    3.676592    0.758714
     19          6           0       -0.002037    3.962798   -0.864245
     20          1           0       -0.395125    4.152455   -1.865849
     21          1           0        0.208541    4.920053   -0.378517
     22          6           0        1.301330    3.160794   -1.050397
     23          8           0        1.902328    3.130601   -2.116226
     24          7           0        1.736528    2.498378    0.067030
     25          1           0        1.096427    2.451163    0.848662
     26          6           0        2.675029    1.387164   -0.060686
     27          1           0        3.522620    1.712675   -0.667976
     28          1           0        3.025052    1.096086    0.931975
     29          6           0        1.918816    0.216189   -0.701345
     30          8           0        1.164595   -0.501651   -0.046825
     31          7           0        2.076485    0.075350   -2.057319
     32          1           0        2.437232    0.913025   -2.508859
     33          6           0        1.023902   -0.608528   -2.811922
     34          1           0        1.214198   -0.442849   -3.877539
     35          1           0        0.045641   -0.180020   -2.577435
     36          6           0        0.901788   -2.113246   -2.615690
     37          8           0       -0.171520   -2.658426   -2.919040
     38          7           0        1.976614   -2.815294   -2.203297
     39          1           0        2.802019   -2.339453   -1.847700
     40          6           0        1.933257   -4.268074   -2.082069
     41          1           0        1.215901   -4.653013   -2.806920
     42          1           0        2.928591   -4.659846   -2.311559
     43          6           0        1.489284   -4.745502   -0.687160
     44          8           0        0.335370   -5.116007   -0.450592
     45          7           0        2.473920   -4.754788    0.246678
     46          1           0        3.327665   -4.248995    0.020229
     47          6           0        2.184047   -4.979051    1.656755
     48          1           0        1.206532   -5.461400    1.713517
     49          1           0        2.935601   -5.650034    2.087327
     50          6           0        2.129711   -3.618783    2.363838
     51          8           0        1.333043   -2.755548    2.023997
     52          7           0        3.099222   -3.388287    3.303588
     53          1           0        3.648808   -4.156467    3.663429
     54          6           0        3.321949   -2.038500    3.799961
     55          1           0        3.856986   -2.085620    4.753153
     56          1           0        2.366011   -1.539307    3.962781
     57          6           0        4.126977   -1.162416    2.820249
     58          8           0        4.011137    0.055455    2.810433
     59          7           0        5.011066   -1.848673    2.034736
     60          1           0        4.917427   -2.853135    1.998475
     61          6           0        5.777487   -1.214035    0.995332
     62          1           0        6.840775   -1.473936    1.087447
     63          1           0        5.690428   -0.133193    1.141564
     64          6           0        5.303004   -1.605430   -0.412994
     65          8           0        4.484608   -2.515048   -0.614017
     66          7           0        5.869009   -0.899082   -1.407578
     67          1           0        6.558187   -0.176385   -1.216982
     68          6           0        5.648950   -1.175932   -2.812978
     69          1           0        4.610232   -0.975859   -3.102231
     70          1           0        5.854537   -2.226283   -3.051125
     71          6           0        6.574512   -0.279660   -3.618565
     72          8           0        7.342928    0.513881   -3.121664
     73          8           0        6.422057   -0.481094   -4.933584
     74          1           0        7.038359    0.117100   -5.399342
 ---------------------------------------------------------------------

 SCF Done:  E(RB3LYP) =  -2156.96006737     A.U. after    1 cycles

 Alpha  occ. eigenvalues --  -19.30492 -19.25218 -19.24674 -19.23322 -19.22870
 Alpha  occ. eigenvalues --  -19.22609 -19.22360 -19.22200 -19.22130 -19.21795
 Alpha  occ. eigenvalues --  -19.21211 -14.53192 -14.48264 -14.47909 -14.47395
 Alpha  occ. eigenvalues --  -14.47339 -14.46918 -14.46710 -14.46482 -14.46261
 Alpha  occ. eigenvalues --  -14.45788 -10.43485 -10.41375 -10.40264 -10.39892
 Alpha  occ. eigenvalues --  -10.39861 -10.39504 -10.39361 -10.39322 -10.39226
 Alpha  occ. eigenvalues --  -10.38480 -10.34994 -10.34347 -10.34147 -10.33764
 Alpha  occ. eigenvalues --  -10.33345 -10.33318 -10.33051 -10.32801 -10.32252
 Alpha  occ. eigenvalues --  -10.32243  -1.21678  -1.15962  -1.15241  -1.14886
 Alpha  occ. eigenvalues --   -1.14542  -1.14423  -1.14083  -1.13803  -1.13547
 Alpha  occ. eigenvalues --   -1.12950  -1.12804  -1.08136  -1.04634  -1.04184
 Alpha  occ. eigenvalues --   -1.03734  -1.03288  -1.03032  -1.02681  -1.02364
 Alpha  occ. eigenvalues --   -1.02036  -1.01284  -0.88349  -0.87350  -0.86871
 Alpha  occ. eigenvalues --   -0.85571  -0.84447  -0.83303  -0.81756  -0.80367
 Alpha  occ. eigenvalues --   -0.79258  -0.78150  -0.73440  -0.71170  -0.70796
 Alpha  occ. eigenvalues --   -0.70586  -0.70137  -0.69650  -0.68957  -0.68897
 Alpha  occ. eigenvalues --   -0.68524  -0.68312  -0.67276  -0.66856  -0.65519
 Alpha  occ. eigenvalues --   -0.64648  -0.63986  -0.63113  -0.62385  -0.61202
 Alpha  occ. eigenvalues --   -0.60871  -0.60423  -0.60127  -0.60030  -0.59641
 Alpha  occ. eigenvalues --   -0.59510  -0.58815  -0.58650  -0.58453  -0.58087
 Alpha  occ. eigenvalues --   -0.57600  -0.57155  -0.56277  -0.56155  -0.55790
 Alpha  occ. eigenvalues --   -0.55365  -0.54957  -0.54384  -0.53819  -0.53608
 Alpha  occ. eigenvalues --   -0.53415  -0.53145  -0.52749  -0.52381  -0.52165
 Alpha  occ. eigenvalues --   -0.51593  -0.51501  -0.51080  -0.50763  -0.50516
 Alpha  occ. eigenvalues --   -0.50230  -0.50131  -0.49701  -0.49650  -0.49483
 Alpha  occ. eigenvalues --   -0.48577  -0.48463  -0.48243  -0.47826  -0.47290
 Alpha  occ. eigenvalues --   -0.47112  -0.46666  -0.46427  -0.45821  -0.45338
 Alpha  occ. eigenvalues --   -0.42748  -0.39761  -0.39358  -0.38952  -0.38620
 Alpha  occ. eigenvalues --   -0.38363  -0.38049  -0.37971  -0.37797  -0.37634
 Alpha  occ. eigenvalues --   -0.36992  -0.36414  -0.36220  -0.36087  -0.35251
 Alpha  occ. eigenvalues --   -0.35043  -0.34981  -0.34662  -0.34431  -0.33774
 Alpha virt. eigenvalues --   -0.10967  -0.10308  -0.10126  -0.09677  -0.09218
 Alpha virt. eigenvalues --   -0.08751  -0.08220  -0.07885  -0.07737  -0.07094
 Alpha virt. eigenvalues --   -0.04647  -0.03104  -0.02514  -0.02027  -0.01757

 Mulliken charges:
               1
     1  N   -0.769675
     2  H    0.446673
     3  H    0.433577
     4  H    0.400806
     5  C   -0.310823
     6  H    0.224106
     7  H    0.271045
     8  C    0.623169
     9  O   -0.509765
    10  N   -0.593311
    11  H    0.378376
    12  C   -0.236605
    13  H    0.167733
    14  H    0.235084
    15  C    0.596429
    16  O   -0.491699
    17  N   -0.616898
    18  H    0.348803
    19  C   -0.217700
    20  H    0.218617
    21  H    0.194815
    22  C    0.606743
    23  O   -0.515319
    24  N   -0.558625
    25  H    0.334608
    26  C   -0.262463
    27  H    0.180228
    28  H    0.227716
    29  C    0.590114
    30  O   -0.523397
    31  N   -0.603787
    32  H    0.370678
    33  C   -0.248493
    34  H    0.199491
    35  H    0.243687
    36  C    0.629414
    37  O   -0.573585
    38  N   -0.598305
    39  H    0.391861
    40  C   -0.246716
    41  H    0.215350
    42  H    0.185422
    43  C    0.624663
    44  O   -0.549580
    45  N   -0.579179
    46  H    0.373209
    47  C   -0.239176
    48  H    0.221705
    49  H    0.165861
    50  C    0.602373
    51  O   -0.490844
    52  N   -0.619364
    53  H    0.345945
    54  C   -0.225545
    55  H    0.201151
    56  H    0.219749
    57  C    0.610297
    58  O   -0.504793
    59  N   -0.567126
    60  H    0.328214
    61  C   -0.246226
    62  H    0.201686
    63  H    0.220378
    64  C    0.623539
    65  O   -0.561773
    66  N   -0.604468
    67  H    0.372471
    68  C   -0.193349
    69  H    0.204068
    70  H    0.213819
    71  C    0.575948
    72  O   -0.446053
    73  O   -0.551414
    74  H    0.436428
 Sum of Mulliken charges =   1.00000

 Dipole moment (field-independent basis, Debye):
    X=             12.1353    Y=             -8.1013    Z=              1.6513  Tot=             14.6841
 Quadrupole moment (field-independent basis, Debye-Ang):
   XX=           -148.9352   YY=           -165.3752   ZZ=           -194.6436
   XY=            -42.4288   XZ=            -16.0642   YZ=             -8.2660

 Normal termination of Gaussian 16 at Sat Jul  9 19:21:52 2022.
