 Gaussian 16, Revision C.01,
 Gaussian 16:  ES64L-G16RevC.01  3-Jul-2019

 -------------------------------------------------------------------
 # B3LYP/6-31G* guess=read geom=check nosymm integral(ultrafinegrid)
 -------------------------------------------------------------------

 ------------------------------------------------------
 Candidate Structure: Conf:474 Charge calc in gas phase
 ------------------------------------------------------
 Structure from the checkpoint file:  "conf-474.chk"
 Charge =  1 Multiplicity = 1

                          Input orientation:
 ---------------------------------------------------------------------
 Center     Atomic      Atomic             Coordinates (Angstroms)
 Number     Number       Type             X           Y           Z
 ---------------------------------------------------------------------
      1          7           0       -8.730783    4.105873   -3.089367
      2          1           0       -9.189825    3.914364   -2.194285
      3          1           0       -9.145693    4.952865   -3.487991
      4          1           0       -8.872025    3.278499   -3.756595
      5          6           0       -7.229168    4.153827   -2.998356
      6          1           0       -6.868853    5.120579   -3.353986
      7          1           0       -6.917439    4.016817   -1.961587
      8          6           0       -6.770192    2.981804   -3.908785
      9          8           0       -7.660443    2.324441   -4.466065
     10          7           0       -5.463891    2.783398   -4.016756
     11          1           0       -4.780414    3.358267   -3.499244
     12          6           0       -4.900666    1.670368   -4.806716
     13          1           0       -5.197072    1.770625   -5.856754
     14          1           0       -5.257378    0.710663   -4.428256
     15          6           0       -3.388014    1.770904   -4.598503
     16          8           0       -2.799213    1.042405   -3.809106
     17          7           0       -2.800345    2.825682   -5.231989
     18          1           0       -3.396359    3.421414   -5.791377
     19          6           0       -1.649305    3.454587   -4.608824
     20          1           0       -0.775221    2.798040   -4.625856
     21          1           0       -1.395159    4.354212   -5.177048
     22          6           0       -1.990664    3.834831   -3.151053
     23          8           0       -3.165986    3.974368   -2.765540
     24          7           0       -0.925086    3.990876   -2.351456
     25          1           0       -0.016699    3.676268   -2.703599
     26          6           0       -1.053398    4.163958   -0.904253
     27          1           0       -0.343352    4.915069   -0.554058
     28          1           0       -2.071922    4.494685   -0.694757
     29          6           0       -0.702303    2.831167   -0.224171
     30          8           0        0.412992    2.629896    0.235995
     31          7           0       -1.670986    1.866395   -0.265827
     32          1           0       -2.530873    2.062610   -0.761109
     33          6           0       -1.324796    0.479633    0.046422
     34          1           0       -2.229188   -0.128507   -0.049153
     35          1           0       -0.953815    0.402756    1.069766
     36          6           0       -0.203724   -0.052909   -0.867475
     37          8           0        0.791472   -0.609326   -0.421535
     38          7           0       -0.384271    0.177812   -2.202495
     39          1           0       -1.214791    0.646671   -2.546488
     40          6           0        0.751508    0.101381   -3.109727
     41          1           0        1.305269   -0.822438   -2.926788
     42          1           0        0.387351    0.105812   -4.138139
     43          6           0        1.619939    1.343403   -2.879142
     44          8           0        1.355785    2.429939   -3.441910
     45          7           0        2.608517    1.200940   -1.984143
     46          1           0        2.616643    0.330641   -1.460715
     47          6           0        3.354893    2.326253   -1.414361
     48          1           0        2.656414    3.142141   -1.197942
     49          1           0        3.792777    1.994110   -0.474181
     50          6           0        4.512921    2.826107   -2.294657
     51          8           0        5.667195    2.839743   -1.878370
     52          7           0        4.157291    3.290827   -3.525511
     53          1           0        3.181321    3.198743   -3.795612
     54          6           0        5.165114    3.594472   -4.535247
     55          1           0        4.671337    3.644565   -5.509556
     56          1           0        5.907981    2.792137   -4.580050
     57          6           0        5.971116    4.889981   -4.343857
     58          8           0        6.946315    5.098695   -5.048508
     59          7           0        5.522028    5.739844   -3.376307
     60          1           0        4.716531    5.452406   -2.839005
     61          6           0        6.288002    6.886320   -2.925562
     62          1           0        5.699167    7.807363   -2.978155
     63          1           0        7.133532    6.991300   -3.612265
     64          6           0        6.833692    6.784861   -1.493620
     65          8           0        7.170264    7.798653   -0.896158
     66          7           0        6.899816    5.529149   -0.962299
     67          1           0        6.698734    4.721562   -1.542606
     68          6           0        7.527153    5.299106    0.317477
     69          1           0        6.948882    4.586258    0.913237
     70          1           0        7.542987    6.253884    0.852743
     71          6           0        8.961559    4.782327    0.277064
     72          8           0        9.531129    4.335410    1.246324
     73          8           0        9.531478    4.891409   -0.941531
     74          1           0       10.444362    4.560006   -0.843951
 ---------------------------------------------------------------------

 SCF Done:  E(RB3LYP) =  -2156.90082905     A.U. after    3 cycles

 Alpha  occ. eigenvalues --  -19.30267 -19.25983 -19.25364 -19.22941 -19.22900
 Alpha  occ. eigenvalues --  -19.21809 -19.20416 -19.19456 -19.16789 -19.16089
 Alpha  occ. eigenvalues --  -19.14598 -14.63645 -14.52677 -14.49768 -14.48393
 Alpha  occ. eigenvalues --  -14.46633 -14.46417 -14.44926 -14.43506 -14.41443
 Alpha  occ. eigenvalues --  -14.39472 -10.47036 -10.44061 -10.42974 -10.41964
 Alpha  occ. eigenvalues --  -10.39329 -10.38981 -10.37682 -10.37329 -10.36624
 Alpha  occ. eigenvalues --  -10.35497 -10.35223 -10.33941 -10.33597 -10.32337
 Alpha  occ. eigenvalues --  -10.32288 -10.32272 -10.31149 -10.29282 -10.26909
 Alpha  occ. eigenvalues --  -10.26735  -1.22698  -1.18101  -1.17193  -1.16189
 Alpha  occ. eigenvalues --   -1.14112  -1.13722  -1.13685  -1.12125  -1.11192
 Alpha  occ. eigenvalues --   -1.09290  -1.08313  -1.06648  -1.05968  -1.04740
 Alpha  occ. eigenvalues --   -1.04577  -1.02622  -1.02337  -1.00759  -0.99688
 Alpha  occ. eigenvalues --   -0.97577  -0.95417  -0.93617  -0.89084  -0.86699
 Alpha  occ. eigenvalues --   -0.85166  -0.83220  -0.81461  -0.80121  -0.78763
 Alpha  occ. eigenvalues --   -0.77458  -0.77394  -0.77380  -0.75349  -0.74745
 Alpha  occ. eigenvalues --   -0.72884  -0.70700  -0.69904  -0.69559  -0.68770
 Alpha  occ. eigenvalues --   -0.67293  -0.66513  -0.65974  -0.65251  -0.65208
 Alpha  occ. eigenvalues --   -0.63911  -0.63827  -0.63653  -0.63047  -0.62311
 Alpha  occ. eigenvalues --   -0.62132  -0.61530  -0.61203  -0.60673  -0.60187
 Alpha  occ. eigenvalues --   -0.59145  -0.59014  -0.57497  -0.57386  -0.56870
 Alpha  occ. eigenvalues --   -0.56728  -0.56391  -0.56047  -0.55668  -0.54946
 Alpha  occ. eigenvalues --   -0.54482  -0.53949  -0.53276  -0.52474  -0.51858
 Alpha  occ. eigenvalues --   -0.51796  -0.51424  -0.51269  -0.50709  -0.50579
 Alpha  occ. eigenvalues --   -0.50469  -0.49736  -0.49658  -0.49406  -0.48787
 Alpha  occ. eigenvalues --   -0.48552  -0.48434  -0.48102  -0.47512  -0.47286
 Alpha  occ. eigenvalues --   -0.47024  -0.46668  -0.45808  -0.45199  -0.45151
 Alpha  occ. eigenvalues --   -0.44483  -0.43788  -0.42871  -0.42686  -0.41841
 Alpha  occ. eigenvalues --   -0.41191  -0.40759  -0.39617  -0.39576  -0.39279
 Alpha  occ. eigenvalues --   -0.38833  -0.37903  -0.37253  -0.37116  -0.34824
 Alpha  occ. eigenvalues --   -0.34712  -0.34506  -0.33861  -0.33413  -0.32553
 Alpha  occ. eigenvalues --   -0.32081  -0.31618  -0.29652  -0.28351  -0.27798
 Alpha virt. eigenvalues --   -0.15385  -0.14716  -0.13065  -0.10991  -0.09445
 Alpha virt. eigenvalues --   -0.09321  -0.07965  -0.07461  -0.06740  -0.06055
 Alpha virt. eigenvalues --   -0.05318  -0.04067  -0.02845  -0.02463  -0.02316

 Mulliken charges:
               1
     1  N   -0.749815
     2  H    0.426518
     3  H    0.426111
     4  H    0.442075
     5  C   -0.275651
     6  H    0.250489
     7  H    0.251894
     8  C    0.637181
     9  O   -0.517214
    10  N   -0.648151
    11  H    0.412140
    12  C   -0.201003
    13  H    0.204983
    14  H    0.223657
    15  C    0.550523
    16  O   -0.489687
    17  N   -0.541358
    18  H    0.344864
    19  C   -0.268687
    20  H    0.232593
    21  H    0.207378
    22  C    0.619091
    23  O   -0.582772
    24  N   -0.599482
    25  H    0.399606
    26  C   -0.235022
    27  H    0.204832
    28  H    0.192124
    29  C    0.592362
    30  O   -0.486082
    31  N   -0.589673
    32  H    0.335093
    33  C   -0.230785
    34  H    0.181186
    35  H    0.221654
    36  C    0.609445
    37  O   -0.507425
    38  N   -0.603129
    39  H    0.371414
    40  C   -0.226047
    41  H    0.201260
    42  H    0.184603
    43  C    0.601191
    44  O   -0.587036
    45  N   -0.545132
    46  H    0.384120
    47  C   -0.240643
    48  H    0.194281
    49  H    0.209803
    50  C    0.580327
    51  O   -0.498626
    52  N   -0.621584
    53  H    0.368544
    54  C   -0.227535
    55  H    0.182142
    56  H    0.211107
    57  C    0.602770
    58  O   -0.497753
    59  N   -0.606098
    60  H    0.328672
    61  C   -0.227758
    62  H    0.178736
    63  H    0.228439
    64  C    0.589008
    65  O   -0.512217
    66  N   -0.611231
    67  H    0.376275
    68  C   -0.229635
    69  H    0.185521
    70  H    0.224520
    71  C    0.580611
    72  O   -0.456671
    73  O   -0.550453
    74  H    0.415214
 Sum of Mulliken charges =   1.00000

 Dipole moment (field-independent basis, Debye):
    X=            -40.8460    Y=             16.3746    Z=            -18.5943  Tot=             47.7732
 Quadrupole moment (field-independent basis, Debye-Ang):
   XX=            -28.6022   YY=           -186.4972   ZZ=           -173.8692
   XY=           -197.1809   XZ=             99.9946   YZ=            -66.1954

 Normal termination of Gaussian 16 at Sat Jul  9 19:21:58 2022.
