 Gaussian 16, Revision C.01,
 Gaussian 16:  ES64L-G16RevC.01  3-Jul-2019

 -------------------------------------------------------------------
 # B3LYP/6-31G* guess=read geom=check nosymm integral(ultrafinegrid)
 -------------------------------------------------------------------

 ------------------------------------------------------
 Candidate Structure: Conf:497 Charge calc in gas phase
 ------------------------------------------------------
 Structure from the checkpoint file:  "conf-497.chk"
 Charge =  1 Multiplicity = 1

                          Input orientation:
 ---------------------------------------------------------------------
 Center     Atomic      Atomic             Coordinates (Angstroms)
 Number     Number       Type             X           Y           Z
 ---------------------------------------------------------------------
      1          7           0       -4.573498    2.749041    2.017305
      2          1           0       -3.970029    2.756423    1.150181
      3          1           0       -5.243637    1.978317    1.970362
      4          1           0       -5.061181    3.658523    2.090511
      5          6           0       -3.652504    2.665682    3.194741
      6          1           0       -4.203738    2.279911    4.056484
      7          1           0       -2.808627    2.017332    2.953371
      8          6           0       -3.201141    4.105963    3.462137
      9          8           0       -3.913231    5.037684    3.061471
     10          7           0       -2.062494    4.240012    4.157245
     11          1           0       -1.399787    3.462235    4.123338
     12          6           0       -1.530549    5.567602    4.462849
     13          1           0       -0.815425    5.472013    5.281125
     14          1           0       -2.355039    6.209573    4.780091
     15          6           0       -0.790002    6.125519    3.240865
     16          8           0        0.369648    5.793245    3.000342
     17          7           0       -1.513260    6.939573    2.432723
     18          1           0       -2.482195    7.114887    2.665688
     19          6           0       -0.947090    7.478040    1.205461
     20          1           0       -1.602519    8.275174    0.842140
     21          1           0        0.032688    7.915938    1.406876
     22          6           0       -0.734749    6.453875    0.076916
     23          8           0        0.147050    6.625139   -0.752908
     24          7           0       -1.602604    5.400483    0.050837
     25          1           0       -2.320651    5.337921    0.760489
     26          6           0       -1.475780    4.316163   -0.915253
     27          1           0       -2.304846    4.325827   -1.632744
     28          1           0       -0.537460    4.471474   -1.451081
     29          6           0       -1.507123    2.985095   -0.167194
     30          8           0       -2.572782    2.558726    0.324492
     31          7           0       -0.342906    2.335575   -0.049504
     32          1           0        0.510689    2.789004   -0.401939
     33          6           0       -0.182611    1.175385    0.828687
     34          1           0        0.540394    0.487631    0.381179
     35          1           0       -1.144070    0.674461    0.931817
     36          6           0        0.283004    1.722086    2.187573
     37          8           0       -0.535620    2.161222    3.005544
     38          7           0        1.620206    1.807546    2.329033
     39          1           0        2.202049    1.401917    1.603313
     40          6           0        2.310975    2.841610    3.111308
     41          1           0        1.565405    3.490946    3.571721
     42          1           0        2.949577    2.393871    3.876807
     43          6           0        3.177832    3.539021    2.052779
     44          8           0        4.135555    2.938324    1.568482
     45          7           0        2.723772    4.714219    1.560057
     46          1           0        1.901310    5.162497    1.952772
     47          6           0        3.284779    5.198976    0.314285
     48          1           0        2.744811    6.101110    0.009674
     49          1           0        4.342472    5.452632    0.441721
     50          6           0        3.103098    4.175532   -0.816584
     51          8           0        2.043591    3.564123   -0.991750
     52          7           0        4.146911    4.044984   -1.667840
     53          1           0        5.039275    4.438867   -1.403241
     54          6           0        4.039917    3.264252   -2.895163
     55          1           0        3.491962    2.340768   -2.703504
     56          1           0        5.047939    3.006768   -3.232898
     57          6           0        3.292538    4.003959   -4.024461
     58          8           0        2.635192    3.395431   -4.854582
     59          7           0        3.479564    5.355671   -4.019860
     60          1           0        3.834628    5.771738   -3.164311
     61          6           0        2.597395    6.253660   -4.731328
     62          1           0        1.778136    5.675647   -5.171049
     63          1           0        3.118370    6.767934   -5.551722
     64          6           0        2.095764    7.297409   -3.722523
     65          8           0        2.640555    7.436716   -2.630155
     66          7           0        1.021925    8.035334   -4.105817
     67          1           0        0.715267    7.996140   -5.068118
     68          6           0        0.503270    9.074661   -3.241418
     69          1           0        0.447959    8.688113   -2.221361
     70          1           0       -0.513013    9.327419   -3.561775
     71          6           0        1.302231   10.373936   -3.189096
     72          8           0        1.140263   11.210670   -2.332149
     73          8           0        2.167601   10.504895   -4.216666
     74          1           0        2.613850   11.364317   -4.091579
 ---------------------------------------------------------------------

 SCF Done:  E(RB3LYP) =  -2156.94791641     A.U. after    1 cycles

 Alpha  occ. eigenvalues --  -19.27048 -19.26410 -19.25066 -19.24323 -19.24054
 Alpha  occ. eigenvalues --  -19.21903 -19.21448 -19.20313 -19.20223 -19.19656
 Alpha  occ. eigenvalues --  -19.17852 -14.58123 -14.49829 -14.48748 -14.48028
 Alpha  occ. eigenvalues --  -14.47672 -14.47391 -14.45599 -14.44595 -14.44289
 Alpha  occ. eigenvalues --  -14.42078 -10.43836 -10.41619 -10.41309 -10.40919
 Alpha  occ. eigenvalues --  -10.39518 -10.38786 -10.38766 -10.38408 -10.37533
 Alpha  occ. eigenvalues --  -10.36669 -10.35343 -10.35287 -10.34391 -10.33970
 Alpha  occ. eigenvalues --  -10.33693 -10.32520 -10.31361 -10.30738 -10.30525
 Alpha  occ. eigenvalues --  -10.29972  -1.18931  -1.17175  -1.16385  -1.16043
 Alpha  occ. eigenvalues --   -1.15175  -1.13859  -1.13263  -1.12661  -1.12072
 Alpha  occ. eigenvalues --   -1.11626  -1.09659  -1.08140  -1.06403  -1.04900
 Alpha  occ. eigenvalues --   -1.04596  -1.03443  -1.02754  -1.01640  -1.00739
 Alpha  occ. eigenvalues --   -1.00424  -0.98568  -0.89971  -0.87980  -0.86297
 Alpha  occ. eigenvalues --   -0.84780  -0.83802  -0.82854  -0.81773  -0.80190
 Alpha  occ. eigenvalues --   -0.78694  -0.76514  -0.73460  -0.73055  -0.72716
 Alpha  occ. eigenvalues --   -0.71143  -0.70259  -0.69732  -0.69510  -0.69282
 Alpha  occ. eigenvalues --   -0.68548  -0.67273  -0.66771  -0.66639  -0.65777
 Alpha  occ. eigenvalues --   -0.64562  -0.64495  -0.63168  -0.62372  -0.62174
 Alpha  occ. eigenvalues --   -0.61372  -0.60685  -0.60256  -0.59814  -0.59683
 Alpha  occ. eigenvalues --   -0.58886  -0.58374  -0.57993  -0.57785  -0.56873
 Alpha  occ. eigenvalues --   -0.56689  -0.56150  -0.55925  -0.55077  -0.54841
 Alpha  occ. eigenvalues --   -0.54705  -0.54495  -0.53870  -0.53668  -0.53353
 Alpha  occ. eigenvalues --   -0.53028  -0.52900  -0.52507  -0.51902  -0.51674
 Alpha  occ. eigenvalues --   -0.51384  -0.51085  -0.50973  -0.50368  -0.50117
 Alpha  occ. eigenvalues --   -0.49905  -0.49682  -0.48982  -0.48860  -0.48415
 Alpha  occ. eigenvalues --   -0.48077  -0.47515  -0.46961  -0.46725  -0.46160
 Alpha  occ. eigenvalues --   -0.45879  -0.45686  -0.44888  -0.44151  -0.42386
 Alpha  occ. eigenvalues --   -0.41879  -0.41066  -0.40493  -0.39826  -0.39277
 Alpha  occ. eigenvalues --   -0.38236  -0.37976  -0.37004  -0.36489  -0.36332
 Alpha  occ. eigenvalues --   -0.36239  -0.36144  -0.35941  -0.35047  -0.34001
 Alpha  occ. eigenvalues --   -0.33868  -0.33682  -0.32719  -0.31721  -0.31065
 Alpha virt. eigenvalues --   -0.13131  -0.12262  -0.10466  -0.09518  -0.08650
 Alpha virt. eigenvalues --   -0.07739  -0.07129  -0.05780  -0.05516  -0.05175
 Alpha virt. eigenvalues --   -0.04337  -0.03514  -0.02396  -0.01953  -0.00897

 Mulliken charges:
               1
     1  N   -0.752394
     2  H    0.446580
     3  H    0.408019
     4  H    0.410547
     5  C   -0.290872
     6  H    0.234629
     7  H    0.263865
     8  C    0.621247
     9  O   -0.549166
    10  N   -0.585606
    11  H    0.403345
    12  C   -0.242172
    13  H    0.211511
    14  H    0.199982
    15  C    0.605052
    16  O   -0.511541
    17  N   -0.587436
    18  H    0.362721
    19  C   -0.239910
    20  H    0.203567
    21  H    0.223411
    22  C    0.609055
    23  O   -0.492527
    24  N   -0.603306
    25  H    0.334122
    26  C   -0.213267
    27  H    0.187778
    28  H    0.234615
    29  C    0.609327
    30  O   -0.599108
    31  N   -0.593799
    32  H    0.425974
    33  C   -0.238391
    34  H    0.193191
    35  H    0.198755
    36  C    0.605546
    37  O   -0.547467
    38  N   -0.560613
    39  H    0.361498
    40  C   -0.212362
    41  H    0.190863
    42  H    0.199438
    43  C    0.565613
    44  O   -0.518072
    45  N   -0.601440
    46  H    0.396975
    47  C   -0.244022
    48  H    0.234555
    49  H    0.176100
    50  C    0.653291
    51  O   -0.560246
    52  N   -0.600325
    53  H    0.354139
    54  C   -0.225899
    55  H    0.203864
    56  H    0.194500
    57  C    0.586707
    58  O   -0.500289
    59  N   -0.580296
    60  H    0.346499
    61  C   -0.227222
    62  H    0.198779
    63  H    0.191429
    64  C    0.622008
    65  O   -0.527608
    66  N   -0.585571
    67  H    0.342590
    68  C   -0.241828
    69  H    0.232274
    70  H    0.185893
    71  C    0.595080
    72  O   -0.452958
    73  O   -0.559950
    74  H    0.420729
 Sum of Mulliken charges =   1.00000

 Dipole moment (field-independent basis, Debye):
    X=            -10.7150    Y=             20.0060    Z=              6.9916  Tot=             23.7473
 Quadrupole moment (field-independent basis, Debye-Ang):
   XX=           -151.7042   YY=           -117.2835   ZZ=           -181.9338
   XY=            -25.0758   XZ=            -37.5615   YZ=             -3.2055

 Normal termination of Gaussian 16 at Sat Jul  9 19:21:35 2022.
