 Gaussian 16, Revision C.01,
 Gaussian 16:  ES64L-G16RevC.01  3-Jul-2019

 -------------------------------------------------------------------
 # B3LYP/6-31G* guess=read geom=check nosymm integral(ultrafinegrid)
 -------------------------------------------------------------------

 ------------------------------------------------------
 Candidate Structure: Conf:796 Charge calc in gas phase
 ------------------------------------------------------
 Structure from the checkpoint file:  "conf-796.chk"
 Charge =  1 Multiplicity = 1

                          Input orientation:
 ---------------------------------------------------------------------
 Center     Atomic      Atomic             Coordinates (Angstroms)
 Number     Number       Type             X           Y           Z
 ---------------------------------------------------------------------
      1          7           0        1.466508   14.717369   -1.491932
      2          1           0        0.647050   15.219154   -1.844743
      3          1           0        1.346481   14.500939   -0.443785
      4          1           0        2.292274   15.304202   -1.638656
      5          6           0        1.608004   13.326425   -2.046866
      6          1           0        0.809560   13.132706   -2.765180
      7          1           0        2.573163   13.224526   -2.545962
      8          6           0        1.498362   12.423075   -0.787308
      9          8           0        1.332038   13.001833    0.298223
     10          7           0        1.591194   11.120071   -0.977691
     11          1           0        1.730713   10.679974   -1.895287
     12          6           0        1.514479   10.120866    0.077895
     13          1           0        0.550289   10.176546    0.595335
     14          1           0        2.304345   10.279898    0.820333
     15          6           0        1.685837    8.765276   -0.639797
     16          8           0        1.838347    8.744407   -1.864844
     17          7           0        1.654567    7.685824    0.145616
     18          1           0        1.533323    7.729823    1.157984
     19          6           0        1.806168    6.331115   -0.347957
     20          1           0        1.010576    6.083499   -1.061250
     21          1           0        2.762369    6.211557   -0.871562
     22          6           0        1.738847    5.411797    0.883495
     23          8           0        1.572410    5.887402    2.007696
     24          7           0        1.870858    4.098892    0.634233
     25          1           0        2.026586    3.725025   -0.298473
     26          6           0        1.855177    3.100538    1.682610
     27          1           0        2.612228    3.325918    2.443399
     28          1           0        0.883501    3.083570    2.192906
     29          6           0        2.134988    1.738892    1.036741
     30          8           0        2.264879    1.660828   -0.196426
     31          7           0        2.215065    0.707055    1.878594
     32          1           0        2.064354    0.808173    2.881558
     33          6           0        2.469063   -0.661206    1.468506
     34          1           0        3.481337   -0.767446    1.061921
     35          1           0        1.772440   -0.968866    0.682458
     36          6           0        2.294810   -1.545681    2.708652
     37          8           0        2.047165   -1.047263    3.808069
     38          7           0        2.446467   -2.866282    2.477259
     39          1           0        2.576165   -3.186574    1.513194
     40          6           0        2.229143   -3.846708    3.512822
     41          1           0        3.179357   -4.264965    3.875712
     42          1           0        1.754908   -3.338286    4.360367
     43          6           0        1.316455   -4.968408    3.010727
     44          8           0        0.509244   -4.802368    2.100750
     45          7           0        1.483389   -6.179278    3.619257
     46          1           0        2.098882   -6.242187    4.419534
     47          6           0        0.559545   -7.280100    3.357445
     48          1           0        0.769946   -8.079459    4.073628
     49          1           0       -0.476170   -6.959991    3.501926
     50          6           0        0.620094   -7.869766    1.937277
     51          8           0       -0.322670   -8.515219    1.508070
     52          7           0        1.773144   -7.640066    1.243083
     53          1           0        2.486123   -7.075953    1.684096
     54          6           0        1.920585   -7.973954   -0.160666
     55          1           0        1.085333   -8.631639   -0.420761
     56          1           0        2.850916   -8.519216   -0.342654
     57          6           0        1.913287   -6.766639   -1.109575
     58          8           0        2.458535   -6.822596   -2.206316
     59          7           0        1.239331   -5.664722   -0.675831
     60          1           0        0.870111   -5.607038    0.267868
     61          6           0        1.202214   -4.479902   -1.499250
     62          1           0        0.372552   -3.849624   -1.162134
     63          1           0        1.018533   -4.771049   -2.537431
     64          6           0        2.483046   -3.644425   -1.385402
     65          8           0        3.006815   -3.381812   -0.296452
     66          7           0        2.987452   -3.158298   -2.538847
     67          1           0        2.582108   -3.445878   -3.417547
     68          6           0        4.152854   -2.291930   -2.536115
     69          1           0        4.397338   -2.047397   -3.574475
     70          1           0        5.014695   -2.795586   -2.090963
     71          6           0        3.959888   -0.984466   -1.764173
     72          8           0        4.867550   -0.440592   -1.171567
     73          8           0        2.711523   -0.508024   -1.849996
     74          1           0        2.646001    0.307286   -1.285360
 ---------------------------------------------------------------------

 SCF Done:  E(RB3LYP) =  -2156.93425367     A.U. after    1 cycles

 Alpha  occ. eigenvalues --  -19.28741 -19.22911 -19.22613 -19.20666 -19.20423
 Alpha  occ. eigenvalues --  -19.19163 -19.18245 -19.17908 -19.17695 -19.16009
 Alpha  occ. eigenvalues --  -19.15283 -14.62167 -14.51074 -14.46310 -14.44299
 Alpha  occ. eigenvalues --  -14.44061 -14.43603 -14.42814 -14.41309 -14.41272
 Alpha  occ. eigenvalues --  -14.40012 -10.45556 -10.42645 -10.40161 -10.37712
 Alpha  occ. eigenvalues --  -10.37429 -10.36344 -10.36315 -10.35561 -10.35045
 Alpha  occ. eigenvalues --  -10.35028 -10.33845 -10.32713 -10.32340 -10.31065
 Alpha  occ. eigenvalues --  -10.29499 -10.29152 -10.28924 -10.28849 -10.28270
 Alpha  occ. eigenvalues --  -10.27042  -1.21209  -1.15797  -1.14857  -1.14047
 Alpha  occ. eigenvalues --   -1.12577  -1.11766  -1.11212  -1.09879  -1.09606
 Alpha  occ. eigenvalues --   -1.08229  -1.07582  -1.07203  -1.05146  -1.02813
 Alpha  occ. eigenvalues --   -1.00762  -1.00062  -0.99845  -0.98722  -0.98155
 Alpha  occ. eigenvalues --   -0.97581  -0.95872  -0.92086  -0.86828  -0.84366
 Alpha  occ. eigenvalues --   -0.82923  -0.81660  -0.81033  -0.79048  -0.77490
 Alpha  occ. eigenvalues --   -0.76087  -0.75953  -0.75589  -0.74085  -0.73518
 Alpha  occ. eigenvalues --   -0.69726  -0.68190  -0.67638  -0.67484  -0.66639
 Alpha  occ. eigenvalues --   -0.66232  -0.64945  -0.64774  -0.63980  -0.63657
 Alpha  occ. eigenvalues --   -0.62997  -0.62825  -0.62573  -0.61122  -0.59995
 Alpha  occ. eigenvalues --   -0.59659  -0.59440  -0.58574  -0.58002  -0.56919
 Alpha  occ. eigenvalues --   -0.56813  -0.56019  -0.55881  -0.55511  -0.55135
 Alpha  occ. eigenvalues --   -0.54900  -0.54656  -0.54314  -0.53307  -0.53052
 Alpha  occ. eigenvalues --   -0.52907  -0.52499  -0.52255  -0.52028  -0.51159
 Alpha  occ. eigenvalues --   -0.50807  -0.50237  -0.50171  -0.49595  -0.49105
 Alpha  occ. eigenvalues --   -0.48932  -0.48216  -0.48175  -0.47826  -0.47637
 Alpha  occ. eigenvalues --   -0.47192  -0.46872  -0.46714  -0.46016  -0.45502
 Alpha  occ. eigenvalues --   -0.44991  -0.44784  -0.44172  -0.43837  -0.43801
 Alpha  occ. eigenvalues --   -0.43239  -0.42468  -0.42154  -0.41763  -0.41134
 Alpha  occ. eigenvalues --   -0.41004  -0.40089  -0.37575  -0.36235  -0.35754
 Alpha  occ. eigenvalues --   -0.35418  -0.34456  -0.34399  -0.34297  -0.33476
 Alpha  occ. eigenvalues --   -0.33233  -0.32938  -0.32743  -0.32116  -0.31882
 Alpha  occ. eigenvalues --   -0.31162  -0.30600  -0.29674  -0.29383  -0.28300
 Alpha virt. eigenvalues --   -0.13772  -0.13384  -0.08470  -0.07776  -0.06308
 Alpha virt. eigenvalues --   -0.06113  -0.05489  -0.05166  -0.04239  -0.03346
 Alpha virt. eigenvalues --   -0.03147  -0.02825  -0.02557  -0.01918  -0.01538

 Mulliken charges:
               1
     1  N   -0.750732
     2  H    0.423875
     3  H    0.441363
     4  H    0.423917
     5  C   -0.276982
     6  H    0.249926
     7  H    0.249986
     8  C    0.640567
     9  O   -0.523775
    10  N   -0.605258
    11  H    0.381816
    12  C   -0.211994
    13  H    0.216462
    14  H    0.216421
    15  C    0.620876
    16  O   -0.534058
    17  N   -0.622069
    18  H    0.370060
    19  C   -0.200638
    20  H    0.202163
    21  H    0.203280
    22  C    0.613896
    23  O   -0.530543
    24  N   -0.624093
    25  H    0.365940
    26  C   -0.196755
    27  H    0.204174
    28  H    0.202449
    29  C    0.635855
    30  O   -0.567160
    31  N   -0.613198
    32  H    0.367592
    33  C   -0.230513
    34  H    0.229680
    35  H    0.200279
    36  C    0.589425
    37  O   -0.536081
    38  N   -0.617634
    39  H    0.398386
    40  C   -0.222030
    41  H    0.167394
    42  H    0.223177
    43  C    0.591849
    44  O   -0.512639
    45  N   -0.614959
    46  H    0.344793
    47  C   -0.225672
    48  H    0.190019
    49  H    0.211462
    50  C    0.604161
    51  O   -0.497468
    52  N   -0.601896
    53  H    0.333144
    54  C   -0.226937
    55  H    0.225733
    56  H    0.186154
    57  C    0.588653
    58  O   -0.524058
    59  N   -0.606178
    60  H    0.397029
    61  C   -0.238972
    62  H    0.190136
    63  H    0.178918
    64  C    0.645701
    65  O   -0.550307
    66  N   -0.567866
    67  H    0.350611
    68  C   -0.211333
    69  H    0.185245
    70  H    0.208062
    71  C    0.596402
    72  O   -0.477709
    73  O   -0.607202
    74  H    0.459678
 Sum of Mulliken charges =   1.00000

 Dipole moment (field-independent basis, Debye):
    X=              8.7094    Y=             52.9104    Z=             -3.8860  Tot=             53.7631
 Quadrupole moment (field-independent basis, Debye-Ang):
   XX=           -226.0356   YY=            561.4193   ZZ=           -197.7896
   XY=             60.2259   XZ=              1.7669   YZ=           -138.1543

 Normal termination of Gaussian 16 at Sat Jul  9 19:21:23 2022.
