 Gaussian 16, Revision C.01,
 Gaussian 16:  ES64L-G16RevC.01  3-Jul-2019

 -------------------------------------------------------------------
 # B3LYP/6-31G* guess=read geom=check nosymm integral(ultrafinegrid)
 -------------------------------------------------------------------

 -----------------------------------------------------
 Candidate Structure: Conf:34 Charge calc in gas phase
 -----------------------------------------------------
 Structure from the checkpoint file:  "conf-34.chk"
 Charge =  1 Multiplicity = 1

                          Input orientation:
 ---------------------------------------------------------------------
 Center     Atomic      Atomic             Coordinates (Angstroms)
 Number     Number       Type             X           Y           Z
 ---------------------------------------------------------------------
      1          7           0        3.231901    6.278584   -0.207648
      2          1           0        4.036896    6.487032   -0.847155
      3          1           0        3.589847    5.992060    0.718758
      4          1           0        2.719585    5.461040   -0.636479
      5          6           0        2.295810    7.405059    0.040405
      6          1           0        2.844457    8.349482   -0.021354
      7          1           0        1.512398    7.399027   -0.720953
      8          6           0        1.746609    7.217742    1.465491
      9          8           0        2.365836    6.490846    2.248781
     10          7           0        0.641515    7.907959    1.783640
     11          1           0        0.135006    8.403877    1.061773
     12          6           0        0.099273    7.931656    3.146737
     13          1           0       -0.542700    8.807746    3.237555
     14          1           0        0.937848    8.024569    3.842712
     15          6           0       -0.760888    6.698648    3.489880
     16          8           0       -1.981970    6.749806    3.494556
     17          7           0       -0.054546    5.583593    3.828435
     18          1           0        0.939819    5.558659    3.634712
     19          6           0       -0.753537    4.371396    4.188042
     20          1           0       -0.047034    3.695735    4.682336
     21          1           0       -1.541840    4.621241    4.904514
     22          6           0       -1.344948    3.621757    2.986654
     23          8           0       -0.802299    3.632281    1.877735
     24          7           0       -2.465906    2.913339    3.248551
     25          1           0       -2.837853    2.906834    4.187556
     26          6           0       -3.038753    2.010140    2.267862
     27          1           0       -3.893843    1.507661    2.727996
     28          1           0       -3.405152    2.579519    1.406007
     29          6           0       -2.005723    0.949475    1.845948
     30          8           0       -1.262493    0.417584    2.653387
     31          7           0       -1.978812    0.673498    0.504836
     32          1           0       -2.561478    1.213851   -0.119796
     33          6           0       -0.945844   -0.165706   -0.069061
     34          1           0       -1.317680   -0.673748   -0.962326
     35          1           0       -0.678645   -0.931323    0.665219
     36          6           0        0.348361    0.565637   -0.444795
     37          8           0        1.215015   -0.009282   -1.111579
     38          7           0        0.486831    1.838207   -0.002376
     39          1           0       -0.216530    2.277409    0.589625
     40          6           0        1.764560    2.524699   -0.089813
     41          1           0        1.742661    3.342666    0.631587
     42          1           0        2.574027    1.830715    0.167589
     43          6           0        2.029598    3.113756   -1.480142
     44          8           0        2.020369    4.352395   -1.680875
     45          7           0        2.275681    2.224782   -2.447229
     46          1           0        2.157046    1.238391   -2.187695
     47          6           0        2.484148    2.588732   -3.849347
     48          1           0        2.528287    1.664982   -4.426453
     49          1           0        1.642059    3.192084   -4.206101
     50          6           0        3.814817    3.334208   -4.070492
     51          8           0        4.864338    2.749336   -4.316883
     52          7           0        3.713463    4.692656   -3.984684
     53          1           0        2.897588    5.041868   -3.494195
     54          6           0        4.901787    5.533287   -4.038204
     55          1           0        4.596309    6.568358   -4.202169
     56          1           0        5.516306    5.210184   -4.882003
     57          6           0        5.691457    5.467752   -2.723486
     58          8           0        5.457974    6.247625   -1.782955
     59          7           0        6.621680    4.493352   -2.665178
     60          1           0        6.582456    3.797956   -3.407773
     61          6           0        7.402978    4.197793   -1.470328
     62          1           0        7.242860    3.159141   -1.166009
     63          1           0        7.043980    4.846306   -0.668111
     64          6           0        8.923514    4.398901   -1.589215
     65          8           0        9.653878    3.999245   -0.693961
     66          7           0        9.361065    5.037164   -2.699461
     67          1           0        8.722109    5.384025   -3.403979
     68          6           0       10.762612    5.318077   -2.913499
     69          1           0       11.355766    4.396404   -2.962764
     70          1           0       11.185060    5.911573   -2.092807
     71          6           0       10.902784    6.080818   -4.215242
     72          8           0        9.970934    6.398267   -4.925211
     73          8           0       12.186241    6.362630   -4.484941
     74          1           0       12.206062    6.849652   -5.330886
 ---------------------------------------------------------------------

 SCF Done:  E(RB3LYP) =  -2156.95720566     A.U. after    3 cycles

 Alpha  occ. eigenvalues --  -19.27744 -19.26779 -19.25715 -19.24186 -19.22789
 Alpha  occ. eigenvalues --  -19.22509 -19.22454 -19.21842 -19.21284 -19.20806
 Alpha  occ. eigenvalues --  -19.18458 -14.54944 -14.50793 -14.48147 -14.47629
 Alpha  occ. eigenvalues --  -14.47090 -14.46870 -14.46245 -14.46097 -14.45748
 Alpha  occ. eigenvalues --  -14.43756 -10.43881 -10.41669 -10.40927 -10.40600
 Alpha  occ. eigenvalues --  -10.39837 -10.39363 -10.39122 -10.38915 -10.38632
 Alpha  occ. eigenvalues --  -10.38410 -10.36443 -10.34400 -10.34143 -10.34079
 Alpha  occ. eigenvalues --  -10.33940 -10.33281 -10.32981 -10.32378 -10.32050
 Alpha  occ. eigenvalues --  -10.31188  -1.18895  -1.18725  -1.16594  -1.15515
 Alpha  occ. eigenvalues --   -1.14438  -1.14329  -1.13646  -1.13191  -1.12693
 Alpha  occ. eigenvalues --   -1.10867  -1.10459  -1.09961  -1.06531  -1.04486
 Alpha  occ. eigenvalues --   -1.03920  -1.03224  -1.03046  -1.02783  -1.01957
 Alpha  occ. eigenvalues --   -1.01448  -0.99991  -0.89308  -0.88067  -0.86607
 Alpha  occ. eigenvalues --   -0.85753  -0.84388  -0.83380  -0.82175  -0.80853
 Alpha  occ. eigenvalues --   -0.79496  -0.78614  -0.73149  -0.72268  -0.71274
 Alpha  occ. eigenvalues --   -0.70733  -0.70679  -0.69931  -0.68938  -0.68539
 Alpha  occ. eigenvalues --   -0.68361  -0.68143  -0.67927  -0.66715  -0.65646
 Alpha  occ. eigenvalues --   -0.64810  -0.64317  -0.64157  -0.63581  -0.62363
 Alpha  occ. eigenvalues --   -0.61706  -0.61454  -0.60784  -0.60226  -0.59421
 Alpha  occ. eigenvalues --   -0.59226  -0.58821  -0.58628  -0.58448  -0.57734
 Alpha  occ. eigenvalues --   -0.57423  -0.56821  -0.56365  -0.56243  -0.55381
 Alpha  occ. eigenvalues --   -0.54615  -0.54389  -0.53924  -0.53724  -0.53360
 Alpha  occ. eigenvalues --   -0.52966  -0.52891  -0.52787  -0.52396  -0.52171
 Alpha  occ. eigenvalues --   -0.51936  -0.51184  -0.51050  -0.51013  -0.50819
 Alpha  occ. eigenvalues --   -0.50375  -0.49964  -0.49682  -0.49491  -0.49144
 Alpha  occ. eigenvalues --   -0.48943  -0.48873  -0.48448  -0.47684  -0.47230
 Alpha  occ. eigenvalues --   -0.46914  -0.46646  -0.46027  -0.45454  -0.43314
 Alpha  occ. eigenvalues --   -0.41483  -0.40709  -0.40480  -0.40028  -0.39847
 Alpha  occ. eigenvalues --   -0.39397  -0.38346  -0.38050  -0.37318  -0.36944
 Alpha  occ. eigenvalues --   -0.36412  -0.36336  -0.35611  -0.35167  -0.35120
 Alpha  occ. eigenvalues --   -0.34478  -0.34314  -0.33972  -0.33097  -0.32181
 Alpha virt. eigenvalues --   -0.12426  -0.11408  -0.10663  -0.09229  -0.08608
 Alpha virt. eigenvalues --   -0.08334  -0.07894  -0.07201  -0.07050  -0.05746
 Alpha virt. eigenvalues --   -0.04827  -0.04512  -0.02124  -0.01253  -0.00915

 Mulliken charges:
               1
     1  N   -0.809703
     2  H    0.439938
     3  H    0.405139
     4  H    0.438338
     5  C   -0.267639
     6  H    0.240587
     7  H    0.218435
     8  C    0.638822
     9  O   -0.530560
    10  N   -0.579144
    11  H    0.360414
    12  C   -0.249021
    13  H    0.208300
    14  H    0.207328
    15  C    0.602404
    16  O   -0.491638
    17  N   -0.576699
    18  H    0.365961
    19  C   -0.251341
    20  H    0.203367
    21  H    0.194655
    22  C    0.656082
    23  O   -0.558860
    24  N   -0.562573
    25  H    0.355834
    26  C   -0.232118
    27  H    0.203435
    28  H    0.176595
    29  C    0.597880
    30  O   -0.492164
    31  N   -0.603241
    32  H    0.339987
    33  C   -0.226652
    34  H    0.198775
    35  H    0.236625
    36  C    0.610814
    37  O   -0.539389
    38  N   -0.616565
    39  H    0.411050
    40  C   -0.231610
    41  H    0.177302
    42  H    0.204081
    43  C    0.610291
    44  O   -0.595833
    45  N   -0.570212
    46  H    0.406348
    47  C   -0.232064
    48  H    0.213962
    49  H    0.189756
    50  C    0.588915
    51  O   -0.500901
    52  N   -0.568217
    53  H    0.352615
    54  C   -0.237800
    55  H    0.190965
    56  H    0.208334
    57  C    0.597596
    58  O   -0.567650
    59  N   -0.583406
    60  H    0.382691
    61  C   -0.238780
    62  H    0.202282
    63  H    0.205719
    64  C    0.609837
    65  O   -0.504004
    66  N   -0.617119
    67  H    0.351439
    68  C   -0.175594
    69  H    0.215263
    70  H    0.213952
    71  C    0.568019
    72  O   -0.465956
    73  O   -0.550633
    74  H    0.426951
 Sum of Mulliken charges =   1.00000

 Dipole moment (field-independent basis, Debye):
    X=              7.3000    Y=             27.4551    Z=             -3.6103  Tot=             28.6375
 Quadrupole moment (field-independent basis, Debye-Ang):
   XX=           -150.9869   YY=            -50.8813   ZZ=           -185.5728
   XY=             83.2926   XZ=            -54.6513   YZ=            -19.1331

 Normal termination of Gaussian 16 at Sat Jul  9 19:22:22 2022.
