 Gaussian 16, Revision C.01,
 Gaussian 16:  ES64L-G16RevC.01  3-Jul-2019

 -------------------------------------------------------------------
 # B3LYP/6-31G* guess=read geom=check nosymm integral(ultrafinegrid)
 -------------------------------------------------------------------

 ------------------------------------------------------
 Candidate Structure: Conf:883 Charge calc in gas phase
 ------------------------------------------------------
 Structure from the checkpoint file:  "conf-883.chk"
 Charge =  1 Multiplicity = 1

                          Input orientation:
 ---------------------------------------------------------------------
 Center     Atomic      Atomic             Coordinates (Angstroms)
 Number     Number       Type             X           Y           Z
 ---------------------------------------------------------------------
      1          7           0        6.716528    0.478262    1.482507
      2          1           0        6.182333   -0.430422    1.405876
      3          1           0        7.686798    0.329472    1.197986
      4          1           0        6.667596    0.785567    2.487698
      5          6           0        6.041459    1.601142    0.752619
      6          1           0        6.785060    2.171427    0.191995
      7          1           0        5.279232    1.201397    0.082996
      8          6           0        5.385694    2.448458    1.862579
      9          8           0        5.582055    2.124035    3.040780
     10          7           0        4.658662    3.485749    1.454957
     11          1           0        4.460222    3.640972    0.467940
     12          6           0        3.803174    4.258729    2.343235
     13          1           0        4.328387    5.145127    2.721871
     14          1           0        3.518157    3.643241    3.200733
     15          6           0        2.603158    4.700776    1.498705
     16          8           0        2.739849    4.858733    0.283505
     17          7           0        1.440049    4.904893    2.151227
     18          1           0        1.354653    4.624049    3.118895
     19          6           0        0.215539    5.234314    1.417521
     20          1           0       -0.534746    5.570099    2.133850
     21          1           0        0.435867    6.044394    0.718237
     22          6           0       -0.332929    3.987118    0.701405
     23          8           0       -1.092218    3.206811    1.278618
     24          7           0        0.113250    3.812619   -0.565472
     25          1           0        0.911366    4.367558   -0.855059
     26          6           0       -0.268714    2.665682   -1.382316
     27          1           0       -1.337905    2.485449   -1.229408
     28          1           0       -0.098424    2.911417   -2.430840
     29          6           0        0.512041    1.369759   -1.087837
     30          8           0        1.155905    0.793936   -1.952984
     31          7           0        0.383191    0.916359    0.195827
     32          1           0       -0.241230    1.423975    0.819309
     33          6           0        0.942399   -0.352070    0.600358
     34          1           0        1.179439   -0.909829   -0.313628
     35          1           0        0.214306   -0.924641    1.183224
     36          6           0        2.261690   -0.232947    1.365319
     37          8           0        3.210701    0.462650    0.964406
     38          7           0        2.357061   -0.998668    2.476087
     39          1           0        1.609178   -1.660819    2.708239
     40          6           0        3.602598   -1.108943    3.218381
     41          1           0        4.091374   -0.129535    3.239370
     42          1           0        3.388659   -1.421372    4.241130
     43          6           0        4.526312   -2.168310    2.603228
     44          8           0        4.843114   -3.190853    3.178668
     45          7           0        4.995944   -1.874578    1.298899
     46          1           0        4.339425   -1.275642    0.787624
     47          6           0        5.408259   -3.040934    0.504559
     48          1           0        6.008806   -2.699620   -0.345289
     49          1           0        6.023241   -3.687083    1.132420
     50          6           0        4.167026   -3.759496   -0.044934
     51          8           0        3.191575   -3.099943   -0.410344
     52          7           0        4.235066   -5.107061   -0.129329
     53          1           0        4.988515   -5.593282    0.338127
     54          6           0        3.121410   -5.905330   -0.647885
     55          1           0        3.486644   -6.912391   -0.850861
     56          1           0        2.774678   -5.451590   -1.580114
     57          6           0        1.984112   -6.010873    0.383712
     58          8           0        1.930326   -6.933312    1.193545
     59          7           0        1.080603   -4.995278    0.330124
     60          1           0        1.353975   -4.167142   -0.190800
     61          6           0        0.029444   -4.872990    1.334216
     62          1           0       -0.390133   -5.866120    1.512884
     63          1           0       -0.751848   -4.215073    0.951499
     64          6           0        0.575082   -4.261724    2.632083
     65          8           0        0.447617   -3.052444    2.878640
     66          7           0        1.222790   -5.124754    3.438083
     67          1           0        1.366642   -6.075355    3.104846
     68          6           0        1.859219   -4.704463    4.673294
     69          1           0        1.305544   -3.854406    5.079915
     70          1           0        2.890810   -4.365136    4.500490
     71          6           0        1.919686   -5.782047    5.743205
     72          8           0        2.305334   -5.570686    6.867042
     73          8           0        1.532930   -6.993878    5.289348
     74          1           0        1.627255   -7.619539    6.033099
 ---------------------------------------------------------------------

 SCF Done:  E(RB3LYP) =  -2156.93946796     A.U. after    3 cycles

 Alpha  occ. eigenvalues --  -19.27687 -19.26580 -19.25508 -19.24014 -19.23704
 Alpha  occ. eigenvalues --  -19.22448 -19.21458 -19.21414 -19.21205 -19.20989
 Alpha  occ. eigenvalues --  -19.18973 -14.58198 -14.49671 -14.48859 -14.48515
 Alpha  occ. eigenvalues --  -14.48354 -14.46371 -14.45458 -14.45307 -14.45221
 Alpha  occ. eigenvalues --  -14.43404 -10.43559 -10.41678 -10.41210 -10.40799
 Alpha  occ. eigenvalues --  -10.40183 -10.39259 -10.39164 -10.38326 -10.38297
 Alpha  occ. eigenvalues --  -10.38172 -10.36231 -10.35415 -10.35151 -10.34000
 Alpha  occ. eigenvalues --  -10.33141 -10.33137 -10.31802 -10.31776 -10.31216
 Alpha  occ. eigenvalues --  -10.30850  -1.18766  -1.18424  -1.17154  -1.16011
 Alpha  occ. eigenvalues --   -1.15427  -1.13893  -1.13227  -1.12752  -1.12523
 Alpha  occ. eigenvalues --   -1.12450  -1.10745  -1.09406  -1.06222  -1.04575
 Alpha  occ. eigenvalues --   -1.04235  -1.03974  -1.02586  -1.01896  -1.01355
 Alpha  occ. eigenvalues --   -1.01160  -0.99650  -0.89947  -0.87765  -0.86414
 Alpha  occ. eigenvalues --   -0.85877  -0.84445  -0.83285  -0.81949  -0.80484
 Alpha  occ. eigenvalues --   -0.78985  -0.77769  -0.73320  -0.72621  -0.72172
 Alpha  occ. eigenvalues --   -0.71254  -0.70717  -0.70165  -0.69607  -0.68866
 Alpha  occ. eigenvalues --   -0.68144  -0.67774  -0.66855  -0.66556  -0.65972
 Alpha  occ. eigenvalues --   -0.65451  -0.63937  -0.63127  -0.62829  -0.62316
 Alpha  occ. eigenvalues --   -0.61724  -0.60888  -0.60692  -0.60527  -0.59581
 Alpha  occ. eigenvalues --   -0.59547  -0.58606  -0.58287  -0.57729  -0.57542
 Alpha  occ. eigenvalues --   -0.57128  -0.57091  -0.56762  -0.56224  -0.55887
 Alpha  occ. eigenvalues --   -0.55475  -0.54924  -0.54675  -0.53811  -0.53497
 Alpha  occ. eigenvalues --   -0.53383  -0.52197  -0.52054  -0.51919  -0.51770
 Alpha  occ. eigenvalues --   -0.51358  -0.51027  -0.50777  -0.50515  -0.50177
 Alpha  occ. eigenvalues --   -0.50017  -0.49504  -0.49297  -0.49072  -0.48562
 Alpha  occ. eigenvalues --   -0.48327  -0.48215  -0.48025  -0.47658  -0.47405
 Alpha  occ. eigenvalues --   -0.46887  -0.46781  -0.45979  -0.45687  -0.44426
 Alpha  occ. eigenvalues --   -0.41519  -0.41162  -0.39838  -0.39559  -0.39404
 Alpha  occ. eigenvalues --   -0.39021  -0.38882  -0.37717  -0.37610  -0.37164
 Alpha  occ. eigenvalues --   -0.37096  -0.36292  -0.36258  -0.35703  -0.34329
 Alpha  occ. eigenvalues --   -0.34225  -0.34050  -0.33337  -0.32737  -0.31877
 Alpha virt. eigenvalues --   -0.12433  -0.11782  -0.10403  -0.09859  -0.09105
 Alpha virt. eigenvalues --   -0.08415  -0.08151  -0.07829  -0.07219  -0.06443
 Alpha virt. eigenvalues --   -0.05165  -0.04076  -0.03017  -0.02672  -0.01923

 Mulliken charges:
               1
     1  N   -0.784340
     2  H    0.438572
     3  H    0.403632
     4  H    0.420321
     5  C   -0.277299
     6  H    0.228401
     7  H    0.266806
     8  C    0.655488
     9  O   -0.531458
    10  N   -0.592244
    11  H    0.377500
    12  C   -0.208175
    13  H    0.219306
    14  H    0.200924
    15  C    0.618865
    16  O   -0.532034
    17  N   -0.584776
    18  H    0.354863
    19  C   -0.236685
    20  H    0.204409
    21  H    0.201896
    22  C    0.594160
    23  O   -0.524251
    24  N   -0.568520
    25  H    0.369595
    26  C   -0.245826
    27  H    0.204447
    28  H    0.194369
    29  C    0.587996
    30  O   -0.499154
    31  N   -0.597455
    32  H    0.373715
    33  C   -0.252304
    34  H    0.222432
    35  H    0.186165
    36  C    0.610926
    37  O   -0.584834
    38  N   -0.605867
    39  H    0.417745
    40  C   -0.246600
    41  H    0.191259
    42  H    0.206259
    43  C    0.576711
    44  O   -0.452397
    45  N   -0.666100
    46  H    0.389235
    47  C   -0.247713
    48  H    0.189483
    49  H    0.201570
    50  C    0.624184
    51  O   -0.531489
    52  N   -0.579928
    53  H    0.357111
    54  C   -0.238027
    55  H    0.203659
    56  H    0.202543
    57  C    0.593469
    58  O   -0.511276
    59  N   -0.576186
    60  H    0.370749
    61  C   -0.233068
    62  H    0.205320
    63  H    0.192250
    64  C    0.596371
    65  O   -0.554298
    66  N   -0.579662
    67  H    0.388325
    68  C   -0.239481
    69  H    0.216618
    70  H    0.216311
    71  C    0.583386
    72  O   -0.441178
    73  O   -0.562177
    74  H    0.427453
 Sum of Mulliken charges =   1.00000

 Dipole moment (field-independent basis, Debye):
    X=             22.8825    Y=              0.5262    Z=              5.7078  Tot=             23.5895
 Quadrupole moment (field-independent basis, Debye-Ang):
   XX=            -79.8554   YY=           -140.6712   ZZ=           -232.1790
   XY=             -3.0777   XZ=             17.0511   YZ=             11.8628

 Normal termination of Gaussian 16 at Sat Jul  9 19:22:09 2022.
