 Gaussian 16, Revision C.01,
 Gaussian 16:  ES64L-G16RevC.01  3-Jul-2019

 -------------------------------------------------------------------
 # B3LYP/6-31G* guess=read geom=check nosymm integral(ultrafinegrid)
 -------------------------------------------------------------------

 ------------------------------------------------------
 Candidate Structure: Conf:351 Charge calc in gas phase
 ------------------------------------------------------
 Structure from the checkpoint file:  "conf-351.chk"
 Charge =  1 Multiplicity = 1

                          Input orientation:
 ---------------------------------------------------------------------
 Center     Atomic      Atomic             Coordinates (Angstroms)
 Number     Number       Type             X           Y           Z
 ---------------------------------------------------------------------
      1          7           0       -0.166580    5.289494   -4.596387
      2          1           0        0.251778    6.157067   -4.208682
      3          1           0       -0.348377    4.596753   -3.823281
      4          1           0        0.548763    4.908912   -5.237715
      5          6           0       -1.418905    5.638771   -5.331623
      6          1           0       -1.160756    6.329246   -6.137131
      7          1           0       -1.834624    4.723727   -5.757834
      8          6           0       -2.403300    6.214129   -4.309189
      9          8           0       -2.767561    5.527258   -3.360020
     10          7           0       -2.757169    7.511375   -4.468299
     11          1           0       -2.401263    8.043181   -5.250478
     12          6           0       -3.555535    8.176719   -3.443247
     13          1           0       -4.529190    7.692940   -3.337570
     14          1           0       -3.718768    9.212657   -3.752843
     15          6           0       -2.907799    8.147859   -2.047061
     16          8           0       -3.599906    8.161452   -1.043548
     17          7           0       -1.539113    8.106585   -2.026575
     18          1           0       -0.997010    8.172625   -2.882387
     19          6           0       -0.809360    7.975707   -0.787273
     20          1           0       -0.079902    8.780978   -0.658094
     21          1           0       -1.540137    8.054232    0.025959
     22          6           0       -0.045797    6.656883   -0.631195
     23          8           0        1.080785    6.646301   -0.120408
     24          7           0       -0.664523    5.516085   -1.031807
     25          1           0       -1.600015    5.553359   -1.428222
     26          6           0       -0.079623    4.236289   -0.678015
     27          1           0        1.008456    4.353545   -0.716847
     28          1           0       -0.340661    3.960456    0.352848
     29          6           0       -0.441530    3.106590   -1.628918
     30          8           0       -0.664493    3.257124   -2.837279
     31          7           0       -0.457668    1.875918   -1.071038
     32          1           0       -0.195134    1.763662   -0.101469
     33          6           0       -0.582392    0.683519   -1.898989
     34          1           0       -1.486125    0.762472   -2.509038
     35          1           0       -0.684558   -0.179821   -1.238063
     36          6           0        0.678660    0.482614   -2.752063
     37          8           0        1.775246    0.296758   -2.225843
     38          7           0        0.493058    0.522791   -4.095681
     39          1           0       -0.378937    0.894169   -4.447056
     40          6           0        1.610086    0.388374   -5.024275
     41          1           0        2.231975   -0.447551   -4.692190
     42          1           0        1.217492    0.169600   -6.017601
     43          6           0        2.449440    1.674143   -5.128304
     44          8           0        2.321353    2.415266   -6.113351
     45          7           0        3.299421    1.872827   -4.103379
     46          1           0        3.186061    1.246513   -3.306043
     47          6           0        4.197904    3.003295   -3.986934
     48          1           0        5.174541    2.639701   -3.650241
     49          1           0        4.329141    3.457027   -4.973877
     50          6           0        3.663645    4.097652   -3.049721
     51          8           0        2.478802    4.441433   -3.049836
     52          7           0        4.598368    4.650011   -2.235110
     53          1           0        5.570874    4.439038   -2.413614
     54          6           0        4.311288    5.818281   -1.414948
     55          1           0        5.176648    5.998335   -0.771305
     56          1           0        3.445513    5.617879   -0.779180
     57          6           0        4.074726    7.053928   -2.293692
     58          8           0        4.817545    7.319498   -3.238661
     59          7           0        2.987093    7.795772   -1.968253
     60          1           0        2.349189    7.467527   -1.240433
     61          6           0        2.544339    8.859541   -2.856958
     62          1           0        3.389385    9.505884   -3.108514
     63          1           0        1.780451    9.453579   -2.353065
     64          6           0        1.930770    8.239038   -4.120654
     65          8           0        0.718762    7.933643   -4.179198
     66          7           0        2.807581    8.015215   -5.116585
     67          1           0        3.793726    8.047860   -4.849892
     68          6           0        2.469772    7.305743   -6.341921
     69          1           0        2.980763    7.786334   -7.182737
     70          1           0        1.394813    7.374329   -6.502846
     71          6           0        2.944415    5.850753   -6.274217
     72          8           0        4.086477    5.546037   -6.019359
     73          8           0        1.956264    4.969061   -6.518484
     74          1           0        2.301061    4.025076   -6.424793
 ---------------------------------------------------------------------

 SCF Done:  E(RB3LYP) =  -2156.98398482     A.U. after    1 cycles

 Alpha  occ. eigenvalues --  -19.29748 -19.25349 -19.25257 -19.24669 -19.24303
 Alpha  occ. eigenvalues --  -19.23853 -19.23252 -19.23021 -19.22844 -19.21788
 Alpha  occ. eigenvalues --  -19.20797 -14.53689 -14.49407 -14.49086 -14.48432
 Alpha  occ. eigenvalues --  -14.48202 -14.47492 -14.47228 -14.47156 -14.46145
 Alpha  occ. eigenvalues --  -14.45724 -10.43037 -10.42017 -10.41953 -10.41775
 Alpha  occ. eigenvalues --  -10.40545 -10.40454 -10.40044 -10.39859 -10.38878
 Alpha  occ. eigenvalues --  -10.38562 -10.37501 -10.34861 -10.34793 -10.34469
 Alpha  occ. eigenvalues --  -10.34025 -10.33903 -10.33693 -10.33251 -10.33072
 Alpha  occ. eigenvalues --  -10.32764  -1.20706  -1.16988  -1.16627  -1.16190
 Alpha  occ. eigenvalues --   -1.15452  -1.14798  -1.14667  -1.14316  -1.13382
 Alpha  occ. eigenvalues --   -1.12936  -1.12127  -1.09242  -1.05181  -1.04983
 Alpha  occ. eigenvalues --   -1.04757  -1.04179  -1.03634  -1.03339  -1.03026
 Alpha  occ. eigenvalues --   -1.02469  -1.01624  -0.88742  -0.88064  -0.87922
 Alpha  occ. eigenvalues --   -0.86670  -0.85190  -0.83981  -0.82666  -0.81392
 Alpha  occ. eigenvalues --   -0.79772  -0.78928  -0.73875  -0.72601  -0.72247
 Alpha  occ. eigenvalues --   -0.70787  -0.70503  -0.69965  -0.69735  -0.69180
 Alpha  occ. eigenvalues --   -0.68877  -0.68497  -0.68396  -0.68058  -0.66334
 Alpha  occ. eigenvalues --   -0.65066  -0.64579  -0.64328  -0.63912  -0.62806
 Alpha  occ. eigenvalues --   -0.62274  -0.61263  -0.60978  -0.60815  -0.60486
 Alpha  occ. eigenvalues --   -0.59935  -0.59659  -0.59450  -0.58828  -0.58702
 Alpha  occ. eigenvalues --   -0.58410  -0.58075  -0.57203  -0.56815  -0.56215
 Alpha  occ. eigenvalues --   -0.55716  -0.55475  -0.54747  -0.54197  -0.53840
 Alpha  occ. eigenvalues --   -0.53522  -0.53475  -0.53178  -0.52999  -0.52755
 Alpha  occ. eigenvalues --   -0.52464  -0.52329  -0.52079  -0.51780  -0.51476
 Alpha  occ. eigenvalues --   -0.51215  -0.50629  -0.50552  -0.50299  -0.50168
 Alpha  occ. eigenvalues --   -0.49737  -0.49136  -0.49033  -0.48721  -0.48406
 Alpha  occ. eigenvalues --   -0.48268  -0.47500  -0.46590  -0.46267  -0.45979
 Alpha  occ. eigenvalues --   -0.42557  -0.40197  -0.39960  -0.39883  -0.39754
 Alpha  occ. eigenvalues --   -0.39549  -0.39203  -0.38654  -0.38094  -0.37874
 Alpha  occ. eigenvalues --   -0.37650  -0.37413  -0.37075  -0.36427  -0.35893
 Alpha  occ. eigenvalues --   -0.35790  -0.35527  -0.34780  -0.34532  -0.34219
 Alpha virt. eigenvalues --   -0.12032  -0.11651  -0.10922  -0.10386  -0.10193
 Alpha virt. eigenvalues --   -0.09536  -0.09387  -0.08523  -0.07818  -0.07284
 Alpha virt. eigenvalues --   -0.05384  -0.03555  -0.02436  -0.02294  -0.01727

 Mulliken charges:
               1
     1  N   -0.827871
     2  H    0.426333
     3  H    0.464605
     4  H    0.425659
     5  C   -0.255912
     6  H    0.196758
     7  H    0.227116
     8  C    0.608450
     9  O   -0.500286
    10  N   -0.591924
    11  H    0.353559
    12  C   -0.232304
    13  H    0.226167
    14  H    0.200500
    15  C    0.605361
    16  O   -0.488146
    17  N   -0.629231
    18  H    0.363509
    19  C   -0.235500
    20  H    0.180480
    21  H    0.236360
    22  C    0.604395
    23  O   -0.542475
    24  N   -0.611845
    25  H    0.392104
    26  C   -0.219848
    27  H    0.239184
    28  H    0.182302
    29  C    0.645716
    30  O   -0.565272
    31  N   -0.571601
    32  H    0.361009
    33  C   -0.233670
    34  H    0.191425
    35  H    0.209515
    36  C    0.621825
    37  O   -0.523992
    38  N   -0.567499
    39  H    0.351873
    40  C   -0.242399
    41  H    0.210280
    42  H    0.201831
    43  C    0.610433
    44  O   -0.559484
    45  N   -0.559583
    46  H    0.385806
    47  C   -0.276380
    48  H    0.177308
    49  H    0.243733
    50  C    0.639545
    51  O   -0.570781
    52  N   -0.565431
    53  H    0.355891
    54  C   -0.257336
    55  H    0.201299
    56  H    0.207432
    57  C    0.621227
    58  O   -0.530541
    59  N   -0.617887
    60  H    0.406011
    61  C   -0.234281
    62  H    0.205213
    63  H    0.188876
    64  C    0.602701
    65  O   -0.588264
    66  N   -0.548571
    67  H    0.398945
    68  C   -0.232200
    69  H    0.219165
    70  H    0.182652
    71  C    0.602438
    72  O   -0.438062
    73  O   -0.630304
    74  H    0.473895
 Sum of Mulliken charges =   1.00000

 Dipole moment (field-independent basis, Debye):
    X=              3.2102    Y=             22.9620    Z=            -18.6470  Tot=             29.7535
 Quadrupole moment (field-independent basis, Debye-Ang):
   XX=           -210.1901   YY=            -60.5961   ZZ=           -136.3092
   XY=             14.9042   XZ=              7.4082   YZ=           -108.5231

 Normal termination of Gaussian 16 at Sat Jul  9 19:21:55 2022.
