 Gaussian 16, Revision C.01,
 Gaussian 16:  ES64L-G16RevC.01  3-Jul-2019

 -------------------------------------------------------------------
 # B3LYP/6-31G* guess=read geom=check nosymm integral(ultrafinegrid)
 -------------------------------------------------------------------

 ------------------------------------------------------
 Candidate Structure: Conf:684 Charge calc in gas phase
 ------------------------------------------------------
 Structure from the checkpoint file:  "conf-684.chk"
 Charge =  1 Multiplicity = 1

                          Input orientation:
 ---------------------------------------------------------------------
 Center     Atomic      Atomic             Coordinates (Angstroms)
 Number     Number       Type             X           Y           Z
 ---------------------------------------------------------------------
      1          7           0       -1.992883    2.661910   -2.484597
      2          1           0       -1.253256    3.123488   -1.924569
      3          1           0       -1.828217    1.641210   -2.393751
      4          1           0       -1.885226    2.953156   -3.481051
      5          6           0       -3.367884    2.951646   -1.986181
      6          1           0       -3.375033    2.813339   -0.903752
      7          1           0       -3.614417    3.990161   -2.222767
      8          6           0       -4.307993    1.983230   -2.715488
      9          8           0       -4.085064    1.697639   -3.888556
     10          7           0       -5.336995    1.472095   -1.997164
     11          1           0       -5.314068    1.591172   -0.991088
     12          6           0       -5.979677    0.229148   -2.452342
     13          1           0       -6.095145    0.277892   -3.535417
     14          1           0       -6.955810    0.136160   -1.975697
     15          6           0       -5.062757   -0.904962   -1.972157
     16          8           0       -5.133734   -1.324186   -0.822239
     17          7           0       -4.082408   -1.288835   -2.838342
     18          1           0       -3.957350   -0.806802   -3.722264
     19          6           0       -2.930378   -1.980485   -2.309683
     20          1           0       -3.238384   -2.905528   -1.812941
     21          1           0       -2.281271   -2.226998   -3.154190
     22          6           0       -2.147956   -1.093670   -1.327723
     23          8           0       -2.170084    0.144070   -1.373688
     24          7           0       -1.397701   -1.730692   -0.405494
     25          1           0       -1.407127   -2.739573   -0.356703
     26          6           0       -0.620024   -0.980520    0.560073
     27          1           0       -1.278045   -0.306396    1.119622
     28          1           0       -0.183283   -1.689364    1.269893
     29          6           0        0.534973   -0.202958   -0.094871
     30          8           0        1.186154   -0.662661   -1.021900
     31          7           0        0.828310    0.986898    0.513374
     32          1           0        0.140075    1.405178    1.123847
     33          6           0        1.896436    1.830724    0.034796
     34          1           0        2.591419    1.190954   -0.515774
     35          1           0        2.436185    2.269429    0.883525
     36          6           0        1.401942    2.971028   -0.867383
     37          8           0        0.222172    3.329530   -0.877710
     38          7           0        2.374452    3.599611   -1.576102
     39          1           0        3.268312    3.131505   -1.655271
     40          6           0        2.051554    4.567449   -2.600995
     41          1           0        1.245996    5.208063   -2.229336
     42          1           0        2.924053    5.200736   -2.790602
     43          6           0        1.590821    3.874049   -3.897099
     44          8           0        1.473087    2.652564   -3.959125
     45          7           0        1.319113    4.686397   -4.947829
     46          1           0        1.283768    5.687220   -4.809728
     47          6           0        0.714468    4.127464   -6.147144
     48          1           0        0.461119    4.951909   -6.819295
     49          1           0        1.430984    3.477736   -6.659818
     50          6           0       -0.567695    3.357753   -5.792189
     51          8           0       -1.341752    3.805564   -4.936701
     52          7           0       -0.766269    2.207510   -6.466970
     53          1           0        0.013717    1.808732   -6.981782
     54          6           0       -1.857037    1.294013   -6.155283
     55          1           0       -2.255515    0.863086   -7.077039
     56          1           0       -2.659825    1.847737   -5.664970
     57          6           0       -1.431595    0.111219   -5.271298
     58          8           0       -2.111167   -0.911295   -5.244502
     59          7           0       -0.292609    0.284469   -4.532853
     60          1           0        0.231244    1.136863   -4.706178
     61          6           0        0.586689   -0.845714   -4.299009
     62          1           0       -0.016996   -1.756650   -4.262844
     63          1           0        1.101309   -0.739824   -3.339367
     64          6           0        1.589050   -0.938551   -5.469353
     65          8           0        1.518663   -0.194112   -6.448466
     66          7           0        2.537391   -1.890961   -5.338392
     67          1           0        2.573906   -2.502904   -4.530022
     68          6           0        3.520649   -2.148559   -6.368165
     69          1           0        4.169437   -1.279518   -6.534853
     70          1           0        3.043941   -2.368460   -7.331284
     71          6           0        4.366969   -3.331534   -5.940458
     72          8           0        4.221049   -3.934030   -4.898624
     73          8           0        5.298838   -3.624695   -6.860868
     74          1           0        5.803344   -4.392224   -6.529440
 ---------------------------------------------------------------------

 SCF Done:  E(RB3LYP) =  -2156.97198569     A.U. after    3 cycles

 Alpha  occ. eigenvalues --  -19.28198 -19.24527 -19.23974 -19.23221 -19.23212
 Alpha  occ. eigenvalues --  -19.22889 -19.22869 -19.21975 -19.20717 -19.20278
 Alpha  occ. eigenvalues --  -19.19837 -14.52422 -14.48515 -14.48238 -14.47416
 Alpha  occ. eigenvalues --  -14.47200 -14.47184 -14.46958 -14.44570 -14.44166
 Alpha  occ. eigenvalues --  -14.44003 -10.41401 -10.41051 -10.40860 -10.40678
 Alpha  occ. eigenvalues --  -10.40413 -10.39593 -10.39441 -10.37851 -10.37278
 Alpha  occ. eigenvalues --  -10.37064 -10.36190 -10.35157 -10.34477 -10.34148
 Alpha  occ. eigenvalues --  -10.33777 -10.32014 -10.31953 -10.31771 -10.31577
 Alpha  occ. eigenvalues --  -10.30828  -1.19333  -1.16572  -1.15732  -1.15527
 Alpha  occ. eigenvalues --   -1.14713  -1.14533  -1.13653  -1.12608  -1.11770
 Alpha  occ. eigenvalues --   -1.11685  -1.10479  -1.07921  -1.04751  -1.04189
 Alpha  occ. eigenvalues --   -1.03605  -1.03368  -1.03077  -1.03024  -1.00968
 Alpha  occ. eigenvalues --   -1.00530  -1.00352  -0.88556  -0.86858  -0.86398
 Alpha  occ. eigenvalues --   -0.85239  -0.84435  -0.82880  -0.81481  -0.80172
 Alpha  occ. eigenvalues --   -0.78431  -0.77883  -0.72193  -0.71084  -0.70554
 Alpha  occ. eigenvalues --   -0.70420  -0.69698  -0.69356  -0.69001  -0.67939
 Alpha  occ. eigenvalues --   -0.67572  -0.67439  -0.66987  -0.66525  -0.65812
 Alpha  occ. eigenvalues --   -0.64130  -0.63635  -0.63314  -0.62306  -0.61465
 Alpha  occ. eigenvalues --   -0.61012  -0.60233  -0.60115  -0.59610  -0.58888
 Alpha  occ. eigenvalues --   -0.58606  -0.57941  -0.57455  -0.57035  -0.56992
 Alpha  occ. eigenvalues --   -0.56776  -0.56478  -0.56000  -0.55679  -0.55195
 Alpha  occ. eigenvalues --   -0.55041  -0.54427  -0.54248  -0.54164  -0.53649
 Alpha  occ. eigenvalues --   -0.53401  -0.52915  -0.52777  -0.52408  -0.52139
 Alpha  occ. eigenvalues --   -0.51627  -0.51364  -0.51223  -0.50597  -0.50506
 Alpha  occ. eigenvalues --   -0.49701  -0.49414  -0.49143  -0.48851  -0.48495
 Alpha  occ. eigenvalues --   -0.48169  -0.47981  -0.47836  -0.47274  -0.47250
 Alpha  occ. eigenvalues --   -0.46760  -0.45981  -0.45168  -0.44779  -0.43750
 Alpha  occ. eigenvalues --   -0.40462  -0.39347  -0.38927  -0.38585  -0.38423
 Alpha  occ. eigenvalues --   -0.38143  -0.37616  -0.37469  -0.37302  -0.37111
 Alpha  occ. eigenvalues --   -0.36992  -0.36655  -0.36279  -0.35271  -0.35112
 Alpha  occ. eigenvalues --   -0.34244  -0.34164  -0.33889  -0.33552  -0.32876
 Alpha virt. eigenvalues --   -0.10635  -0.10193  -0.10092  -0.08953  -0.08599
 Alpha virt. eigenvalues --   -0.08336  -0.07522  -0.07269  -0.05958  -0.05517
 Alpha virt. eigenvalues --   -0.03794  -0.03141  -0.02843  -0.01713  -0.01157

 Mulliken charges:
               1
     1  N   -0.817179
     2  H    0.432620
     3  H    0.434918
     4  H    0.445307
     5  C   -0.257834
     6  H    0.202691
     7  H    0.228295
     8  C    0.632508
     9  O   -0.511750
    10  N   -0.572568
    11  H    0.350349
    12  C   -0.238129
    13  H    0.205375
    14  H    0.201004
    15  C    0.589364
    16  O   -0.513437
    17  N   -0.571821
    18  H    0.374718
    19  C   -0.251373
    20  H    0.191212
    21  H    0.221357
    22  C    0.661507
    23  O   -0.590244
    24  N   -0.565845
    25  H    0.355471
    26  C   -0.229581
    27  H    0.178710
    28  H    0.203309
    29  C    0.626086
    30  O   -0.507216
    31  N   -0.577958
    32  H    0.343967
    33  C   -0.249141
    34  H    0.212268
    35  H    0.205049
    36  C    0.633754
    37  O   -0.555269
    38  N   -0.553032
    39  H    0.353297
    40  C   -0.263838
    41  H    0.213561
    42  H    0.201513
    43  C    0.620081
    44  O   -0.519306
    45  N   -0.570717
    46  H    0.352376
    47  C   -0.230454
    48  H    0.206185
    49  H    0.200224
    50  C    0.615405
    51  O   -0.559331
    52  N   -0.582626
    53  H    0.371598
    54  C   -0.269622
    55  H    0.208929
    56  H    0.246777
    57  C    0.594913
    58  O   -0.524163
    59  N   -0.600933
    60  H    0.382704
    61  C   -0.289681
    62  H    0.199388
    63  H    0.227881
    64  C    0.614263
    65  O   -0.542322
    66  N   -0.614558
    67  H    0.361287
    68  C   -0.176484
    69  H    0.205685
    70  H    0.213582
    71  C    0.568703
    72  O   -0.456728
    73  O   -0.553510
    74  H    0.428458
 Sum of Mulliken charges =   1.00000

 Dipole moment (field-independent basis, Debye):
    X=              2.5933    Y=             10.4207    Z=            -12.2373  Tot=             16.2809
 Quadrupole moment (field-independent basis, Debye-Ang):
   XX=           -179.0836   YY=           -156.0753   ZZ=           -157.3566
   XY=             -4.9928   XZ=            -23.0106   YZ=            -29.3470

 Normal termination of Gaussian 16 at Sat Jul  9 19:22:18 2022.
