 Gaussian 16, Revision C.01,
 Gaussian 16:  ES64L-G16RevC.01  3-Jul-2019

 -------------------------------------------------------------------
 # B3LYP/6-31G* guess=read geom=check nosymm integral(ultrafinegrid)
 -------------------------------------------------------------------

 ----------------------------------------------------
 Candidate Structure: Conf:2 Charge calc in gas phase
 ----------------------------------------------------
 Structure from the checkpoint file:  "conf-2.chk"
 Charge =  1 Multiplicity = 1

                          Input orientation:
 ---------------------------------------------------------------------
 Center     Atomic      Atomic             Coordinates (Angstroms)
 Number     Number       Type             X           Y           Z
 ---------------------------------------------------------------------
      1          7           0       -0.634077   -2.033040    3.033834
      2          1           0       -0.557317   -1.097665    3.567784
      3          1           0       -1.256801   -2.739648    3.460887
      4          1           0        0.291642   -2.467979    2.983547
      5          6           0       -1.180128   -1.752361    1.664231
      6          1           0       -1.956973   -0.996498    1.805725
      7          6           0       -1.866054   -3.062791    1.204839
      8          6           0       -0.085392   -1.176196    0.743615
      9          1           0        0.702757   -0.694072    1.329421
     10          1           0        0.383747   -1.966223    0.143706
     11          8           0       -1.999601   -3.981669    2.021781
     12          6           0       -0.673527   -0.139117   -0.206448
     13          8           0       -1.849395   -0.168140   -0.538251
     14          8           0        0.211991    0.758226   -0.592800
     15          7           0       -2.278413   -3.064118   -0.062597
     16          1           0       -2.110146   -2.246360   -0.649044
     17          6           0       -2.865582   -4.213167   -0.738852
     18          1           0       -2.374370   -5.117607   -0.362535
     19          6           0       -2.504021   -4.019066   -2.231202
     20          6           0       -4.392581   -4.324355   -0.447733
     21          1           0       -4.916970   -3.524105   -0.982442
     22          1           0       -4.509559   -4.121830    0.622768
     23          8           0       -1.782553   -3.076359   -2.571608
     24          6           0       -5.006587   -5.672046   -0.769665
     25          6           0       -5.912027   -5.839105   -1.830706
     26          1           0       -6.182290   -4.985265   -2.448215
     27          6           0       -4.693130   -6.796824    0.007853
     28          1           0       -4.010605   -6.695070    0.849199
     29          6           0       -6.478016   -7.079589   -2.115314
     30          1           0       -7.179317   -7.202642   -2.934113
     31          6           0       -5.252282   -8.043199   -0.263613
     32          1           0       -4.998660   -8.900776    0.356541
     33          8           0       -6.732112   -9.377936   -1.650383
     34          1           0       -6.438531  -10.063326   -1.029731
     35          6           0       -6.149242   -8.190017   -1.329744
     36          7           0       -3.002964   -4.913682   -3.108158
     37          1           0       -3.677506   -5.602043   -2.792297
     38          6           0       -2.756520   -4.791748   -4.554033
     39          1           0       -1.728479   -4.436974   -4.666136
     40          6           0       -3.725901   -3.737221   -5.148227
     41          6           0       -2.917987   -6.161276   -5.235357
     42          1           0       -3.982287   -6.419759   -5.239527
     43          1           0       -2.396137   -6.900639   -4.615734
     44          8           0       -4.800029   -4.052832   -5.661483
     45          6           0       -2.362377   -6.197316   -6.645466
     46          6           0       -3.164019   -5.900048   -7.758401
     47          1           0       -4.205741   -5.636352   -7.604364
     48          6           0       -1.019976   -6.523661   -6.871583
     49          1           0       -0.375951   -6.770744   -6.029754
     50          6           0       -2.646139   -5.926024   -9.049488
     51          1           0       -3.268849   -5.701760   -9.909844
     52          6           0       -0.485833   -6.552102   -8.159447
     53          1           0        0.559502   -6.815000   -8.312080
     54          8           0       -0.846116   -6.263886  -10.543686
     55          1           0        0.089264   -6.520167  -10.548840
     56          6           0       -1.301207   -6.252280   -9.255439
     57          7           0       -3.306497   -2.455220   -5.027688
     58          1           0       -2.470524   -2.230017   -4.492868
     59          6           0       -4.087785   -1.343460   -5.532240
     60          1           0       -4.392369   -1.576297   -6.558458
     61          6           0       -3.172095   -0.111225   -5.519001
     62          6           0       -5.386258   -1.087308   -4.695398
     63          1           0       -5.760913   -2.075549   -4.415133
     64          1           0       -5.121761   -0.555855   -3.773600
     65          8           0       -2.139897   -0.089362   -4.838116
     66          6           0       -6.463145   -0.349998   -5.462536
     67          6           0       -6.770240    0.993688   -5.208162
     68          1           0       -6.234928    1.528777   -4.426612
     69          6           0       -7.171505   -1.021376   -6.472919
     70          1           0       -6.945988   -2.067285   -6.670307
     71          6           0       -7.759016    1.653426   -5.943272
     72          1           0       -7.984205    2.694806   -5.730084
     73          6           0       -8.158253   -0.364790   -7.207330
     74          1           0       -8.700392   -0.900648   -7.981728
     75          6           0       -8.454583    0.975598   -6.944932
     76          1           0       -9.224868    1.486349   -7.515960
     77          7           0       -3.577005    0.941929   -6.264858
     78          1           0       -4.489411    0.911270   -6.704375
     79          6           0       -2.814493    2.194350   -6.355206
     80          1           0       -1.758169    1.908339   -6.310139
     81          6           0       -3.113554    3.114742   -5.144053
     82          6           0       -3.121640    2.899931   -7.671692
     83          1           0       -2.522597    3.809586   -7.760197
     84          1           0       -2.892187    2.242521   -8.515671
     85          1           0       -4.173141    3.199168   -7.717539
     86          8           0       -3.742879    4.160647   -5.254864
     87          7           0       -2.614529    2.654118   -3.957745
     88          1           0       -2.160850    1.741683   -3.946464
     89          6           0       -2.892651    3.335890   -2.702855
     90          1           0       -3.460414    4.226612   -2.982789
     91          6           0       -1.564971    3.753813   -2.059523
     92          6           0       -3.720811    2.454509   -1.744346
     93          1           0       -4.622764    2.147399   -2.291627
     94          1           0       -3.146879    1.545668   -1.534130
     95          8           0       -0.652352    2.954515   -1.806906
     96          6           0       -4.133350    3.121590   -0.415111
     97          1           0       -3.230190    3.519494    0.069536
     98          6           0       -5.113348    4.287596   -0.619288
     99          1           0       -6.033969    3.945358   -1.108863
    100          1           0       -5.393335    4.735389    0.340929
    101          1           0       -4.692034    5.088232   -1.238720
    102          6           0       -4.741092    2.068030    0.524417
    103          1           0       -5.655614    1.638037    0.095949
    104          1           0       -5.008074    2.509104    1.492393
    105          1           0       -4.038750    1.243899    0.698015
    106          7           0       -1.423569    5.067962   -1.781925
    107          1           0       -2.188665    5.697000   -1.982929
    108          6           0       -0.233734    5.608762   -1.145660
    109          1           0        0.633017    5.359843   -1.769568
    110          6           0       -0.017819    4.982648    0.247608
    111          6           0       -0.363659    7.133160   -1.018009
    112          1           0        0.543130    7.560485   -0.581354
    113          1           0       -1.210596    7.394490   -0.374395
    114          1           0       -0.510666    7.586827   -2.003483
    115          8           0       -0.969259    4.659103    0.970536
    116          7           0        1.273980    4.886634    0.616260
    117          1           0        2.009670    5.244074    0.009107
    118          6           0        1.764274    4.548900    1.943073
    119          1           0        1.041995    4.894865    2.690437
    120          6           0        3.093789    5.325685    2.105079
    121          6           0        2.043915    3.021052    2.127159
    122          1           0        2.927142    2.879599    2.760534
    123          1           0        2.301161    2.624147    1.136995
    124          8           0        3.664547    5.792533    1.126874
    125          6           0        0.933368    2.208953    2.726303
    126          6           0        0.979328    1.046594    3.462487
    127          1           0        1.853761    0.526445    3.829920
    128          7           0       -0.409000    2.470381    2.554840
    129          1           0       -0.779115    3.282038    2.031179
    130          6           0       -1.109826    1.486435    3.162464
    131          1           0       -2.190517    1.464055    3.185581
    132          7           0       -0.300929    0.592720    3.722810
    133          7           0        3.541855    5.423347    3.389214
    134          1           0        3.141927    4.765033    4.056550
    135          6           0        4.957534    5.665536    3.692046
    136          1           0        5.443155    5.987606    2.767434
    137          6           0        5.516760    4.316169    4.195703
    138          6           0        5.068078    6.807220    4.744983
    139          1           0        4.648079    6.424624    5.691861
    140          8           0        4.742325    3.478569    4.676773
    141          6           0        6.494793    7.288340    4.978074
    142          1           0        7.137472    6.508714    5.394862
    143          1           0        6.933220    7.645246    4.039184
    144          1           0        6.474457    8.129906    5.676430
    145          8           0        4.331746    7.931990    4.295939
    146          1           0        3.444829    7.613300    4.059976
    147          7           0        6.842249    4.132809    4.066603
    148          1           0        7.447637    4.897365    3.777319
    149          6           0        7.577749    3.012368    4.650587
    150          1           0        6.930780    2.543310    5.398599
    151          6           0        8.820988    3.653961    5.306060
    152          6           0        7.977346    1.953265    3.578040
    153          1           0        8.701678    2.439578    2.909026
    154          8           0        9.299241    4.686331    4.817979
    155          6           0        8.646067    0.722849    4.211753
    156          1           0        7.959545    0.214840    4.902016
    157          1           0        9.554219    0.968135    4.767923
    158          1           0        8.919237    0.002875    3.432625
    159          6           0        6.763650    1.522788    2.740888
    160          1           0        5.988996    1.074995    3.374841
    161          1           0        7.067651    0.778359    1.996233
    162          1           0        6.318719    2.367734    2.206970
    163          7           0        9.316379    3.034478    6.387821
    164          1           0        8.957356    2.140918    6.726379
    165          6           0       10.594530    3.367041    7.009118
    166          1           0       11.319861    3.598334    6.220792
    167          6           0       11.045115    2.067695    7.754604
    168          6           0       10.438540    4.627262    7.917335
    169          1           0        9.705940    5.258204    7.407446
    170          1           0        9.981925    4.333066    8.872288
    171          8           0       12.260535    2.057236    8.163257
    172          6           0       11.702236    5.496375    8.156917
    173          1           0       11.440106    6.552537    8.027384
    174          1           0       12.459896    5.282535    7.392349
    175          6           0       12.356905    5.378075    9.542055
    176          1           0       11.628297    5.625485   10.327234
    177          1           0       13.184635    6.096485    9.615912
    178          7           0       12.846297    4.014559    9.729768
    179          1           0       12.743601    3.366253    8.899256
    180          7           0       13.081239    3.981296   12.060208
    181          1           0       12.824259    3.514450   12.917090
    182          1           0       13.150481    4.987079   12.087139
    183          7           0       12.867249    2.007440   10.835667
    184          1           0       13.274749    1.449780   11.571444
    185          1           0       12.654715    1.590209    9.911718
    186          6           0       12.929375    3.347658   10.872140
    187          8           0       10.208029    1.165467    7.892434
    188          1           0       -0.218091    1.451173   -1.174985
 ---------------------------------------------------------------------

 SCF Done:  E(RB3LYP) =  -4648.53059967     A.U. after    2 cycles

 Alpha  occ. eigenvalues --  -19.26987 -19.23843 -19.22976 -19.22291 -19.21706
 Alpha  occ. eigenvalues --  -19.21483 -19.21007 -19.20924 -19.19679 -19.19624
 Alpha  occ. eigenvalues --  -19.18833 -19.18323 -19.17305 -19.17070 -19.16083
 Alpha  occ. eigenvalues --  -19.13716 -19.12808 -14.54273 -14.47162 -14.45770
 Alpha  occ. eigenvalues --  -14.45185 -14.45156 -14.45123 -14.43969 -14.43616
 Alpha  occ. eigenvalues --  -14.43046 -14.43022 -14.42771 -14.42373 -14.42055
 Alpha  occ. eigenvalues --  -14.41455 -14.40983 -14.39486 -10.41528 -10.40372
 Alpha  occ. eigenvalues --  -10.39406 -10.38320 -10.37796 -10.37465 -10.36807
 Alpha  occ. eigenvalues --  -10.36645 -10.35732 -10.35377 -10.34378 -10.34076
 Alpha  occ. eigenvalues --  -10.33805 -10.33224 -10.33121 -10.32588 -10.32097
 Alpha  occ. eigenvalues --  -10.31464 -10.31368 -10.31345 -10.31129 -10.30101
 Alpha  occ. eigenvalues --  -10.29890 -10.29772 -10.29713 -10.29620 -10.29570
 Alpha  occ. eigenvalues --  -10.29405 -10.29241 -10.29118 -10.28856 -10.28352
 Alpha  occ. eigenvalues --  -10.27185 -10.27094 -10.26243 -10.26080 -10.25859
 Alpha  occ. eigenvalues --  -10.25702 -10.25512 -10.25175 -10.25118 -10.25041
 Alpha  occ. eigenvalues --  -10.24970 -10.24832 -10.24697 -10.24551 -10.24432
 Alpha  occ. eigenvalues --  -10.24215 -10.24061 -10.23951 -10.23861 -10.23777
 Alpha  occ. eigenvalues --  -10.23753 -10.23624 -10.23579 -10.23437 -10.23377
 Alpha  occ. eigenvalues --  -10.23278 -10.23021 -10.22738 -10.22637 -10.22488
 Alpha  occ. eigenvalues --  -10.22234 -10.21963  -1.18827  -1.14467  -1.13523
 Alpha  occ. eigenvalues --   -1.12741  -1.12099  -1.12009  -1.11703  -1.10771
 Alpha  occ. eigenvalues --   -1.10744  -1.10145  -1.10054  -1.09744  -1.09131
 Alpha  occ. eigenvalues --   -1.09048  -1.08970  -1.08635  -1.07867  -1.07535
 Alpha  occ. eigenvalues --   -1.06404  -1.02204  -1.01852  -1.01415  -1.00371
 Alpha  occ. eigenvalues --   -0.99876  -0.99322  -0.99045  -0.98460  -0.98080
 Alpha  occ. eigenvalues --   -0.97679  -0.97677  -0.97008  -0.96557  -0.95812
 Alpha  occ. eigenvalues --   -0.92122  -0.90698  -0.90167  -0.89423  -0.88952
 Alpha  occ. eigenvalues --   -0.87522  -0.86510  -0.86018  -0.85955  -0.85153
 Alpha  occ. eigenvalues --   -0.84794  -0.83939  -0.83590  -0.82762  -0.82099
 Alpha  occ. eigenvalues --   -0.81364  -0.81275  -0.80426  -0.79505  -0.79406
 Alpha  occ. eigenvalues --   -0.79239  -0.78669  -0.78633  -0.77766  -0.76828
 Alpha  occ. eigenvalues --   -0.76458  -0.75519  -0.74378  -0.73656  -0.73566
 Alpha  occ. eigenvalues --   -0.73060  -0.72556  -0.72384  -0.71860  -0.71281
 Alpha  occ. eigenvalues --   -0.70817  -0.70786  -0.70399  -0.69686  -0.68815
 Alpha  occ. eigenvalues --   -0.68708  -0.68405  -0.68245  -0.67674  -0.67242
 Alpha  occ. eigenvalues --   -0.66722  -0.66634  -0.66143  -0.66081  -0.65939
 Alpha  occ. eigenvalues --   -0.65661  -0.65603  -0.65405  -0.65358  -0.65137
 Alpha  occ. eigenvalues --   -0.64623  -0.64151  -0.63805  -0.63628  -0.63161
 Alpha  occ. eigenvalues --   -0.62958  -0.62868  -0.62797  -0.62589  -0.62249
 Alpha  occ. eigenvalues --   -0.62129  -0.61696  -0.61144  -0.60708  -0.60523
 Alpha  occ. eigenvalues --   -0.59949  -0.58940  -0.58661  -0.58167  -0.58105
 Alpha  occ. eigenvalues --   -0.57939  -0.57765  -0.57373  -0.57170  -0.56804
 Alpha  occ. eigenvalues --   -0.56585  -0.56481  -0.56096  -0.55851  -0.55706
 Alpha  occ. eigenvalues --   -0.55289  -0.55056  -0.54841  -0.54778  -0.54689
 Alpha  occ. eigenvalues --   -0.54395  -0.54182  -0.53914  -0.53694  -0.53582
 Alpha  occ. eigenvalues --   -0.53439  -0.53294  -0.53019  -0.52938  -0.52718
 Alpha  occ. eigenvalues --   -0.52646  -0.52355  -0.52217  -0.52057  -0.52038
 Alpha  occ. eigenvalues --   -0.51678  -0.51469  -0.51193  -0.50964  -0.50960
 Alpha  occ. eigenvalues --   -0.50701  -0.50654  -0.50578  -0.50445  -0.50238
 Alpha  occ. eigenvalues --   -0.50024  -0.49837  -0.49716  -0.49649  -0.49481
 Alpha  occ. eigenvalues --   -0.49015  -0.48767  -0.48738  -0.48481  -0.48411
 Alpha  occ. eigenvalues --   -0.48354  -0.48245  -0.48148  -0.47789  -0.47752
 Alpha  occ. eigenvalues --   -0.47603  -0.47381  -0.47218  -0.47162  -0.46999
 Alpha  occ. eigenvalues --   -0.46847  -0.46732  -0.46491  -0.46390  -0.46320
 Alpha  occ. eigenvalues --   -0.46244  -0.45971  -0.45930  -0.45659  -0.45642
 Alpha  occ. eigenvalues --   -0.45599  -0.45385  -0.45269  -0.45065  -0.44927
 Alpha  occ. eigenvalues --   -0.44789  -0.44602  -0.44570  -0.44394  -0.44346
 Alpha  occ. eigenvalues --   -0.44264  -0.44208  -0.43936  -0.43901  -0.43680
 Alpha  occ. eigenvalues --   -0.43609  -0.43544  -0.43485  -0.43262  -0.43221
 Alpha  occ. eigenvalues --   -0.43110  -0.43071  -0.42722  -0.42592  -0.42202
 Alpha  occ. eigenvalues --   -0.42160  -0.41703  -0.41657  -0.41426  -0.41097
 Alpha  occ. eigenvalues --   -0.40997  -0.40487  -0.40324  -0.40210  -0.40044
 Alpha  occ. eigenvalues --   -0.39901  -0.39655  -0.39509  -0.39350  -0.39277
 Alpha  occ. eigenvalues --   -0.39124  -0.39107  -0.38912  -0.38816  -0.38761
 Alpha  occ. eigenvalues --   -0.38545  -0.38458  -0.38194  -0.37903  -0.37850
 Alpha  occ. eigenvalues --   -0.37500  -0.36834  -0.36676  -0.36439  -0.36246
 Alpha  occ. eigenvalues --   -0.36135  -0.35649  -0.35285  -0.35075  -0.34717
 Alpha  occ. eigenvalues --   -0.34637  -0.34481  -0.34321  -0.34153  -0.33472
 Alpha  occ. eigenvalues --   -0.33210  -0.33163  -0.32732  -0.32171  -0.31790
 Alpha  occ. eigenvalues --   -0.31654  -0.31325  -0.31204  -0.30900  -0.30316
 Alpha  occ. eigenvalues --   -0.30176  -0.29977  -0.29902  -0.29765  -0.29172
 Alpha  occ. eigenvalues --   -0.29014  -0.28750  -0.28207  -0.27994  -0.27040
 Alpha  occ. eigenvalues --   -0.25735
 Alpha virt. eigenvalues --   -0.08608  -0.08052  -0.07626  -0.07229  -0.07109
 Alpha virt. eigenvalues --   -0.06665  -0.06263  -0.06091  -0.06007  -0.05314
 Alpha virt. eigenvalues --   -0.05303  -0.05220  -0.04971  -0.04666  -0.04589

 Mulliken charges:
               1
     1  N   -0.765166
     2  H    0.426975
     3  H    0.408876
     4  H    0.392351
     5  C   -0.102941
     6  H    0.228370
     7  C    0.620925
     8  C   -0.410850
     9  H    0.204259
    10  H    0.222293
    11  O   -0.550489
    12  C    0.624075
    13  O   -0.472023
    14  O   -0.585125
    15  N   -0.608209
    16  H    0.398943
    17  C   -0.061532
    18  H    0.195237
    19  C    0.616536
    20  C   -0.352349
    21  H    0.161748
    22  H    0.180546
    23  O   -0.542699
    24  C    0.126204
    25  C   -0.222173
    26  H    0.152300
    27  C   -0.188815
    28  H    0.146775
    29  C   -0.152570
    30  H    0.162207
    31  C   -0.189080
    32  H    0.134804
    33  O   -0.629630
    34  H    0.415014
    35  C    0.355119
    36  N   -0.623275
    37  H    0.362726
    38  C   -0.045380
    39  H    0.180632
    40  C    0.636358
    41  C   -0.379304
    42  H    0.175174
    43  H    0.148814
    44  O   -0.542689
    45  C    0.148353
    46  C   -0.187785
    47  H    0.159181
    48  C   -0.187896
    49  H    0.121617
    50  C   -0.160805
    51  H    0.144922
    52  C   -0.192399
    53  H    0.121908
    54  O   -0.638571
    55  H    0.409334
    56  C    0.352419
    57  N   -0.630360
    58  H    0.385517
    59  C   -0.026690
    60  H    0.184786
    61  C    0.615353
    62  C   -0.363673
    63  H    0.187783
    64  H    0.150240
    65  O   -0.552943
    66  C    0.131554
    67  C   -0.207477
    68  H    0.137021
    69  C   -0.189477
    70  H    0.161164
    71  C   -0.130022
    72  H    0.143173
    73  C   -0.128734
    74  H    0.143647
    75  C   -0.129833
    76  H    0.142247
    77  N   -0.599736
    78  H    0.354045
    79  C   -0.060446
    80  H    0.185041
    81  C    0.613577
    82  C   -0.461886
    83  H    0.174663
    84  H    0.159632
    85  H    0.174375
    86  O   -0.518189
    87  N   -0.625140
    88  H    0.376599
    89  C   -0.075542
    90  H    0.179451
    91  C    0.674171
    92  C   -0.297412
    93  H    0.148213
    94  H    0.183313
    95  O   -0.586334
    96  C   -0.098136
    97  H    0.147503
    98  C   -0.443530
    99  H    0.150918
   100  H    0.151472
   101  H    0.129395
   102  C   -0.455367
   103  H    0.148385
   104  H    0.140915
   105  H    0.137935
   106  N   -0.592829
   107  H    0.354708
   108  C   -0.030590
   109  H    0.181813
   110  C    0.654135
   111  C   -0.492475
   112  H    0.183695
   113  H    0.180227
   114  H    0.183848
   115  O   -0.560872
   116  N   -0.600717
   117  H    0.367942
   118  C   -0.078724
   119  H    0.186977
   120  C    0.596416
   121  C   -0.369427
   122  H    0.206398
   123  H    0.199956
   124  O   -0.502186
   125  C    0.336661
   126  C   -0.091373
   127  H    0.159148
   128  N   -0.621874
   129  H    0.415924
   130  C    0.215616
   131  H    0.184983
   132  N   -0.519227
   133  N   -0.619212
   134  H    0.351460
   135  C   -0.105304
   136  H    0.194289
   137  C    0.627187
   138  C    0.150714
   139  H    0.122447
   140  O   -0.559958
   141  C   -0.475460
   142  H    0.165289
   143  H    0.162462
   144  H    0.172903
   145  O   -0.617270
   146  H    0.397802
   147  N   -0.601847
   148  H    0.362063
   149  C   -0.055522
   150  H    0.171310
   151  C    0.621666
   152  C   -0.072261
   153  H    0.143558
   154  O   -0.564484
   155  C   -0.466002
   156  H    0.145026
   157  H    0.173966
   158  H    0.150781
   159  C   -0.445693
   160  H    0.144568
   161  H    0.145660
   162  H    0.144205
   163  N   -0.613546
   164  H    0.360033
   165  C   -0.052471
   166  H    0.168803
   167  C    0.596216
   168  C   -0.274769
   169  H    0.173181
   170  H    0.138958
   171  O   -0.639591
   172  C   -0.304460
   173  H    0.159686
   174  H    0.171429
   175  C   -0.146547
   176  H    0.151089
   177  H    0.163069
   178  N   -0.610460
   179  H    0.419303
   180  N   -0.761421
   181  H    0.363775
   182  H    0.369703
   183  N   -0.780011
   184  H    0.349537
   185  H    0.415019
   186  C    0.771000
   187  O   -0.544725
   188  H    0.470295
 Sum of Mulliken charges =   1.00000

 Dipole moment (field-independent basis, Debye):
    X=              9.5232    Y=              3.6056    Z=             18.1982  Tot=             20.8535
 Quadrupole moment (field-independent basis, Debye-Ang):
   XX=           -333.1484   YY=           -436.0918   ZZ=           -285.0509
   XY=             89.8753   XZ=            229.7166   YZ=             79.0532

 Normal termination of Gaussian 16 at Tue Aug  9 20:50:48 2022.
