 Gaussian 16, Revision C.01,
 Gaussian 16:  ES64L-G16RevC.01  3-Jul-2019

 -------------------------------------------------------------------
 # B3LYP/6-31G* guess=read geom=check nosymm integral(ultrafinegrid)
 -------------------------------------------------------------------

 ------------------------------------------------------
 Candidate Structure: Conf:647 Charge calc in gas phase
 ------------------------------------------------------
 Structure from the checkpoint file:  "conf-647.chk"
 Charge =  1 Multiplicity = 1

                          Input orientation:
 ---------------------------------------------------------------------
 Center     Atomic      Atomic             Coordinates (Angstroms)
 Number     Number       Type             X           Y           Z
 ---------------------------------------------------------------------
      1          7           0        2.293318   -3.964663    0.714505
      2          1           0        2.110168   -4.236170   -0.256381
      3          1           0        2.601859   -2.897835    0.692147
      4          1           0        3.052823   -4.558752    1.094628
      5          6           0        1.069978   -4.230080    1.567698
      6          1           0        0.743455   -5.247108    1.328947
      7          6           0        0.009896   -3.179017    1.171359
      8          6           0        1.429349   -4.118515    3.049702
      9          1           0        1.680473   -3.078357    3.290606
     10          1           0        0.549723   -4.357055    3.655688
     11          8           0        0.020376   -2.070700    1.692791
     12          6           0        2.577114   -5.021413    3.457428
     13          8           0        3.357023   -5.541638    2.672146
     14          8           0        2.658524   -5.165909    4.778211
     15          7           0       -0.818794   -3.546265    0.168155
     16          1           0       -0.888641   -4.497715   -0.179734
     17          6           0       -1.686733   -2.586556   -0.494748
     18          1           0       -1.980499   -1.836796    0.246484
     19          6           0       -2.907045   -3.345250   -1.027852
     20          6           0       -0.928717   -1.852228   -1.651939
     21          1           0       -0.128019   -1.279772   -1.171505
     22          1           0       -1.602873   -1.118911   -2.106818
     23          8           0       -2.841460   -4.541987   -1.292641
     24          6           0       -0.356370   -2.765179   -2.716292
     25          6           0        0.970648   -3.218268   -2.650645
     26          1           0        1.611763   -2.852675   -1.852877
     27          6           0       -1.124023   -3.196064   -3.806299
     28          1           0       -2.143083   -2.840446   -3.922509
     29          6           0        1.510989   -4.079398   -3.602696
     30          1           0        2.544980   -4.407081   -3.553925
     31          6           0       -0.605411   -4.060304   -4.768110
     32          1           0       -1.226895   -4.377440   -5.603094
     33          8           0        1.283404   -5.361241   -5.569625
     34          1           0        0.636981   -5.585667   -6.257451
     35          6           0        0.713798   -4.515433   -4.666642
     36          7           0       -3.993196   -2.562958   -1.272636
     37          1           0       -4.014140   -1.633606   -0.872034
     38          6           0       -5.174078   -3.018752   -2.012241
     39          1           0       -4.822500   -3.849236   -2.634435
     40          6           0       -5.658184   -1.891862   -2.957659
     41          6           0       -6.310669   -3.554259   -1.100283
     42          1           0       -6.954936   -2.723161   -0.795835
     43          1           0       -5.827890   -3.942548   -0.196516
     44          8           0       -6.828522   -1.789412   -3.306011
     45          6           0       -7.134274   -4.657104   -1.735882
     46          6           0       -8.392415   -4.411955   -2.302763
     47          1           0       -8.782543   -3.399269   -2.311144
     48          6           0       -6.640902   -5.967418   -1.765871
     49          1           0       -5.664006   -6.182935   -1.337106
     50          6           0       -9.140088   -5.437703   -2.872503
     51          1           0      -10.116117   -5.247762   -3.307725
     52          6           0       -7.375862   -7.004852   -2.338767
     53          1           0       -6.976416   -8.017663   -2.348323
     54          8           0       -9.409648   -7.710990   -3.462902
     55          1           0       -8.951372   -8.563288   -3.398986
     56          6           0       -8.633420   -6.741611   -2.891631
     57          7           0       -4.682091   -1.033733   -3.360495
     58          1           0       -3.715890   -1.190716   -3.102714
     59          6           0       -4.882348    0.054624   -4.296428
     60          1           0       -5.384010   -0.322447   -5.196186
     61          6           0       -3.469128    0.555036   -4.655251
     62          6           0       -5.764081    1.197973   -3.693132
     63          1           0       -6.533208    0.698644   -3.097909
     64          1           0       -5.154743    1.800208   -3.008730
     65          8           0       -2.470382    0.133202   -4.053897
     66          6           0       -6.435775    2.069771   -4.734301
     67          6           0       -5.993888    3.371738   -5.013462
     68          1           0       -5.146415    3.787853   -4.472923
     69          6           0       -7.532464    1.562365   -5.450270
     70          1           0       -7.890109    0.558659   -5.230131
     71          6           0       -6.631642    4.146600   -5.987373
     72          1           0       -6.277608    5.154157   -6.187076
     73          6           0       -8.168759    2.335496   -6.420116
     74          1           0       -9.020168    1.929903   -6.959753
     75          6           0       -7.719243    3.630712   -6.692047
     76          1           0       -8.217565    4.234199   -7.445518
     77          7           0       -3.387427    1.475581   -5.638050
     78          1           0       -4.243928    1.893422   -5.987389
     79          6           0       -2.120358    2.136190   -5.981554
     80          1           0       -1.344438    1.367867   -5.924904
     81          6           0       -1.832694    3.244302   -4.939404
     82          6           0       -2.198834    2.719328   -7.389081
     83          1           0       -1.234215    3.150690   -7.672224
     84          1           0       -2.457537    1.939528   -8.111693
     85          1           0       -2.943295    3.519552   -7.429668
     86          8           0       -2.292293    4.375393   -5.060778
     87          7           0       -1.053184    2.852864   -3.889490
     88          1           0       -0.893442    1.859467   -3.758085
     89          6           0       -0.837548    3.731444   -2.744126
     90          1           0       -1.036198    4.740411   -3.111782
     91          6           0        0.619760    3.593700   -2.288576
     92          6           0       -1.797411    3.395083   -1.580089
     93          1           0       -2.814169    3.381609   -1.995775
     94          1           0       -1.569485    2.372840   -1.250292
     95          8           0        1.093961    2.487084   -2.000827
     96          6           0       -1.752571    4.350980   -0.369748
     97          1           0       -0.716407    4.418618   -0.011828
     98          6           0       -2.226827    5.768387   -0.728450
     99          1           0       -3.258004    5.757277   -1.104222
    100          1           0       -2.198673    6.418999    0.152457
    101          1           0       -1.604501    6.240984   -1.497994
    102          6           0       -2.603442    3.776347    0.773404
    103          1           0       -3.656055    3.682291    0.475035
    104          1           0       -2.565849    4.426174    1.654658
    105          1           0       -2.249401    2.783232    1.075398
    106          7           0        1.334925    4.738779   -2.220250
    107          1           0        0.849807    5.614865   -2.360217
    108          6           0        2.679971    4.794305   -1.659615
    109          1           0        3.306504    4.090900   -2.219475
    110          6           0        2.642000    4.371916   -0.173649
    111          6           0        3.236569    6.216039   -1.793699
    112          1           0        4.261801    6.261929   -1.415225
    113          1           0        2.630110    6.919066   -1.212164
    114          1           0        3.244956    6.530677   -2.842275
    115          8           0        1.719616    4.702075    0.566392
    116          7           0        3.689669    3.612732    0.232429
    117          1           0        4.517239    3.484840   -0.343398
    118          6           0        3.837032    3.155242    1.603805
    119          1           0        3.729894    4.010851    2.285104
    120          6           0        5.277908    2.622857    1.733623
    121          6           0        2.733064    2.129712    1.982489
    122          1           0        1.776536    2.642952    1.841497
    123          1           0        2.796715    1.896751    3.050433
    124          8           0        6.113223    2.847472    0.847384
    125          6           0        2.763439    0.848437    1.212221
    126          6           0        3.064100   -0.435906    1.599189
    127          1           0        3.387481   -0.770911    2.574887
    128          7           0        2.439171    0.752622   -0.128894
    129          1           0        2.110138    1.504549   -0.742775
    130          6           0        2.547980   -0.542166   -0.491822
    131          1           0        2.363009   -0.877932   -1.501302
    132          7           0        2.924122   -1.300976    0.531995
    133          7           0        5.552361    1.935087    2.852380
    134          1           0        4.824305    1.647432    3.499177
    135          6           0        6.813039    1.246493    3.076960
    136          1           0        7.216039    0.947536    2.100582
    137          6           0        6.438513   -0.019433    3.884943
    138          6           0        7.853288    2.191470    3.754705
    139          1           0        7.519881    2.383114    4.783021
    140          8           0        5.317720   -0.107606    4.402266
    141          6           0        9.275146    1.621273    3.777880
    142          1           0        9.383143    0.748014    4.429448
    143          1           0        9.602907    1.347409    2.766186
    144          1           0        9.949419    2.402975    4.140450
    145          8           0        7.839383    3.457788    3.111797
    146          1           0        7.712275    3.321095    2.155207
    147          7           0        7.364534   -0.992129    3.939580
    148          1           0        8.316186   -0.834649    3.620649
    149          6           0        7.220221   -2.204945    4.738138
    150          1           0        6.409368   -2.034599    5.452105
    151          6           0        8.574280   -2.393389    5.457689
    152          6           0        6.881825   -3.457813    3.863372
    153          1           0        7.813855   -3.767088    3.369028
    154          8           0        9.607983   -1.950804    4.929508
    155          6           0        6.370952   -4.627995    4.722108
    156          1           0        5.438912   -4.339403    5.230620
    157          1           0        7.070540   -4.955170    5.496137
    158          1           0        6.153761   -5.490263    4.080398
    159          6           0        5.858348   -3.124277    2.768036
    160          1           0        4.925030   -2.755647    3.211911
    161          1           0        5.632115   -4.025832    2.187947
    162          1           0        6.226048   -2.358618    2.079354
    163          7           0        8.528164   -3.062458    6.613809
    164          1           0        7.679578   -3.557918    6.927547
    165          6           0        9.665031   -3.718421    7.248241
    166          1           0       10.333394   -4.104455    6.466449
    167          6           0        9.059914   -4.947680    8.054680
    168          6           0       10.467195   -2.754280    8.139342
    169          1           0       10.672834   -1.841355    7.562461
    170          1           0        9.846674   -2.467955    9.001466
    171          8           0        9.868992   -5.582311    8.760433
    172          6           0       11.769634   -3.393369    8.636589
    173          1           0       12.422354   -3.607465    7.774199
    174          1           0       11.503666   -4.365982    9.071445
    175          6           0       12.508416   -2.557095    9.677386
    176          1           0       13.422743   -3.044080   10.033531
    177          1           0       11.875957   -2.388849   10.553169
    178          7           0       12.894850   -1.201468    9.201608
    179          1           0       12.196326   -0.473811    9.285642
    180          7           0       14.740768   -1.910038    7.984788
    181          1           0       15.665554   -1.715411    7.630058
    182          1           0       14.406957   -2.863160    7.950045
    183          7           0       14.298047    0.350782    8.187733
    184          1           0       14.840475    0.575712    7.365779
    185          1           0       13.817905    1.114544    8.641717
    186          6           0       13.955760   -0.928456    8.451985
    187          8           0        7.824802   -5.127301    7.877476
    188          1           0        3.457286   -5.693285    4.982881
 ---------------------------------------------------------------------

 SCF Done:  E(RB3LYP) =  -4648.46137879     A.U. after    2 cycles

 Alpha  occ. eigenvalues --  -19.29600 -19.24893 -19.24646 -19.21426 -19.21329
 Alpha  occ. eigenvalues --  -19.20284 -19.20224 -19.20203 -19.19389 -19.18803
 Alpha  occ. eigenvalues --  -19.18642 -19.18399 -19.17867 -19.17819 -19.15463
 Alpha  occ. eigenvalues --  -19.08307 -19.07580 -14.52286 -14.50943 -14.50783
 Alpha  occ. eigenvalues --  -14.50507 -14.45972 -14.45816 -14.44511 -14.44434
 Alpha  occ. eigenvalues --  -14.43854 -14.43080 -14.42787 -14.42364 -14.42293
 Alpha  occ. eigenvalues --  -14.41943 -14.41609 -14.37801 -10.47018 -10.43079
 Alpha  occ. eigenvalues --  -10.39088 -10.37199 -10.36931 -10.36847 -10.36539
 Alpha  occ. eigenvalues --  -10.36404 -10.35783 -10.35584 -10.35285 -10.34957
 Alpha  occ. eigenvalues --  -10.32437 -10.32406 -10.32280 -10.32189 -10.32130
 Alpha  occ. eigenvalues --  -10.31337 -10.31221 -10.31183 -10.30765 -10.30269
 Alpha  occ. eigenvalues --  -10.30119 -10.30015 -10.29997 -10.29886 -10.29484
 Alpha  occ. eigenvalues --  -10.28431 -10.27967 -10.27603 -10.27355 -10.27242
 Alpha  occ. eigenvalues --  -10.27019 -10.26648 -10.26469 -10.26321 -10.26187
 Alpha  occ. eigenvalues --  -10.26051 -10.26044 -10.25681 -10.25341 -10.24890
 Alpha  occ. eigenvalues --  -10.24781 -10.24397 -10.24371 -10.24321 -10.24283
 Alpha  occ. eigenvalues --  -10.24269 -10.24170 -10.24120 -10.24015 -10.23999
 Alpha  occ. eigenvalues --  -10.23823 -10.23220 -10.23200 -10.23173 -10.22837
 Alpha  occ. eigenvalues --  -10.22782 -10.22685 -10.22602 -10.22591 -10.22269
 Alpha  occ. eigenvalues --  -10.21914 -10.21789  -1.21022  -1.15482  -1.13785
 Alpha  occ. eigenvalues --   -1.12793  -1.12201  -1.12056  -1.11961  -1.11892
 Alpha  occ. eigenvalues --   -1.11485  -1.10366  -1.09956  -1.09752  -1.09529
 Alpha  occ. eigenvalues --   -1.09365  -1.09351  -1.07398  -1.06846  -1.06595
 Alpha  occ. eigenvalues --   -1.04435  -1.03792  -1.02127  -1.01460  -1.01166
 Alpha  occ. eigenvalues --   -1.00665  -1.00211  -0.99670  -0.99440  -0.98736
 Alpha  occ. eigenvalues --   -0.98586  -0.98367  -0.95156  -0.95018  -0.92739
 Alpha  occ. eigenvalues --   -0.92541  -0.90914  -0.90114  -0.89041  -0.87688
 Alpha  occ. eigenvalues --   -0.87083  -0.86942  -0.86885  -0.85745  -0.85708
 Alpha  occ. eigenvalues --   -0.84851  -0.83841  -0.83340  -0.83153  -0.82173
 Alpha  occ. eigenvalues --   -0.81810  -0.80958  -0.80669  -0.80191  -0.79700
 Alpha  occ. eigenvalues --   -0.79500  -0.78989  -0.78198  -0.78090  -0.77406
 Alpha  occ. eigenvalues --   -0.76995  -0.75809  -0.74680  -0.73956  -0.73575
 Alpha  occ. eigenvalues --   -0.73326  -0.73103  -0.73075  -0.72769  -0.72071
 Alpha  occ. eigenvalues --   -0.71762  -0.71293  -0.70412  -0.69786  -0.69619
 Alpha  occ. eigenvalues --   -0.69239  -0.69111  -0.68455  -0.67639  -0.67333
 Alpha  occ. eigenvalues --   -0.67151  -0.66949  -0.66829  -0.66467  -0.66251
 Alpha  occ. eigenvalues --   -0.65890  -0.65754  -0.65715  -0.65581  -0.65428
 Alpha  occ. eigenvalues --   -0.65143  -0.64795  -0.64598  -0.64401  -0.64273
 Alpha  occ. eigenvalues --   -0.63580  -0.63275  -0.63161  -0.63104  -0.62617
 Alpha  occ. eigenvalues --   -0.62209  -0.61880  -0.61529  -0.61346  -0.60942
 Alpha  occ. eigenvalues --   -0.60443  -0.60170  -0.59487  -0.58688  -0.58220
 Alpha  occ. eigenvalues --   -0.57933  -0.57714  -0.57616  -0.57206  -0.57100
 Alpha  occ. eigenvalues --   -0.56940  -0.56588  -0.56532  -0.56203  -0.55850
 Alpha  occ. eigenvalues --   -0.55660  -0.55527  -0.55239  -0.54745  -0.54641
 Alpha  occ. eigenvalues --   -0.54572  -0.54360  -0.54274  -0.53826  -0.53802
 Alpha  occ. eigenvalues --   -0.53544  -0.53294  -0.53091  -0.52758  -0.52603
 Alpha  occ. eigenvalues --   -0.52567  -0.52190  -0.52094  -0.51834  -0.51220
 Alpha  occ. eigenvalues --   -0.51153  -0.51009  -0.50834  -0.50614  -0.50436
 Alpha  occ. eigenvalues --   -0.50330  -0.50296  -0.50170  -0.50116  -0.49986
 Alpha  occ. eigenvalues --   -0.49823  -0.49711  -0.49658  -0.49597  -0.49222
 Alpha  occ. eigenvalues --   -0.49059  -0.49026  -0.48720  -0.48691  -0.48420
 Alpha  occ. eigenvalues --   -0.48325  -0.48094  -0.48048  -0.47881  -0.47862
 Alpha  occ. eigenvalues --   -0.47805  -0.47493  -0.47435  -0.47066  -0.47031
 Alpha  occ. eigenvalues --   -0.46999  -0.46850  -0.46652  -0.46572  -0.46462
 Alpha  occ. eigenvalues --   -0.46386  -0.46236  -0.46000  -0.45820  -0.45718
 Alpha  occ. eigenvalues --   -0.45619  -0.45384  -0.45280  -0.45208  -0.45131
 Alpha  occ. eigenvalues --   -0.45002  -0.44743  -0.44539  -0.44396  -0.44216
 Alpha  occ. eigenvalues --   -0.44116  -0.44035  -0.43985  -0.43717  -0.43611
 Alpha  occ. eigenvalues --   -0.43545  -0.43320  -0.43202  -0.43072  -0.43000
 Alpha  occ. eigenvalues --   -0.42773  -0.42487  -0.42364  -0.42284  -0.42158
 Alpha  occ. eigenvalues --   -0.42055  -0.41981  -0.41670  -0.41541  -0.41293
 Alpha  occ. eigenvalues --   -0.41080  -0.40823  -0.40780  -0.40682  -0.40015
 Alpha  occ. eigenvalues --   -0.39997  -0.39345  -0.39227  -0.39147  -0.39109
 Alpha  occ. eigenvalues --   -0.39088  -0.38949  -0.38921  -0.38676  -0.38520
 Alpha  occ. eigenvalues --   -0.38236  -0.38159  -0.38137  -0.37899  -0.37741
 Alpha  occ. eigenvalues --   -0.37490  -0.37178  -0.36670  -0.36430  -0.35641
 Alpha  occ. eigenvalues --   -0.35452  -0.35273  -0.35119  -0.34912  -0.34479
 Alpha  occ. eigenvalues --   -0.34305  -0.34045  -0.33922  -0.33725  -0.33233
 Alpha  occ. eigenvalues --   -0.32868  -0.32498  -0.32423  -0.32311  -0.31946
 Alpha  occ. eigenvalues --   -0.31735  -0.31482  -0.31132  -0.31058  -0.30536
 Alpha  occ. eigenvalues --   -0.30157  -0.29948  -0.29597  -0.29427  -0.28876
 Alpha  occ. eigenvalues --   -0.28758  -0.28573  -0.25238  -0.23603  -0.23126
 Alpha  occ. eigenvalues --   -0.21729
 Alpha virt. eigenvalues --   -0.11280  -0.10203  -0.08494  -0.08079  -0.07133
 Alpha virt. eigenvalues --   -0.07020  -0.06831  -0.06646  -0.06028  -0.05616
 Alpha virt. eigenvalues --   -0.05521  -0.05347  -0.05077  -0.04727  -0.04520

 Mulliken charges:
               1
     1  N   -0.806661
     2  H    0.385970
     3  H    0.446450
     4  H    0.424011
     5  C   -0.101052
     6  H    0.194613
     7  C    0.637341
     8  C   -0.382888
     9  H    0.244296
    10  H    0.223796
    11  O   -0.503111
    12  C    0.621912
    13  O   -0.488722
    14  O   -0.539575
    15  N   -0.613131
    16  H    0.358369
    17  C   -0.055862
    18  H    0.184537
    19  C    0.632816
    20  C   -0.414147
    21  H    0.174813
    22  H    0.195146
    23  O   -0.524460
    24  C    0.183213
    25  C   -0.229254
    26  H    0.101013
    27  C   -0.167312
    28  H    0.137988
    29  C   -0.162489
    30  H    0.143921
    31  C   -0.187333
    32  H    0.137491
    33  O   -0.633678
    34  H    0.416911
    35  C    0.355993
    36  N   -0.644832
    37  H    0.337999
    38  C   -0.040464
    39  H    0.208953
    40  C    0.596859
    41  C   -0.348885
    42  H    0.159117
    43  H    0.156744
    44  O   -0.515304
    45  C    0.149350
    46  C   -0.168865
    47  H    0.146566
    48  C   -0.194655
    49  H    0.135117
    50  C   -0.162148
    51  H    0.144332
    52  C   -0.193764
    53  H    0.119309
    54  O   -0.639193
    55  H    0.408233
    56  C    0.351276
    57  N   -0.656231
    58  H    0.377785
    59  C   -0.020943
    60  H    0.189758
    61  C    0.609214
    62  C   -0.367212
    63  H    0.200106
    64  H    0.151672
    65  O   -0.563026
    66  C    0.130385
    67  C   -0.222417
    68  H    0.152071
    69  C   -0.184194
    70  H    0.159868
    71  C   -0.129471
    72  H    0.147648
    73  C   -0.128176
    74  H    0.145397
    75  C   -0.128145
    76  H    0.143615
    77  N   -0.600143
    78  H    0.361195
    79  C   -0.052140
    80  H    0.172817
    81  C    0.620484
    82  C   -0.469409
    83  H    0.170340
    84  H    0.161903
    85  H    0.184326
    86  O   -0.525400
    87  N   -0.605746
    88  H    0.358853
    89  C   -0.074310
    90  H    0.182188
    91  C    0.662334
    92  C   -0.259959
    93  H    0.145495
    94  H    0.139308
    95  O   -0.575636
    96  C   -0.108303
    97  H    0.171995
    98  C   -0.444394
    99  H    0.149071
   100  H    0.156491
   101  H    0.126821
   102  C   -0.444147
   103  H    0.138818
   104  H    0.154123
   105  H    0.136770
   106  N   -0.586214
   107  H    0.350633
   108  C   -0.039498
   109  H    0.167695
   110  C    0.625930
   111  C   -0.487768
   112  H    0.179106
   113  H    0.180059
   114  H    0.176217
   115  O   -0.523833
   116  N   -0.628675
   117  H    0.360307
   118  C   -0.026320
   119  H    0.200753
   120  C    0.627953
   121  C   -0.401175
   122  H    0.212682
   123  H    0.174141
   124  O   -0.567641
   125  C    0.326797
   126  C   -0.048086
   127  H    0.177940
   128  N   -0.627947
   129  H    0.411174
   130  C    0.242259
   131  H    0.183017
   132  N   -0.547635
   133  N   -0.596265
   134  H    0.363365
   135  C   -0.119022
   136  H    0.175203
   137  C    0.622878
   138  C    0.182005
   139  H    0.138322
   140  O   -0.557278
   141  C   -0.491202
   142  H    0.168773
   143  H    0.142756
   144  H    0.161910
   145  O   -0.638264
   146  H    0.410917
   147  N   -0.609189
   148  H    0.359845
   149  C   -0.053971
   150  H    0.176540
   151  C    0.605458
   152  C   -0.075182
   153  H    0.144308
   154  O   -0.581315
   155  C   -0.492037
   156  H    0.120333
   157  H    0.211727
   158  H    0.144055
   159  C   -0.458667
   160  H    0.136593
   161  H    0.141322
   162  H    0.149907
   163  N   -0.607330
   164  H    0.361811
   165  C   -0.063282
   166  H    0.143381
   167  C    0.583724
   168  C   -0.260562
   169  H    0.120382
   170  H    0.136952
   171  O   -0.578625
   172  C   -0.295039
   173  H    0.113744
   174  H    0.247791
   175  C   -0.198693
   176  H    0.179313
   177  H    0.198236
   178  N   -0.571833
   179  H    0.366450
   180  N   -0.752680
   181  H    0.380684
   182  H    0.400256
   183  N   -0.761273
   184  H    0.379933
   185  H    0.379488
   186  C    0.815510
   187  O   -0.597815
   188  H    0.445667
 Sum of Mulliken charges =   1.00000

 Dipole moment (field-independent basis, Debye):
    X=             31.0259    Y=              2.7709    Z=              5.2864  Tot=             31.5948
 Quadrupole moment (field-independent basis, Debye-Ang):
   XX=            -27.4525   YY=           -542.9171   ZZ=           -413.0183
   XY=             56.3390   XZ=            267.0361   YZ=             63.2698

 Normal termination of Gaussian 16 at Tue Aug  9 20:49:55 2022.
