 Gaussian 16, Revision C.01,
 Gaussian 16:  ES64L-G16RevC.01  3-Jul-2019

 -------------------------------------------------------------------
 # B3LYP/6-31G* guess=read geom=check nosymm integral(ultrafinegrid)
 -------------------------------------------------------------------

 ------------------------------------------------------
 Candidate Structure: Conf:535 Charge calc in gas phase
 ------------------------------------------------------
 Structure from the checkpoint file:  "conf-535.chk"
 Charge =  1 Multiplicity = 1

                          Input orientation:
 ---------------------------------------------------------------------
 Center     Atomic      Atomic             Coordinates (Angstroms)
 Number     Number       Type             X           Y           Z
 ---------------------------------------------------------------------
      1          7           0      -12.418899   -6.630577   -3.330005
      2          1           0      -13.408745   -6.885508   -3.386083
      3          1           0      -12.060964   -6.364963   -4.310371
      4          1           0      -11.897626   -7.425793   -2.951845
      5          6           0      -12.179452   -5.333244   -2.587504
      6          1           0      -13.096883   -5.042856   -2.073253
      7          6           0      -11.826469   -4.355130   -3.749485
      8          6           0      -11.021833   -5.487361   -1.584500
      9          1           0      -11.084782   -6.445571   -1.052974
     10          1           0      -10.051903   -5.436265   -2.091351
     11          8           0      -11.612623   -4.871363   -4.857594
     12          6           0      -11.063275   -4.381676   -0.543816
     13          8           0      -11.857468   -3.461626   -0.559189
     14          8           0      -10.134201   -4.561196    0.394868
     15          7           0      -11.771510   -3.054601   -3.469264
     16          1           0      -11.862310   -2.792673   -2.487255
     17          6           0      -10.962482   -2.169582   -4.306402
     18          1           0      -11.140489   -2.458534   -5.346589
     19          6           0       -9.468988   -2.478640   -3.981587
     20          6           0      -11.387533   -0.690925   -4.121035
     21          1           0      -12.438957   -0.621829   -4.422913
     22          1           0      -10.828604   -0.085394   -4.843101
     23          8           0       -9.163097   -3.388710   -3.204851
     24          6           0      -11.206661   -0.133578   -2.723567
     25          6           0      -12.227367   -0.245628   -1.765833
     26          1           0      -13.174266   -0.707223   -2.039230
     27          6           0      -10.023141    0.519069   -2.349253
     28          1           0       -9.224373    0.654079   -3.074555
     29          6           0      -12.072204    0.247171   -0.473948
     30          1           0      -12.867080    0.165371    0.260116
     31          6           0       -9.856412    1.022687   -1.060609
     32          1           0       -8.934726    1.536299   -0.793684
     33          8           0      -10.777368    1.347173    1.162805
     34          1           0       -9.941163    1.827746    1.268597
     35          6           0      -10.879016    0.883532   -0.114760
     36          7           0       -8.569660   -1.728716   -4.641023
     37          1           0       -8.842765   -0.875524   -5.122509
     38          6           0       -7.139053   -1.801696   -4.368765
     39          1           0       -7.005499   -1.931536   -3.288041
     40          6           0       -6.581818   -0.412786   -4.753851
     41          6           0       -6.470322   -3.011350   -5.084987
     42          1           0       -6.278569   -2.758548   -6.133882
     43          1           0       -7.217023   -3.812615   -5.083955
     44          8           0       -7.357625    0.500648   -5.069122
     45          6           0       -5.204659   -3.507928   -4.413732
     46          6           0       -3.959183   -3.467629   -5.056203
     47          1           0       -3.882098   -3.051880   -6.057245
     48          6           0       -5.259720   -4.051561   -3.120923
     49          1           0       -6.217752   -4.115592   -2.608762
     50          6           0       -2.805126   -3.938046   -4.434429
     51          1           0       -1.843059   -3.898142   -4.934223
     52          6           0       -4.113914   -4.522876   -2.485156
     53          1           0       -4.177344   -4.940063   -1.481827
     54          8           0       -1.715560   -4.902807   -2.576531
     55          1           0       -1.891436   -5.227785   -1.679676
     56          6           0       -2.877649   -4.464579   -3.142001
     57          7           0       -5.248794   -0.251521   -4.696747
     58          1           0       -4.615929   -1.032048   -4.534492
     59          6           0       -4.621426    1.021124   -5.022592
     60          1           0       -5.127146    1.441890   -5.898318
     61          6           0       -3.152481    0.715197   -5.362541
     62          6           0       -4.756686    2.039796   -3.844008
     63          1           0       -5.758258    1.888447   -3.429922
     64          1           0       -4.037281    1.778391   -3.059523
     65          8           0       -2.695865   -0.424679   -5.224093
     66          6           0       -4.609607    3.492625   -4.250260
     67          6           0       -3.474717    4.244645   -3.911382
     68          1           0       -2.665060    3.785632   -3.348452
     69          6           0       -5.633244    4.111531   -4.986297
     70          1           0       -6.521374    3.538550   -5.245401
     71          6           0       -3.366001    5.583224   -4.300455
     72          1           0       -2.480572    6.150120   -4.027059
     73          6           0       -5.524915    5.446440   -5.373367
     74          1           0       -6.328029    5.911523   -5.938596
     75          6           0       -4.389910    6.186608   -5.030844
     76          1           0       -4.306455    7.227457   -5.330525
     77          7           0       -2.413120    1.761124   -5.793493
     78          1           0       -2.812661    2.692162   -5.742151
     79          6           0       -0.954688    1.669216   -5.965093
     80          1           0       -0.755950    0.700717   -6.432869
     81          6           0       -0.287489    1.709059   -4.568421
     82          6           0       -0.457937    2.804204   -6.853137
     83          1           0        0.615893    2.698254   -7.031341
     84          1           0       -0.974944    2.789489   -7.817418
     85          1           0       -0.616793    3.770435   -6.365676
     86          8           0        0.081974    2.770124   -4.057720
     87          7           0       -0.189037    0.506266   -3.956802
     88          1           0       -0.654255   -0.281327   -4.396662
     89          6           0        0.217436    0.365409   -2.551251
     90          1           0       -0.102643    1.282154   -2.043888
     91          6           0        1.758634    0.290692   -2.434688
     92          6           0       -0.482239   -0.851984   -1.937723
     93          1           0       -1.560293   -0.733644   -2.122516
     94          1           0       -0.160281   -1.751593   -2.477265
     95          8           0        2.354075   -0.733606   -2.113639
     96          6           0       -0.247023   -1.079488   -0.429311
     97          1           0        0.802027   -1.368473   -0.307884
     98          6           0       -0.495559    0.176774    0.419960
     99          1           0       -1.497558    0.592115    0.241117
    100          1           0       -0.426547   -0.063789    1.487495
    101          1           0        0.243965    0.959971    0.219476
    102          6           0       -1.123262   -2.248079    0.046823
    103          1           0       -2.190071   -1.989255   -0.006771
    104          1           0       -0.896183   -2.512223    1.086243
    105          1           0       -0.963481   -3.137455   -0.574722
    106          7           0        2.391261    1.461027   -2.709906
    107          1           0        1.820261    2.279245   -2.899548
    108          6           0        3.796945    1.630235   -2.394784
    109          1           0        4.357756    0.821297   -2.876819
    110          6           0        4.003467    1.536314   -0.864632
    111          6           0        4.290051    2.988573   -2.908224
    112          1           0        5.357338    3.112089   -2.703289
    113          1           0        3.752088    3.802888   -2.410072
    114          1           0        4.131263    3.070696   -3.988363
    115          8           0        3.159396    1.938093   -0.066459
    116          7           0        5.207783    1.044688   -0.480700
    117          1           0        5.847509    0.614316   -1.138819
    118          6           0        5.567034    0.907481    0.918231
    119          1           0        5.220841    1.803627    1.442408
    120          6           0        7.091301    0.790493    0.982605
    121          6           0        4.886642   -0.346988    1.548697
    122          1           0        5.301275   -1.238545    1.067528
    123          1           0        3.825955   -0.293260    1.278044
    124          8           0        7.696760    0.149149    0.110043
    125          6           0        5.060843   -0.457149    3.026771
    126          6           0        5.804019   -1.299127    3.820608
    127          1           0        6.429537   -2.121636    3.498586
    128          7           0        4.454670    0.410325    3.923848
    129          1           0        3.804988    1.147469    3.686364
    130          6           0        4.852558    0.047865    5.181023
    131          1           0        4.519386    0.571264    6.067207
    132          7           0        5.668653   -0.982579    5.154996
    133          7           0        7.687739    1.380669    2.028984
    134          1           0        7.160751    1.903165    2.722609
    135          6           0        9.100692    1.231867    2.347487
    136          1           0        9.393488    0.196172    2.135055
    137          6           0        9.209938    1.539793    3.854665
    138          6           0        9.999577    2.189416    1.495788
    139          1           0        9.868973    3.205317    1.891059
    140          8           0        8.409583    2.316124    4.377983
    141          6           0       11.479948    1.800817    1.556884
    142          1           0       11.903070    1.861732    2.564802
    143          1           0       11.623227    0.778608    1.182534
    144          1           0       12.045201    2.473850    0.905307
    145          8           0        9.555038    2.244986    0.150653
    146          1           0        9.235044    1.358577   -0.104897
    147          7           0       10.208601    0.917417    4.519759
    148          1           0       10.928352    0.423839    3.999882
    149          6           0       10.627888    1.297287    5.864168
    150          1           0       10.198882    2.281940    6.076454
    151          6           0       12.165828    1.395254    5.828723
    152          6           0       10.150676    0.307843    6.968594
    153          1           0       10.607192    0.666253    7.902544
    154          8           0       12.815812    0.859441    4.919058
    155          6           0        8.626731    0.350611    7.143421
    156          1           0        8.100647   -0.040638    6.266924
    157          1           0        8.272826    1.372669    7.317430
    158          1           0        8.331639   -0.263419    8.002319
    159          6           0       10.644278   -1.124384    6.718038
    160          1           0       10.201270   -1.533017    5.802392
    161          1           0       10.348571   -1.776524    7.547042
    162          1           0       11.734192   -1.175778    6.618761
    163          7           0       12.732897    2.073917    6.839777
    164          1           0       12.208537    2.404448    7.650571
    165          6           0       14.168473    2.111286    7.066251
    166          1           0       14.551314    1.083658    6.993191
    167          6           0       14.374734    2.569833    8.548198
    168          6           0       14.915625    2.983679    6.005689
    169          1           0       14.161810    3.357430    5.308576
    170          1           0       15.357288    3.867023    6.485037
    171          8           0       15.604323    2.643026    8.927134
    172          6           0       15.982561    2.226572    5.183972
    173          1           0       16.096851    2.705293    4.203578
    174          1           0       15.617535    1.211374    4.992660
    175          6           0       17.388587    2.180286    5.812352
    176          1           0       17.868521    3.163614    5.723523
    177          1           0       18.014061    1.465677    5.262346
    178          7           0       17.330404    1.832416    7.226897
    179          1           0       16.573365    2.319850    7.850847
    180          7           0       19.075974    0.250129    7.397989
    181          1           0       19.254363   -0.683966    7.739873
    182          1           0       19.357917    0.424014    6.444700
    183          7           0       17.556770    0.580178    9.131414
    184          1           0       18.246850    0.285685    9.808856
    185          1           0       16.782922    1.159040    9.479435
    186          6           0       17.985679    0.904921    7.884809
    187          8           0       13.374113    2.798739    9.230795
    188          1           0      -10.192032   -3.813641    1.022378
 ---------------------------------------------------------------------

 SCF Done:  E(RB3LYP) =  -4648.47117593     A.U. after    1 cycles

 Alpha  occ. eigenvalues --  -19.32243 -19.27185 -19.27144 -19.25101 -19.23852
 Alpha  occ. eigenvalues --  -19.21618 -19.20302 -19.19640 -19.17243 -19.15196
 Alpha  occ. eigenvalues --  -19.14688 -19.14574 -19.14322 -19.14224 -19.13722
 Alpha  occ. eigenvalues --  -19.11679 -19.10508 -14.60211 -14.48675 -14.44822
 Alpha  occ. eigenvalues --  -14.43714 -14.43687 -14.43368 -14.41318 -14.41221
 Alpha  occ. eigenvalues --  -14.41206 -14.40562 -14.39202 -14.38856 -14.38370
 Alpha  occ. eigenvalues --  -14.38237 -14.36907 -14.33159 -10.45778 -10.43601
 Alpha  occ. eigenvalues --  -10.41391 -10.38497 -10.38413 -10.37218 -10.36517
 Alpha  occ. eigenvalues --  -10.35453 -10.34179 -10.34065 -10.32543 -10.32224
 Alpha  occ. eigenvalues --  -10.31886 -10.31562 -10.31547 -10.31348 -10.31135
 Alpha  occ. eigenvalues --  -10.31108 -10.30439 -10.29678 -10.29169 -10.28948
 Alpha  occ. eigenvalues --  -10.27808 -10.27290 -10.27241 -10.27041 -10.26896
 Alpha  occ. eigenvalues --  -10.26869 -10.26807 -10.26617 -10.26553 -10.26385
 Alpha  occ. eigenvalues --  -10.26080 -10.26046 -10.25977 -10.25915 -10.25908
 Alpha  occ. eigenvalues --  -10.25791 -10.25671 -10.25418 -10.25306 -10.24895
 Alpha  occ. eigenvalues --  -10.24740 -10.24715 -10.24680 -10.24616 -10.24533
 Alpha  occ. eigenvalues --  -10.24490 -10.24068 -10.23992 -10.23725 -10.22848
 Alpha  occ. eigenvalues --  -10.22535 -10.22263 -10.22230 -10.22098 -10.21556
 Alpha  occ. eigenvalues --  -10.21300 -10.21224 -10.21078 -10.20688 -10.19107
 Alpha  occ. eigenvalues --  -10.18753 -10.17710  -1.23630  -1.19659  -1.14779
 Alpha  occ. eigenvalues --   -1.14105  -1.13228  -1.13198  -1.12081  -1.11870
 Alpha  occ. eigenvalues --   -1.11232  -1.08809  -1.07387  -1.07137  -1.06729
 Alpha  occ. eigenvalues --   -1.06210  -1.05832  -1.05636  -1.05223  -1.04163
 Alpha  occ. eigenvalues --   -1.03258  -1.02387  -1.01583  -1.00309  -0.99746
 Alpha  occ. eigenvalues --   -0.97501  -0.97097  -0.95577  -0.95492  -0.95356
 Alpha  occ. eigenvalues --   -0.95152  -0.95084  -0.94744  -0.94657  -0.93385
 Alpha  occ. eigenvalues --   -0.93225  -0.91885  -0.91463  -0.89024  -0.88852
 Alpha  occ. eigenvalues --   -0.86805  -0.85315  -0.84758  -0.84601  -0.83037
 Alpha  occ. eigenvalues --   -0.82934  -0.82690  -0.82436  -0.81893  -0.81844
 Alpha  occ. eigenvalues --   -0.81042  -0.80577  -0.80378  -0.80058  -0.79241
 Alpha  occ. eigenvalues --   -0.78691  -0.78048  -0.77036  -0.75946  -0.75761
 Alpha  occ. eigenvalues --   -0.74934  -0.74276  -0.73830  -0.73781  -0.73104
 Alpha  occ. eigenvalues --   -0.72266  -0.72026  -0.71877  -0.71152  -0.70649
 Alpha  occ. eigenvalues --   -0.70153  -0.69888  -0.69819  -0.69286  -0.69084
 Alpha  occ. eigenvalues --   -0.68588  -0.68303  -0.68096  -0.67190  -0.66897
 Alpha  occ. eigenvalues --   -0.66514  -0.66206  -0.65940  -0.65434  -0.64933
 Alpha  occ. eigenvalues --   -0.64518  -0.64061  -0.63901  -0.63815  -0.63785
 Alpha  occ. eigenvalues --   -0.63584  -0.63082  -0.62774  -0.62362  -0.61961
 Alpha  occ. eigenvalues --   -0.61525  -0.61475  -0.61221  -0.61027  -0.60751
 Alpha  occ. eigenvalues --   -0.60571  -0.60199  -0.60083  -0.60043  -0.59788
 Alpha  occ. eigenvalues --   -0.59492  -0.59127  -0.58595  -0.58496  -0.57629
 Alpha  occ. eigenvalues --   -0.57441  -0.57301  -0.57186  -0.56735  -0.56376
 Alpha  occ. eigenvalues --   -0.56200  -0.55729  -0.55436  -0.55407  -0.54666
 Alpha  occ. eigenvalues --   -0.54580  -0.54498  -0.54324  -0.53847  -0.53651
 Alpha  occ. eigenvalues --   -0.53449  -0.53229  -0.53071  -0.52936  -0.52763
 Alpha  occ. eigenvalues --   -0.52532  -0.52306  -0.52266  -0.51973  -0.51900
 Alpha  occ. eigenvalues --   -0.51651  -0.51541  -0.51302  -0.51061  -0.50974
 Alpha  occ. eigenvalues --   -0.50913  -0.50777  -0.50363  -0.50007  -0.49833
 Alpha  occ. eigenvalues --   -0.49674  -0.49484  -0.49335  -0.49248  -0.48799
 Alpha  occ. eigenvalues --   -0.48592  -0.48496  -0.48441  -0.48368  -0.48143
 Alpha  occ. eigenvalues --   -0.47949  -0.47866  -0.47647  -0.47567  -0.47410
 Alpha  occ. eigenvalues --   -0.47400  -0.47258  -0.47212  -0.47074  -0.46653
 Alpha  occ. eigenvalues --   -0.46565  -0.46253  -0.45843  -0.45743  -0.45630
 Alpha  occ. eigenvalues --   -0.45536  -0.45388  -0.45134  -0.45059  -0.44960
 Alpha  occ. eigenvalues --   -0.44740  -0.44622  -0.44584  -0.44534  -0.44330
 Alpha  occ. eigenvalues --   -0.44170  -0.43974  -0.43659  -0.43640  -0.43406
 Alpha  occ. eigenvalues --   -0.43278  -0.43057  -0.43023  -0.42757  -0.42628
 Alpha  occ. eigenvalues --   -0.42566  -0.42495  -0.42441  -0.42327  -0.42102
 Alpha  occ. eigenvalues --   -0.41934  -0.41887  -0.41829  -0.41693  -0.41480
 Alpha  occ. eigenvalues --   -0.41404  -0.41302  -0.41177  -0.41052  -0.40956
 Alpha  occ. eigenvalues --   -0.40538  -0.40511  -0.40446  -0.40296  -0.39961
 Alpha  occ. eigenvalues --   -0.39915  -0.39890  -0.39835  -0.39556  -0.39311
 Alpha  occ. eigenvalues --   -0.39211  -0.39183  -0.38978  -0.38790  -0.38711
 Alpha  occ. eigenvalues --   -0.38421  -0.38311  -0.37774  -0.37664  -0.37477
 Alpha  occ. eigenvalues --   -0.36613  -0.36232  -0.36095  -0.35847  -0.35563
 Alpha  occ. eigenvalues --   -0.35481  -0.35153  -0.34799  -0.34731  -0.34561
 Alpha  occ. eigenvalues --   -0.34452  -0.34400  -0.34358  -0.33458  -0.33343
 Alpha  occ. eigenvalues --   -0.32855  -0.31856  -0.31386  -0.31041  -0.30846
 Alpha  occ. eigenvalues --   -0.30215  -0.30184  -0.30046  -0.30002  -0.29526
 Alpha  occ. eigenvalues --   -0.29374  -0.29181  -0.28767  -0.28627  -0.28278
 Alpha  occ. eigenvalues --   -0.28037  -0.27949  -0.27642  -0.27466  -0.27274
 Alpha  occ. eigenvalues --   -0.27224  -0.27012  -0.26792  -0.25857  -0.24637
 Alpha  occ. eigenvalues --   -0.24190
 Alpha virt. eigenvalues --   -0.12360  -0.12159  -0.11458  -0.08418  -0.07471
 Alpha virt. eigenvalues --   -0.07087  -0.06992  -0.06888  -0.06758  -0.06008
 Alpha virt. eigenvalues --   -0.05830  -0.05134  -0.04893  -0.03670  -0.03512

 Mulliken charges:
               1
     1  N   -0.766338
     2  H    0.418111
     3  H    0.439493
     4  H    0.412874
     5  C   -0.109779
     6  H    0.234617
     7  C    0.649120
     8  C   -0.396494
     9  H    0.199939
    10  H    0.266036
    11  O   -0.537291
    12  C    0.629713
    13  O   -0.462304
    14  O   -0.542511
    15  N   -0.588085
    16  H    0.400237
    17  C   -0.097200
    18  H    0.209806
    19  C    0.647988
    20  C   -0.390687
    21  H    0.177669
    22  H    0.178878
    23  O   -0.561985
    24  C    0.146971
    25  C   -0.199301
    26  H    0.129764
    27  C   -0.201991
    28  H    0.158048
    29  C   -0.150610
    30  H    0.153461
    31  C   -0.195187
    32  H    0.134940
    33  O   -0.633440
    34  H    0.415642
    35  C    0.350258
    36  N   -0.619525
    37  H    0.366471
    38  C   -0.043412
    39  H    0.193153
    40  C    0.615907
    41  C   -0.354649
    42  H    0.159946
    43  H    0.176937
    44  O   -0.554870
    45  C    0.124511
    46  C   -0.191356
    47  H    0.143984
    48  C   -0.195252
    49  H    0.138629
    50  C   -0.149329
    51  H    0.156523
    52  C   -0.188291
    53  H    0.126281
    54  O   -0.632899
    55  H    0.415366
    56  C    0.355414
    57  N   -0.631846
    58  H    0.385833
    59  C   -0.046632
    60  H    0.194545
    61  C    0.614825
    62  C   -0.354301
    63  H    0.178012
    64  H    0.161232
    65  O   -0.550199
    66  C    0.124547
    67  C   -0.216478
    68  H    0.158389
    69  C   -0.185120
    70  H    0.150117
    71  C   -0.128681
    72  H    0.152719
    73  C   -0.128170
    74  H    0.142429
    75  C   -0.128121
    76  H    0.145481
    77  N   -0.602058
    78  H    0.359019
    79  C   -0.054410
    80  H    0.177074
    81  C    0.626796
    82  C   -0.468021
    83  H    0.174599
    84  H    0.159451
    85  H    0.179642
    86  O   -0.550171
    87  N   -0.607608
    88  H    0.364908
    89  C   -0.070249
    90  H    0.175655
    91  C    0.648877
    92  C   -0.282397
    93  H    0.123421
    94  H    0.159469
    95  O   -0.534964
    96  C   -0.074651
    97  H    0.172382
    98  C   -0.463824
    99  H    0.121844
   100  H    0.141585
   101  H    0.175770
   102  C   -0.455736
   103  H    0.124106
   104  H    0.143574
   105  H    0.136443
   106  N   -0.608681
   107  H    0.364844
   108  C   -0.034446
   109  H    0.161972
   110  C    0.646117
   111  C   -0.475839
   112  H    0.172167
   113  H    0.169305
   114  H    0.164235
   115  O   -0.555896
   116  N   -0.614800
   117  H    0.350311
   118  C   -0.027544
   119  H    0.162387
   120  C    0.644350
   121  C   -0.358805
   122  H    0.175352
   123  H    0.185039
   124  O   -0.582508
   125  C    0.316133
   126  C   -0.081438
   127  H    0.133696
   128  N   -0.610030
   129  H    0.339521
   130  C    0.213679
   131  H    0.158290
   132  N   -0.423233
   133  N   -0.595256
   134  H    0.359215
   135  C   -0.092668
   136  H    0.164869
   137  C    0.616102
   138  C    0.174074
   139  H    0.139634
   140  O   -0.542559
   141  C   -0.480571
   142  H    0.162548
   143  H    0.138973
   144  H    0.161917
   145  O   -0.650416
   146  H    0.413617
   147  N   -0.601377
   148  H    0.355189
   149  C   -0.067367
   150  H    0.178904
   151  C    0.624837
   152  C   -0.077685
   153  H    0.138479
   154  O   -0.570767
   155  C   -0.452801
   156  H    0.180868
   157  H    0.145142
   158  H    0.139783
   159  C   -0.459081
   160  H    0.149158
   161  H    0.148042
   162  H    0.150821
   163  N   -0.622185
   164  H    0.360409
   165  C   -0.043917
   166  H    0.152441
   167  C    0.602479
   168  C   -0.292433
   169  H    0.170480
   170  H    0.156648
   171  O   -0.649220
   172  C   -0.273852
   173  H    0.147706
   174  H    0.175010
   175  C   -0.156065
   176  H    0.174039
   177  H    0.133724
   178  N   -0.612067
   179  H    0.445463
   180  N   -0.754943
   181  H    0.359842
   182  H    0.361840
   183  N   -0.775482
   184  H    0.347315
   185  H    0.401823
   186  C    0.740891
   187  O   -0.530632
   188  H    0.441875
 Sum of Mulliken charges =   1.00000

 Dipole moment (field-independent basis, Debye):
    X=            -36.6462    Y=            -22.1262    Z=            -13.0141  Tot=             44.7424
 Quadrupole moment (field-independent basis, Debye-Ang):
   XX=            414.2733   YY=           -414.5905   ZZ=           -513.2745
   XY=            219.1363   XZ=            220.4632   YZ=              1.2370

 Normal termination of Gaussian 16 at Tue Aug  9 20:48:38 2022.
