 Gaussian 16, Revision C.01,
 Gaussian 16:  ES64L-G16RevC.01  3-Jul-2019

 -------------------------------------------------------------------
 # B3LYP/6-31G* guess=read geom=check nosymm integral(ultrafinegrid)
 -------------------------------------------------------------------

 ------------------------------------------------------
 Candidate Structure: Conf:156 Charge calc in gas phase
 ------------------------------------------------------
 Structure from the checkpoint file:  "conf-156.chk"
 Charge =  1 Multiplicity = 1

                          Input orientation:
 ---------------------------------------------------------------------
 Center     Atomic      Atomic             Coordinates (Angstroms)
 Number     Number       Type             X           Y           Z
 ---------------------------------------------------------------------
      1          7           0       -7.709002   -7.977334  -13.209446
      2          1           0       -8.332955   -8.064111  -14.015790
      3          1           0       -6.929548   -7.250744  -13.416902
      4          1           0       -7.305252   -8.896019  -13.009386
      5          6           0       -8.364289   -7.321900  -12.013269
      6          1           0       -9.417916   -7.148717  -12.239075
      7          6           0       -7.590201   -5.964784  -11.929142
      8          6           0       -8.242091   -8.201486  -10.760274
      9          1           0       -8.461529   -9.250943  -10.998522
     10          1           0       -7.231827   -8.174173  -10.336446
     11          8           0       -6.631055   -5.830147  -12.716448
     12          6           0       -9.248419   -7.767964   -9.700915
     13          8           0      -10.088058   -6.912219   -9.882126
     14          8           0       -9.092847   -8.465033   -8.574262
     15          7           0       -7.989387   -5.083882  -11.033310
     16          1           0       -8.792875   -5.252092  -10.418971
     17          6           0       -7.327956   -3.795877  -10.792690
     18          1           0       -6.249684   -3.933688  -10.909953
     19          6           0       -7.688133   -3.451689   -9.331450
     20          6           0       -7.824894   -2.724123  -11.805211
     21          1           0       -8.908010   -2.615082  -11.678157
     22          1           0       -7.651781   -3.132962  -12.808181
     23          8           0       -8.717793   -3.933720   -8.841005
     24          6           0       -7.138280   -1.385447  -11.652486
     25          6           0       -7.803450   -0.292387  -11.077764
     26          1           0       -8.838557   -0.401108  -10.761819
     27          6           0       -5.809389   -1.208011  -12.059467
     28          1           0       -5.271109   -2.029976  -12.527945
     29          6           0       -7.169095    0.932191  -10.903419
     30          1           0       -7.686125    1.777468  -10.461092
     31          6           0       -5.157408    0.011219  -11.885330
     32          1           0       -4.124595    0.128230  -12.206967
     33          8           0       -5.261102    2.304312  -11.098811
     34          1           0       -4.334897    2.277108  -11.385858
     35          6           0       -5.835464    1.086316  -11.299414
     36          7           0       -6.835714   -2.647777   -8.687461
     37          1           0       -6.054686   -2.192103   -9.159687
     38          6           0       -7.077013   -2.141919   -7.342179
     39          1           0       -8.105463   -1.767949   -7.285202
     40          6           0       -6.084508   -0.974640   -7.166094
     41          6           0       -6.886699   -3.245646   -6.250034
     42          1           0       -5.834958   -3.278348   -5.949704
     43          1           0       -7.126346   -4.200373   -6.728467
     44          8           0       -5.230776   -0.750752   -8.023896
     45          6           0       -7.779104   -3.059446   -5.039637
     46          6           0       -7.260642   -2.702936   -3.785156
     47          1           0       -6.191802   -2.538829   -3.677026
     48          6           0       -9.163954   -3.253858   -5.154434
     49          1           0       -9.583843   -3.539513   -6.116819
     50          6           0       -8.095040   -2.539480   -2.680844
     51          1           0       -7.695148   -2.252041   -1.714182
     52          6           0      -10.007415   -3.091813   -4.057590
     53          1           0      -11.080097   -3.246046   -4.164890
     54          8           0      -10.247560   -2.542199   -1.703934
     55          1           0      -11.174108   -2.721717   -1.927447
     56          6           0       -9.473088   -2.729571   -2.814747
     57          7           0       -6.234492   -0.234080   -6.038813
     58          1           0       -6.818108   -0.620824   -5.303284
     59          6           0       -5.172680    0.663099   -5.608906
     60          1           0       -4.659621    0.979388   -6.522168
     61          6           0       -4.143456   -0.135250   -4.763597
     62          6           0       -5.746295    1.928895   -4.918191
     63          1           0       -4.925674    2.635188   -4.747971
     64          1           0       -6.413087    2.406403   -5.644950
     65          8           0       -4.252117   -1.348477   -4.589072
     66          6           0       -6.486757    1.686566   -3.617555
     67          6           0       -7.850970    1.360695   -3.620483
     68          1           0       -8.386535    1.306897   -4.566036
     69          6           0       -5.825558    1.789194   -2.384403
     70          1           0       -4.774929    2.067863   -2.358234
     71          6           0       -8.533360    1.122452   -2.426349
     72          1           0       -9.588775    0.865764   -2.447935
     73          6           0       -6.507706    1.555813   -1.189739
     74          1           0       -5.980630    1.647233   -0.243627
     75          6           0       -7.862051    1.216985   -1.206534
     76          1           0       -8.393249    1.037025   -0.276022
     77          7           0       -3.103584    0.585728   -4.285456
     78          1           0       -3.100130    1.600670   -4.310575
     79          6           0       -2.113879    0.024481   -3.379806
     80          1           0       -2.603200   -0.751742   -2.780536
     81          6           0       -1.665738    1.176390   -2.457305
     82          6           0       -0.932141   -0.604515   -4.140324
     83          1           0       -0.194803   -1.035689   -3.454727
     84          1           0       -1.308218   -1.400557   -4.788801
     85          1           0       -0.429563    0.146477   -4.758887
     86          8           0       -2.007251    2.340506   -2.689353
     87          7           0       -0.902024    0.805557   -1.408550
     88          1           0       -0.516129   -0.134976   -1.372056
     89          6           0       -0.178965    1.737540   -0.552153
     90          1           0       -0.122323    2.699823   -1.069460
     91          6           0        1.234183    1.140308   -0.379623
     92          6           0       -0.845415    1.912573    0.833737
     93          1           0       -0.887194    0.922293    1.307068
     94          1           0       -0.183366    2.526823    1.460130
     95          8           0        1.447692   -0.050799   -0.619554
     96          6           0       -2.252417    2.540971    0.830900
     97          1           0       -2.883910    1.949127    0.153063
     98          6           0       -2.858395    2.450064    2.240343
     99          1           0       -2.261468    3.020618    2.963528
    100          1           0       -3.875292    2.859407    2.257268
    101          1           0       -2.906265    1.413000    2.593351
    102          6           0       -2.245654    3.992874    0.329639
    103          1           0       -1.576214    4.615441    0.938402
    104          1           0       -3.249898    4.427503    0.397740
    105          1           0       -1.933098    4.057823   -0.716610
    106          7           0        2.176678    1.992259    0.070968
    107          1           0        1.956830    2.950196    0.331399
    108          6           0        3.511045    1.566085    0.464058
    109          1           0        3.428550    0.611075    0.996826
    110          6           0        4.032313    2.647571    1.429727
    111          6           0        4.440955    1.381277   -0.748565
    112          1           0        5.433325    1.039265   -0.436130
    113          1           0        4.553264    2.324487   -1.293391
    114          1           0        4.011238    0.631915   -1.418212
    115          8           0        3.456536    3.733229    1.540885
    116          7           0        5.151928    2.328453    2.108560
    117          1           0        5.600904    1.423251    2.013075
    118          6           0        5.778144    3.218815    3.064589
    119          1           0        5.848415    4.219442    2.619190
    120          6           0        7.190451    2.669127    3.314991
    121          6           0        4.954807    3.356996    4.385426
    122          1           0        4.007026    3.825804    4.106838
    123          1           0        5.477107    4.066424    5.041654
    124          8           0        7.540138    1.566474    2.895816
    125          6           0        4.662811    2.075586    5.094527
    126          6           0        3.499259    1.343018    5.189959
    127          1           0        2.534593    1.586981    4.762098
    128          7           0        5.592040    1.352201    5.820927
    129          1           0        6.582686    1.567917    5.952582
    130          6           0        4.952267    0.248105    6.299190
    131          1           0        5.460071   -0.488662    6.907612
    132          7           0        3.683500    0.206679    5.941462
    133          7           0        7.995586    3.462314    4.061526
    134          1           0        7.738889    4.419716    4.271933
    135          6           0        9.340408    3.078859    4.442007
    136          1           0        9.967571    2.967443    3.544847
    137          6           0        9.322837    1.751726    5.232163
    138          6           0        9.913004    4.204442    5.354618
    139          1           0        9.418673    4.111138    6.326883
    140          8           0        8.466579    1.540058    6.095121
    141          6           0       11.427007    4.121018    5.518677
    142          1           0       11.744862    3.148628    5.906675
    143          1           0       11.930108    4.270390    4.553272
    144          1           0       11.767867    4.900174    6.206465
    145          8           0        9.510180    5.490855    4.877188
    146          1           0       10.049690    5.703941    4.097243
    147          7           0       10.336082    0.910128    4.959539
    148          1           0       11.073366    1.177864    4.315477
    149          6           0       10.633323   -0.302045    5.716129
    150          1           0       10.073407   -0.250162    6.654972
    151          6           0       12.152697   -0.251711    5.972429
    152          6           0       10.218376   -1.587230    4.937497
    153          1           0       10.838195   -1.614776    4.029122
    154          8           0       12.899892    0.277334    5.137165
    155          6           0       10.490632   -2.861760    5.752564
    156          1           0        9.908873   -2.864622    6.683597
    157          1           0       11.543762   -2.986375    6.019824
    158          1           0       10.186652   -3.743163    5.177444
    159          6           0        8.742353   -1.526994    4.517192
    160          1           0        8.086510   -1.484326    5.395120
    161          1           0        8.480774   -2.427639    3.949724
    162          1           0        8.523412   -0.657520    3.892120
    163          7           0       12.590469   -0.790629    7.122521
    164          1           0       11.990467   -1.352165    7.728122
    165          6           0       14.001459   -1.003961    7.407218
    166          1           0       14.470258   -1.415358    6.502434
    167          6           0       14.069762   -2.122226    8.500622
    168          6           0       14.741356    0.322589    7.774366
    169          1           0       14.008358    1.129610    7.697325
    170          1           0       15.063520    0.299093    8.823425
    171          8           0       15.258004   -2.428930    8.890580
    172          6           0       15.930383    0.675895    6.851991
    173          1           0       16.062233    1.764661    6.826230
    174          1           0       15.680417    0.369387    5.830054
    175          6           0       17.290708    0.084337    7.269009
    176          1           0       17.678456    0.624388    8.142963
    177          1           0       18.014860    0.222667    6.455788
    178          7           0       17.172743   -1.325251    7.618449
    179          1           0       16.318607   -1.642377    8.228384
    180          7           0       19.120061   -2.216010    6.623633
    181          1           0       19.421722   -2.968910    6.020973
    182          1           0       19.438513   -1.294721    6.362689
    183          7           0       17.458059   -3.594696    7.495167
    184          1           0       18.138778   -4.319552    7.677364
    185          1           0       16.590254   -3.630081    8.042556
    186          6           0       17.915443   -2.340769    7.244740
    187          8           0       13.011112   -2.630486    8.876325
    188          1           0       -9.753898   -8.147618   -7.927092
 ---------------------------------------------------------------------

 SCF Done:  E(RB3LYP) =  -4648.47732491     A.U. after    3 cycles

 Alpha  occ. eigenvalues --  -19.32245 -19.27100 -19.26978 -19.23506 -19.22296
 Alpha  occ. eigenvalues --  -19.20478 -19.19969 -19.17914 -19.16500 -19.16401
 Alpha  occ. eigenvalues --  -19.16127 -19.15614 -19.15594 -19.15536 -19.14452
 Alpha  occ. eigenvalues --  -19.12401 -19.11208 -14.59878 -14.48845 -14.44296
 Alpha  occ. eigenvalues --  -14.43226 -14.41821 -14.41239 -14.41137 -14.40436
 Alpha  occ. eigenvalues --  -14.39991 -14.39989 -14.39724 -14.39528 -14.39405
 Alpha  occ. eigenvalues --  -14.38287 -14.37777 -14.31162 -10.45770 -10.43491
 Alpha  occ. eigenvalues --  -10.41399 -10.39017 -10.37017 -10.36172 -10.34811
 Alpha  occ. eigenvalues --  -10.33369 -10.33308 -10.33230 -10.33214 -10.32963
 Alpha  occ. eigenvalues --  -10.32600 -10.32531 -10.31287 -10.30973 -10.29755
 Alpha  occ. eigenvalues --  -10.29664 -10.29429 -10.29393 -10.28498 -10.28389
 Alpha  occ. eigenvalues --  -10.28054 -10.27898 -10.27820 -10.27527 -10.27153
 Alpha  occ. eigenvalues --  -10.27109 -10.26031 -10.25815 -10.25698 -10.25366
 Alpha  occ. eigenvalues --  -10.25133 -10.24740 -10.24583 -10.24510 -10.24444
 Alpha  occ. eigenvalues --  -10.23813 -10.23768 -10.23763 -10.23703 -10.23649
 Alpha  occ. eigenvalues --  -10.23102 -10.23016 -10.22848 -10.22833 -10.22746
 Alpha  occ. eigenvalues --  -10.22719 -10.22673 -10.22653 -10.22564 -10.22483
 Alpha  occ. eigenvalues --  -10.22471 -10.22318 -10.22124 -10.22079 -10.22063
 Alpha  occ. eigenvalues --  -10.21883 -10.21731 -10.20049 -10.19966 -10.19596
 Alpha  occ. eigenvalues --  -10.19506 -10.18781  -1.23574  -1.19396  -1.14821
 Alpha  occ. eigenvalues --   -1.13684  -1.11879  -1.11665  -1.10305  -1.09830
 Alpha  occ. eigenvalues --   -1.08803  -1.08499  -1.07861  -1.07743  -1.07638
 Alpha  occ. eigenvalues --   -1.07441  -1.07212  -1.06836  -1.06052  -1.05463
 Alpha  occ. eigenvalues --   -1.04898  -1.01022  -0.99899  -0.98015  -0.97753
 Alpha  occ. eigenvalues --   -0.96949  -0.96829  -0.96579  -0.96348  -0.96306
 Alpha  occ. eigenvalues --   -0.96122  -0.95935  -0.95698  -0.94751  -0.94183
 Alpha  occ. eigenvalues --   -0.91944  -0.89911  -0.89354  -0.87877  -0.86799
 Alpha  occ. eigenvalues --   -0.84951  -0.84525  -0.84274  -0.84052  -0.83462
 Alpha  occ. eigenvalues --   -0.83024  -0.82624  -0.81665  -0.81160  -0.80980
 Alpha  occ. eigenvalues --   -0.80737  -0.80012  -0.79124  -0.78585  -0.78059
 Alpha  occ. eigenvalues --   -0.77824  -0.77318  -0.76609  -0.76478  -0.75791
 Alpha  occ. eigenvalues --   -0.74715  -0.74665  -0.74091  -0.73137  -0.72172
 Alpha  occ. eigenvalues --   -0.71324  -0.71077  -0.71021  -0.70685  -0.70167
 Alpha  occ. eigenvalues --   -0.70058  -0.70021  -0.69390  -0.69080  -0.68744
 Alpha  occ. eigenvalues --   -0.68489  -0.67695  -0.66789  -0.66677  -0.66569
 Alpha  occ. eigenvalues --   -0.65755  -0.65239  -0.64791  -0.64576  -0.64444
 Alpha  occ. eigenvalues --   -0.64426  -0.64272  -0.63700  -0.63205  -0.62790
 Alpha  occ. eigenvalues --   -0.62643  -0.62190  -0.61984  -0.61775  -0.61645
 Alpha  occ. eigenvalues --   -0.61166  -0.60954  -0.60756  -0.60633  -0.60509
 Alpha  occ. eigenvalues --   -0.60339  -0.60221  -0.60167  -0.59891  -0.59555
 Alpha  occ. eigenvalues --   -0.59132  -0.58690  -0.58653  -0.58174  -0.57648
 Alpha  occ. eigenvalues --   -0.57443  -0.57029  -0.56994  -0.56020  -0.55448
 Alpha  occ. eigenvalues --   -0.55400  -0.55346  -0.55013  -0.54821  -0.54409
 Alpha  occ. eigenvalues --   -0.53936  -0.53853  -0.53795  -0.53452  -0.52917
 Alpha  occ. eigenvalues --   -0.52584  -0.52478  -0.52385  -0.52155  -0.51806
 Alpha  occ. eigenvalues --   -0.51790  -0.51604  -0.51506  -0.51269  -0.51226
 Alpha  occ. eigenvalues --   -0.51059  -0.50872  -0.50749  -0.50465  -0.50250
 Alpha  occ. eigenvalues --   -0.50007  -0.49841  -0.49753  -0.49517  -0.49215
 Alpha  occ. eigenvalues --   -0.49162  -0.49040  -0.48693  -0.48625  -0.48529
 Alpha  occ. eigenvalues --   -0.48390  -0.48319  -0.48158  -0.47823  -0.47758
 Alpha  occ. eigenvalues --   -0.47640  -0.47346  -0.47230  -0.47101  -0.46760
 Alpha  occ. eigenvalues --   -0.46497  -0.46485  -0.46361  -0.46351  -0.46138
 Alpha  occ. eigenvalues --   -0.46029  -0.45851  -0.45712  -0.45648  -0.45615
 Alpha  occ. eigenvalues --   -0.45279  -0.45221  -0.44827  -0.44823  -0.44617
 Alpha  occ. eigenvalues --   -0.44572  -0.44216  -0.44062  -0.43950  -0.43764
 Alpha  occ. eigenvalues --   -0.43638  -0.43511  -0.43380  -0.43338  -0.43111
 Alpha  occ. eigenvalues --   -0.42952  -0.42474  -0.42471  -0.42455  -0.42341
 Alpha  occ. eigenvalues --   -0.42188  -0.42105  -0.41900  -0.41813  -0.41705
 Alpha  occ. eigenvalues --   -0.41602  -0.41412  -0.41339  -0.41249  -0.41160
 Alpha  occ. eigenvalues --   -0.41071  -0.40997  -0.40908  -0.40848  -0.40708
 Alpha  occ. eigenvalues --   -0.40544  -0.40464  -0.40195  -0.39919  -0.39835
 Alpha  occ. eigenvalues --   -0.39787  -0.39718  -0.39592  -0.39525  -0.39371
 Alpha  occ. eigenvalues --   -0.39117  -0.38731  -0.38592  -0.38358  -0.38132
 Alpha  occ. eigenvalues --   -0.38106  -0.37950  -0.37693  -0.37604  -0.37366
 Alpha  occ. eigenvalues --   -0.37181  -0.37153  -0.35980  -0.35821  -0.35648
 Alpha  occ. eigenvalues --   -0.35317  -0.35315  -0.35240  -0.35047  -0.34093
 Alpha  occ. eigenvalues --   -0.33526  -0.33393  -0.32143  -0.31659  -0.31461
 Alpha  occ. eigenvalues --   -0.31327  -0.30810  -0.30691  -0.30599  -0.30431
 Alpha  occ. eigenvalues --   -0.30090  -0.30010  -0.29790  -0.29648  -0.29545
 Alpha  occ. eigenvalues --   -0.29376  -0.29202  -0.28806  -0.28575  -0.28458
 Alpha  occ. eigenvalues --   -0.28294  -0.28143  -0.28132  -0.27844  -0.27757
 Alpha  occ. eigenvalues --   -0.27534  -0.26762  -0.26644  -0.26239  -0.25328
 Alpha  occ. eigenvalues --   -0.22732
 Alpha virt. eigenvalues --   -0.12552  -0.11892  -0.11290  -0.06786  -0.06570
 Alpha virt. eigenvalues --   -0.06191  -0.05363  -0.05109  -0.04285  -0.04078
 Alpha virt. eigenvalues --   -0.04071  -0.03661  -0.03542  -0.03049  -0.02762

 Mulliken charges:
               1
     1  N   -0.772407
     2  H    0.417892
     3  H    0.441558
     4  H    0.411383
     5  C   -0.092920
     6  H    0.243406
     7  C    0.638680
     8  C   -0.397017
     9  H    0.212042
    10  H    0.230676
    11  O   -0.552540
    12  C    0.616413
    13  O   -0.442375
    14  O   -0.543000
    15  N   -0.612473
    16  H    0.409812
    17  C   -0.066683
    18  H    0.189362
    19  C    0.631121
    20  C   -0.353512
    21  H    0.165036
    22  H    0.168141
    23  O   -0.557252
    24  C    0.150122
    25  C   -0.187841
    26  H    0.135340
    27  C   -0.201511
    28  H    0.130963
    29  C   -0.151216
    30  H    0.152945
    31  C   -0.179099
    32  H    0.132506
    33  O   -0.632887
    34  H    0.414420
    35  C    0.366304
    36  N   -0.623879
    37  H    0.374337
    38  C   -0.044125
    39  H    0.186233
    40  C    0.618993
    41  C   -0.362894
    42  H    0.190162
    43  H    0.161167
    44  O   -0.536559
    45  C    0.114666
    46  C   -0.223478
    47  H    0.184057
    48  C   -0.197463
    49  H    0.147916
    50  C   -0.152644
    51  H    0.152584
    52  C   -0.195520
    53  H    0.120249
    54  O   -0.639695
    55  H    0.408670
    56  C    0.350645
    57  N   -0.598069
    58  H    0.360776
    59  C   -0.086006
    60  H    0.201957
    61  C    0.631313
    62  C   -0.377247
    63  H    0.163217
    64  H    0.167615
    65  O   -0.537729
    66  C    0.159128
    67  C   -0.192325
    68  H    0.125115
    69  C   -0.197117
    70  H    0.153236
    71  C   -0.118967
    72  H    0.135139
    73  C   -0.135374
    74  H    0.140382
    75  C   -0.130891
    76  H    0.138919
    77  N   -0.612617
    78  H    0.357364
    79  C   -0.046922
    80  H    0.185561
    81  C    0.620351
    82  C   -0.450793
    83  H    0.163080
    84  H    0.178208
    85  H    0.158321
    86  O   -0.547403
    87  N   -0.600427
    88  H    0.357384
    89  C   -0.078017
    90  H    0.181292
    91  C    0.622478
    92  C   -0.254183
    93  H    0.145845
    94  H    0.143377
    95  O   -0.548956
    96  C   -0.069707
    97  H    0.131726
    98  C   -0.446072
    99  H    0.146319
   100  H    0.142267
   101  H    0.142983
   102  C   -0.463035
   103  H    0.135701
   104  H    0.142319
   105  H    0.172868
   106  N   -0.615909
   107  H    0.358415
   108  C   -0.040624
   109  H    0.188085
   110  C    0.624193
   111  C   -0.448442
   112  H    0.154828
   113  H    0.157261
   114  H    0.184191
   115  O   -0.549483
   116  N   -0.616959
   117  H    0.361515
   118  C   -0.036967
   119  H    0.174138
   120  C    0.627769
   121  C   -0.374377
   122  H    0.194682
   123  H    0.150144
   124  O   -0.534812
   125  C    0.325294
   126  C   -0.088738
   127  H    0.119220
   128  N   -0.634316
   129  H    0.393990
   130  C    0.196311
   131  H    0.150111
   132  N   -0.432527
   133  N   -0.630981
   134  H    0.354069
   135  C   -0.034452
   136  H    0.144741
   137  C    0.655663
   138  C    0.103968
   139  H    0.178320
   140  O   -0.559590
   141  C   -0.484213
   142  H    0.178309
   143  H    0.141063
   144  H    0.175094
   145  O   -0.623229
   146  H    0.395196
   147  N   -0.594874
   148  H    0.348694
   149  C   -0.058769
   150  H    0.175678
   151  C    0.616544
   152  C   -0.071008
   153  H    0.131986
   154  O   -0.571802
   155  C   -0.464954
   156  H    0.151833
   157  H    0.160626
   158  H    0.149518
   159  C   -0.465165
   160  H    0.147779
   161  H    0.140298
   162  H    0.185625
   163  N   -0.616578
   164  H    0.362929
   165  C   -0.049040
   166  H    0.156014
   167  C    0.605134
   168  C   -0.292042
   169  H    0.165647
   170  H    0.159018
   171  O   -0.647753
   172  C   -0.275425
   173  H    0.145532
   174  H    0.174692
   175  C   -0.154227
   176  H    0.174063
   177  H    0.134514
   178  N   -0.614852
   179  H    0.448035
   180  N   -0.755752
   181  H    0.360617
   182  H    0.362453
   183  N   -0.775098
   184  H    0.348231
   185  H    0.401859
   186  C    0.743004
   187  O   -0.530567
   188  H    0.445431
 Sum of Mulliken charges =   1.00000

 Dipole moment (field-independent basis, Debye):
    X=             -7.3262    Y=            -26.4052    Z=            -48.5157  Tot=             55.7197
 Quadrupole moment (field-independent basis, Debye-Ang):
   XX=            281.9096   YY=           -292.4066   ZZ=              3.6541
   XY=            256.3717   XZ=            483.3088   YZ=            388.8365

 Normal termination of Gaussian 16 at Tue Aug  9 20:49:56 2022.
