 Gaussian 16, Revision C.01,
 Gaussian 16:  ES64L-G16RevC.01  3-Jul-2019

 -------------------------------------------------------------------
 # B3LYP/6-31G* guess=read geom=check nosymm integral(ultrafinegrid)
 -------------------------------------------------------------------

 -----------------------------------------------------
 Candidate Structure: Conf:95 Charge calc in gas phase
 -----------------------------------------------------
 Structure from the checkpoint file:  "conf-95.chk"
 Charge =  1 Multiplicity = 1

                          Input orientation:
 ---------------------------------------------------------------------
 Center     Atomic      Atomic             Coordinates (Angstroms)
 Number     Number       Type             X           Y           Z
 ---------------------------------------------------------------------
      1          7           0      -10.452010   -6.318037   -5.978543
      2          1           0      -11.021466   -5.896914   -5.221182
      3          1           0      -10.452851   -5.616338   -6.756636
      4          1           0      -10.852263   -7.215391   -6.264948
      5          6           0       -8.996714   -6.381428   -5.566613
      6          1           0       -8.946276   -6.699141   -4.525615
      7          6           0       -8.580602   -4.897420   -5.751234
      8          6           0       -8.213039   -7.337936   -6.467129
      9          1           0       -8.665506   -8.339017   -6.474699
     10          1           0       -8.187955   -6.979696   -7.501689
     11          8           0       -9.134365   -4.283863   -6.674607
     12          6           0       -6.784957   -7.465844   -5.934071
     13          8           0       -6.472437   -7.092907   -4.818917
     14          8           0       -5.977484   -8.016982   -6.825181
     15          7           0       -7.727129   -4.391761   -4.867521
     16          1           0       -7.222417   -4.994422   -4.218043
     17          6           0       -7.498164   -2.956192   -4.719193
     18          1           0       -7.602400   -2.489793   -5.701291
     19          6           0       -6.074872   -2.833351   -4.145364
     20          6           0       -8.525531   -2.349883   -3.705728
     21          1           0       -8.453783   -1.257895   -3.770341
     22          1           0       -8.194484   -2.637175   -2.702181
     23          8           0       -5.740159   -3.613905   -3.253841
     24          6           0       -9.952242   -2.810669   -3.920342
     25          6           0      -10.794592   -2.199431   -4.865044
     26          1           0      -10.431023   -1.345775   -5.431283
     27          6           0      -10.461127   -3.902807   -3.209081
     28          1           0       -9.848789   -4.378246   -2.446165
     29          6           0      -12.086449   -2.655853   -5.098127
     30          1           0      -12.736489   -2.164882   -5.815043
     31          6           0      -11.757583   -4.391318   -3.438435
     32          1           0      -12.151881   -5.200864   -2.824759
     33          8           0      -13.858738   -4.152776   -4.642412
     34          1           0      -14.173685   -4.741944   -3.938323
     35          6           0      -12.581780   -3.752226   -4.377447
     36          7           0       -5.292070   -1.875052   -4.673300
     37          1           0       -5.671084   -1.165534   -5.295006
     38          6           0       -3.971471   -1.550181   -4.148340
     39          1           0       -3.896304   -1.967983   -3.141953
     40          6           0       -3.891838   -0.012107   -4.118374
     41          6           0       -2.818543   -2.103587   -5.034070
     42          1           0       -1.883287   -1.918681   -4.492900
     43          1           0       -2.777086   -1.510153   -5.954687
     44          8           0       -4.572788    0.654335   -4.901110
     45          6           0       -2.938465   -3.571639   -5.390635
     46          6           0       -2.976504   -4.568785   -4.403744
     47          1           0       -2.924292   -4.291667   -3.355713
     48          6           0       -3.003303   -3.969044   -6.730715
     49          1           0       -2.967450   -3.217581   -7.515470
     50          6           0       -3.095700   -5.915020   -4.739174
     51          1           0       -3.135718   -6.684154   -3.975202
     52          6           0       -3.116143   -5.315012   -7.086386
     53          1           0       -3.176065   -5.603929   -8.133794
     54          8           0       -3.333397   -7.636072   -6.377894
     55          1           0       -2.955511   -7.813389   -7.255407
     56          6           0       -3.165665   -6.277792   -6.082324
     57          7           0       -3.029906    0.505383   -3.218755
     58          1           0       -2.487825   -0.134893   -2.631057
     59          6           0       -2.773988    1.929806   -3.136065
     60          1           0       -3.642618    2.431874   -3.573802
     61          6           0       -1.513260    2.310487   -3.946667
     62          6           0       -2.608233    2.369045   -1.654172
     63          1           0       -1.754387    1.827969   -1.228707
     64          1           0       -2.341444    3.432056   -1.637029
     65          8           0       -0.662331    1.477120   -4.269940
     66          6           0       -3.846664    2.133352   -0.816198
     67          6           0       -4.903462    3.053288   -0.835593
     68          1           0       -4.822831    3.953066   -1.442732
     69          6           0       -3.965856    0.991620   -0.013999
     70          1           0       -3.150504    0.272633    0.017412
     71          6           0       -6.052764    2.838475   -0.075288
     72          1           0       -6.857870    3.568033   -0.095484
     73          6           0       -5.114138    0.773522    0.749133
     74          1           0       -5.186188   -0.113642    1.372788
     75          6           0       -6.160996    1.695888    0.720203
     76          1           0       -7.051390    1.531726    1.321056
     77          7           0       -1.366125    3.625742   -4.236035
     78          1           0       -2.074661    4.286049   -3.942751
     79          6           0       -0.177439    4.161299   -4.917895
     80          1           0        0.180097    3.354725   -5.566427
     81          6           0        0.943210    4.489802   -3.892546
     82          6           0       -0.544660    5.387923   -5.745360
     83          1           0        0.338037    5.765676   -6.266037
     84          1           0       -1.311369    5.132266   -6.483107
     85          1           0       -0.909257    6.199147   -5.106835
     86          8           0        1.377688    5.627011   -3.751457
     87          7           0        1.371564    3.418073   -3.169949
     88          1           0        1.031655    2.488486   -3.403647
     89          6           0        2.340935    3.526422   -2.094491
     90          1           0        2.993532    4.377961   -2.311720
     91          6           0        3.152358    2.229172   -2.042217
     92          6           0        1.674393    3.710178   -0.696201
     93          1           0        0.958820    2.885407   -0.572637
     94          1           0        2.436821    3.574529    0.082993
     95          8           0        2.705677    1.163021   -2.474931
     96          6           0        0.964214    5.056026   -0.444662
     97          1           0        0.241975    5.216843   -1.256647
     98          6           0        0.186318    4.986821    0.881248
     99          1           0        0.849916    4.859710    1.745919
    100          1           0       -0.377967    5.912753    1.040496
    101          1           0       -0.530744    4.155687    0.883739
    102          6           0        1.945560    6.237066   -0.442762
    103          1           0        2.728747    6.093809    0.313300
    104          1           0        1.421601    7.166765   -0.195027
    105          1           0        2.411049    6.379438   -1.422912
    106          7           0        4.361851    2.302062   -1.416588
    107          1           0        4.599707    3.171472   -0.953529
    108          6           0        5.024064    1.096367   -0.909168
    109          1           0        4.994246    0.353691   -1.710944
    110          6           0        4.202134    0.611943    0.302659
    111          6           0        6.469523    1.403576   -0.517959
    112          1           0        6.974689    0.493062   -0.180404
    113          1           0        6.507818    2.133343    0.297880
    114          1           0        7.014527    1.802065   -1.378529
    115          8           0        4.050615    1.349319    1.286519
    116          7           0        3.586803   -0.585718    0.206452
    117          1           0        3.847194   -1.212036   -0.544399
    118          6           0        2.570702   -1.032645    1.172048
    119          1           0        1.906425   -0.178080    1.333395
    120          6           0        3.245767   -1.424007    2.509571
    121          6           0        1.753548   -2.197265    0.577872
    122          1           0        1.188644   -2.665122    1.390233
    123          1           0        2.452476   -2.969166    0.224667
    124          8           0        3.966719   -2.410665    2.598164
    125          6           0        0.776793   -1.776332   -0.480307
    126          6           0       -0.576515   -1.997927   -0.607493
    127          1           0       -1.217738   -2.561981    0.056968
    128          7           0        1.110460   -1.021821   -1.593463
    129          1           0        1.970809   -0.514680   -1.784814
    130          6           0       -0.020746   -0.813547   -2.309813
    131          1           0       -0.040910   -0.204982   -3.203013
    132          7           0       -1.070075   -1.393618   -1.748562
    133          7           0        2.967402   -0.537261    3.495112
    134          1           0        2.277470    0.195651    3.330888
    135          6           0        3.457042   -0.485377    4.861835
    136          1           0        3.450347   -1.484299    5.313567
    137          6           0        2.431168    0.435062    5.583225
    138          6           0        4.908648    0.098894    4.925070
    139          1           0        5.063960    0.518103    5.926081
    140          8           0        1.554925    1.005646    4.930203
    141          6           0        5.995459   -0.943194    4.657379
    142          1           0        5.970367   -1.733429    5.417180
    143          1           0        5.867280   -1.418611    3.682382
    144          1           0        6.977389   -0.460506    4.700424
    145          8           0        5.011239    1.212477    4.037893
    146          1           0        4.544700    0.988231    3.207736
    147          7           0        2.541475    0.561498    6.922064
    148          1           0        3.322222    0.138787    7.407390
    149          6           0        1.653773    1.453335    7.694663
    150          1           0        0.737514    1.529687    7.102051
    151          6           0        2.324652    2.855074    7.784575
    152          6           0        1.329049    0.865322    9.079988
    153          1           0        2.257071    0.883063    9.667273
    154          8           0        2.909531    3.214855    8.807509
    155          6           0        0.304756    1.753191    9.804878
    156          1           0       -0.637929    1.803838    9.244115
    157          1           0        0.686996    2.766967    9.941926
    158          1           0        0.079182    1.339408   10.793949
    159          6           0        0.813171   -0.578603    8.983834
    160          1           0       -0.110798   -0.628169    8.393419
    161          1           0        0.588831   -0.966267    9.983659
    162          1           0        1.537978   -1.256641    8.520381
    163          7           0        2.232799    3.581964    6.650519
    164          1           0        1.813951    3.189074    5.806920
    165          6           0        2.914177    4.851554    6.405506
    166          1           0        2.556803    5.610588    7.110180
    167          6           0        2.591626    5.303081    4.953862
    168          6           0        4.453237    4.686464    6.590357
    169          1           0        4.605204    4.354082    7.619677
    170          1           0        4.769829    3.853823    5.945320
    171          8           0        2.931060    6.471910    4.639231
    172          6           0        5.304948    5.947442    6.311500
    173          1           0        5.990150    6.136520    7.147506
    174          1           0        4.656315    6.822061    6.217425
    175          6           0        6.180539    5.848713    5.047563
    176          1           0        6.922084    5.053378    5.175523
    177          1           0        6.730456    6.783590    4.892887
    178          7           0        5.382085    5.568870    3.844433
    179          1           0        4.488343    6.096969    3.827280
    180          7           0        6.451350    3.586839    3.120946
    181          1           0        6.237577    2.606345    3.318066
    182          1           0        7.287912    3.920686    3.580335
    183          7           0        4.262433    4.051125    2.507317
    184          1           0        4.298696    3.166392    2.008094
    185          1           0        3.340499    4.292968    2.937480
    186          6           0        5.357762    4.407641    3.188900
    187          8           0        2.137693    4.408677    4.177522
    188          1           0       -5.033274   -7.995622   -6.493498
 ---------------------------------------------------------------------

 SCF Done:  E(RB3LYP) =  -4648.50148562     A.U. after    3 cycles

 Alpha  occ. eigenvalues --  -19.28408 -19.27644 -19.27400 -19.24581 -19.24272
 Alpha  occ. eigenvalues --  -19.21405 -19.20719 -19.20352 -19.19534 -19.18722
 Alpha  occ. eigenvalues --  -19.18038 -19.17818 -19.17816 -19.16518 -19.13223
 Alpha  occ. eigenvalues --  -19.11231 -19.10267 -14.59024 -14.47533 -14.45864
 Alpha  occ. eigenvalues --  -14.44359 -14.44012 -14.43813 -14.43252 -14.42110
 Alpha  occ. eigenvalues --  -14.42016 -14.41797 -14.41733 -14.41173 -14.40630
 Alpha  occ. eigenvalues --  -14.39400 -14.37974 -14.36704 -10.43047 -10.41672
 Alpha  occ. eigenvalues --  -10.39513 -10.38112 -10.37547 -10.37005 -10.36927
 Alpha  occ. eigenvalues --  -10.35637 -10.35338 -10.35308 -10.35082 -10.34950
 Alpha  occ. eigenvalues --  -10.33828 -10.33676 -10.33255 -10.32175 -10.32120
 Alpha  occ. eigenvalues --  -10.31452 -10.30532 -10.30480 -10.30067 -10.30058
 Alpha  occ. eigenvalues --  -10.30056 -10.29560 -10.29481 -10.29412 -10.29224
 Alpha  occ. eigenvalues --  -10.29008 -10.28923 -10.28822 -10.28787 -10.28704
 Alpha  occ. eigenvalues --  -10.28259 -10.28126 -10.27671 -10.27392 -10.26608
 Alpha  occ. eigenvalues --  -10.26298 -10.26138 -10.26071 -10.25954 -10.25947
 Alpha  occ. eigenvalues --  -10.25811 -10.25726 -10.25584 -10.25481 -10.24944
 Alpha  occ. eigenvalues --  -10.24016 -10.23937 -10.23919 -10.23895 -10.23830
 Alpha  occ. eigenvalues --  -10.23814 -10.23639 -10.23355 -10.22733 -10.22617
 Alpha  occ. eigenvalues --  -10.22601 -10.21588 -10.21154 -10.20765 -10.19980
 Alpha  occ. eigenvalues --  -10.19877 -10.19734  -1.20257  -1.17407  -1.15773
 Alpha  occ. eigenvalues --   -1.14322  -1.13260  -1.12698  -1.11848  -1.11708
 Alpha  occ. eigenvalues --   -1.11568  -1.10723  -1.10366  -1.09700  -1.09319
 Alpha  occ. eigenvalues --   -1.08267  -1.08009  -1.06977  -1.06194  -1.04988
 Alpha  occ. eigenvalues --   -1.04234  -1.03945  -1.01654  -1.00726  -1.00207
 Alpha  occ. eigenvalues --   -0.99231  -0.98742  -0.98705  -0.97887  -0.97303
 Alpha  occ. eigenvalues --   -0.96169  -0.95307  -0.95127  -0.93797  -0.92891
 Alpha  occ. eigenvalues --   -0.92884  -0.92672  -0.92315  -0.90604  -0.88469
 Alpha  occ. eigenvalues --   -0.87602  -0.86300  -0.85852  -0.84833  -0.84744
 Alpha  occ. eigenvalues --   -0.84603  -0.84212  -0.83854  -0.82929  -0.82533
 Alpha  occ. eigenvalues --   -0.82009  -0.81728  -0.81570  -0.80232  -0.80076
 Alpha  occ. eigenvalues --   -0.79310  -0.79282  -0.78111  -0.77749  -0.76803
 Alpha  occ. eigenvalues --   -0.75777  -0.74296  -0.74117  -0.73798  -0.73007
 Alpha  occ. eigenvalues --   -0.72522  -0.72066  -0.71904  -0.71834  -0.71347
 Alpha  occ. eigenvalues --   -0.71094  -0.70698  -0.70126  -0.69817  -0.69421
 Alpha  occ. eigenvalues --   -0.69360  -0.68962  -0.68542  -0.68061  -0.67455
 Alpha  occ. eigenvalues --   -0.67282  -0.67095  -0.66384  -0.66339  -0.65952
 Alpha  occ. eigenvalues --   -0.65649  -0.65539  -0.65391  -0.65060  -0.64830
 Alpha  occ. eigenvalues --   -0.64291  -0.63973  -0.63740  -0.63571  -0.63247
 Alpha  occ. eigenvalues --   -0.63206  -0.62724  -0.62434  -0.62251  -0.61721
 Alpha  occ. eigenvalues --   -0.61553  -0.61057  -0.60459  -0.59809  -0.59536
 Alpha  occ. eigenvalues --   -0.59405  -0.59245  -0.58833  -0.58530  -0.58327
 Alpha  occ. eigenvalues --   -0.58014  -0.57494  -0.57280  -0.57017  -0.56932
 Alpha  occ. eigenvalues --   -0.56765  -0.56321  -0.56287  -0.56130  -0.55858
 Alpha  occ. eigenvalues --   -0.55763  -0.55488  -0.55442  -0.55299  -0.54655
 Alpha  occ. eigenvalues --   -0.54385  -0.54249  -0.54111  -0.53904  -0.53558
 Alpha  occ. eigenvalues --   -0.53144  -0.53128  -0.52864  -0.52764  -0.52441
 Alpha  occ. eigenvalues --   -0.52302  -0.52018  -0.52000  -0.51696  -0.51552
 Alpha  occ. eigenvalues --   -0.51478  -0.51349  -0.51137  -0.51022  -0.50882
 Alpha  occ. eigenvalues --   -0.50655  -0.50541  -0.50360  -0.50018  -0.49919
 Alpha  occ. eigenvalues --   -0.49854  -0.49698  -0.49598  -0.49182  -0.49018
 Alpha  occ. eigenvalues --   -0.49008  -0.48867  -0.48704  -0.48576  -0.48427
 Alpha  occ. eigenvalues --   -0.48214  -0.48114  -0.47986  -0.47842  -0.47777
 Alpha  occ. eigenvalues --   -0.47349  -0.47072  -0.47044  -0.46927  -0.46914
 Alpha  occ. eigenvalues --   -0.46825  -0.46578  -0.46364  -0.46275  -0.46053
 Alpha  occ. eigenvalues --   -0.46022  -0.45753  -0.45475  -0.45431  -0.45404
 Alpha  occ. eigenvalues --   -0.45353  -0.45169  -0.45121  -0.45066  -0.44840
 Alpha  occ. eigenvalues --   -0.44749  -0.44535  -0.44360  -0.44308  -0.44099
 Alpha  occ. eigenvalues --   -0.44000  -0.43765  -0.43539  -0.43466  -0.43427
 Alpha  occ. eigenvalues --   -0.43393  -0.43114  -0.42966  -0.42874  -0.42561
 Alpha  occ. eigenvalues --   -0.42390  -0.42355  -0.42324  -0.42148  -0.42072
 Alpha  occ. eigenvalues --   -0.41801  -0.41604  -0.41443  -0.41247  -0.41199
 Alpha  occ. eigenvalues --   -0.41174  -0.40776  -0.40594  -0.40403  -0.39855
 Alpha  occ. eigenvalues --   -0.39851  -0.39587  -0.39307  -0.39214  -0.39043
 Alpha  occ. eigenvalues --   -0.38983  -0.38539  -0.38143  -0.37762  -0.37522
 Alpha  occ. eigenvalues --   -0.37322  -0.36998  -0.36960  -0.36783  -0.36627
 Alpha  occ. eigenvalues --   -0.36256  -0.36058  -0.35984  -0.35864  -0.35768
 Alpha  occ. eigenvalues --   -0.35197  -0.34366  -0.34274  -0.34019  -0.33953
 Alpha  occ. eigenvalues --   -0.33770  -0.33746  -0.33689  -0.33541  -0.33176
 Alpha  occ. eigenvalues --   -0.32930  -0.32440  -0.32007  -0.31880  -0.31662
 Alpha  occ. eigenvalues --   -0.31654  -0.31436  -0.31265  -0.31064  -0.31031
 Alpha  occ. eigenvalues --   -0.30119  -0.29820  -0.29681  -0.29409  -0.29252
 Alpha  occ. eigenvalues --   -0.28196  -0.27129  -0.26720  -0.26298  -0.25578
 Alpha  occ. eigenvalues --   -0.24182
 Alpha virt. eigenvalues --   -0.11622  -0.11061  -0.10023  -0.09412  -0.08085
 Alpha virt. eigenvalues --   -0.08030  -0.07239  -0.06552  -0.06206  -0.05947
 Alpha virt. eigenvalues --   -0.05532  -0.05160  -0.05061  -0.04373  -0.04032

 Mulliken charges:
               1
     1  N   -0.758164
     2  H    0.414278
     3  H    0.425399
     4  H    0.403919
     5  C   -0.101711
     6  H    0.222541
     7  C    0.646998
     8  C   -0.386027
     9  H    0.200849
    10  H    0.216925
    11  O   -0.544040
    12  C    0.615703
    13  O   -0.465861
    14  O   -0.591152
    15  N   -0.596706
    16  H    0.392864
    17  C   -0.048338
    18  H    0.186382
    19  C    0.630244
    20  C   -0.367633
    21  H    0.179314
    22  H    0.184240
    23  O   -0.538624
    24  C    0.164711
    25  C   -0.155332
    26  H    0.155407
    27  C   -0.202325
    28  H    0.151312
    29  C   -0.161787
    30  H    0.168910
    31  C   -0.278648
    32  H    0.142789
    33  O   -0.629117
    34  H    0.417533
    35  C    0.344690
    36  N   -0.602646
    37  H    0.353001
    38  C   -0.072814
    39  H    0.199250
    40  C    0.621920
    41  C   -0.368101
    42  H    0.191730
    43  H    0.160164
    44  O   -0.548727
    45  C    0.181570
    46  C   -0.169440
    47  H    0.158394
    48  C   -0.204505
    49  H    0.139763
    50  C   -0.138264
    51  H    0.154732
    52  C   -0.177528
    53  H    0.131399
    54  O   -0.681984
    55  H    0.426471
    56  C    0.310452
    57  N   -0.629320
    58  H    0.404230
    59  C   -0.071220
    60  H    0.188778
    61  C    0.639415
    62  C   -0.399849
    63  H    0.171276
    64  H    0.163633
    65  O   -0.540375
    66  C    0.192801
    67  C   -0.177419
    68  H    0.120217
    69  C   -0.189276
    70  H    0.139425
    71  C   -0.127710
    72  H    0.137115
    73  C   -0.130221
    74  H    0.132916
    75  C   -0.129730
    76  H    0.134026
    77  N   -0.589768
    78  H    0.338365
    79  C   -0.066946
    80  H    0.191565
    81  C    0.626432
    82  C   -0.458294
    83  H    0.182675
    84  H    0.155488
    85  H    0.165532
    86  O   -0.516573
    87  N   -0.629083
    88  H    0.372399
    89  C   -0.058832
    90  H    0.186274
    91  C    0.626379
    92  C   -0.268381
    93  H    0.135072
    94  H    0.143139
    95  O   -0.552489
    96  C   -0.067364
    97  H    0.125370
    98  C   -0.465982
    99  H    0.189402
   100  H    0.147252
   101  H    0.126483
   102  C   -0.464867
   103  H    0.143077
   104  H    0.153718
   105  H    0.165394
   106  N   -0.583580
   107  H    0.351372
   108  C   -0.050017
   109  H    0.171880
   110  C    0.643082
   111  C   -0.483384
   112  H    0.173935
   113  H    0.180190
   114  H    0.182518
   115  O   -0.555136
   116  N   -0.597689
   117  H    0.347736
   118  C   -0.047514
   119  H    0.183353
   120  C    0.626637
   121  C   -0.395719
   122  H    0.188196
   123  H    0.182050
   124  O   -0.524973
   125  C    0.322719
   126  C   -0.076270
   127  H    0.139965
   128  N   -0.627187
   129  H    0.377515
   130  C    0.183295
   131  H    0.228783
   132  N   -0.503825
   133  N   -0.645677
   134  H    0.378725
   135  C   -0.063093
   136  H    0.182041
   137  C    0.632393
   138  C    0.131803
   139  H    0.145426
   140  O   -0.531129
   141  C   -0.462163
   142  H    0.146775
   143  H    0.183764
   144  H    0.149837
   145  O   -0.681384
   146  H    0.450699
   147  N   -0.613830
   148  H    0.335771
   149  C   -0.049833
   150  H    0.180160
   151  C    0.624374
   152  C   -0.089177
   153  H    0.146005
   154  O   -0.543951
   155  C   -0.460596
   156  H    0.136967
   157  H    0.183918
   158  H    0.145761
   159  C   -0.444251
   160  H    0.143873
   161  H    0.152083
   162  H    0.127698
   163  N   -0.637331
   164  H    0.379243
   165  C   -0.011384
   166  H    0.163940
   167  C    0.569253
   168  C   -0.306613
   169  H    0.187515
   170  H    0.125295
   171  O   -0.591575
   172  C   -0.283559
   173  H    0.142422
   174  H    0.196216
   175  C   -0.162630
   176  H    0.134384
   177  H    0.169710
   178  N   -0.577529
   179  H    0.397291
   180  N   -0.779730
   181  H    0.383369
   182  H    0.342885
   183  N   -0.814623
   184  H    0.381099
   185  H    0.418802
   186  C    0.710910
   187  O   -0.602381
   188  H    0.465578
 Sum of Mulliken charges =   1.00000

 Dipole moment (field-independent basis, Debye):
    X=            -27.3336    Y=            -26.5823    Z=            -23.2082  Tot=             44.6359
 Quadrupole moment (field-independent basis, Debye-Ang):
   XX=            -91.1197   YY=           -431.2400   ZZ=           -437.2386
   XY=            236.8524   XZ=            207.0131   YZ=            108.8379

 Normal termination of Gaussian 16 at Tue Aug  9 20:51:13 2022.
