 Gaussian 16, Revision C.01,
 Gaussian 16:  ES64L-G16RevC.01  3-Jul-2019

 -------------------------------------------------------------------
 # B3LYP/6-31G* guess=read geom=check nosymm integral(ultrafinegrid)
 -------------------------------------------------------------------

 ------------------------------------------------------
 Candidate Structure: Conf:839 Charge calc in gas phase
 ------------------------------------------------------
 Structure from the checkpoint file:  "conf-839.chk"
 Charge =  1 Multiplicity = 1

                          Input orientation:
 ---------------------------------------------------------------------
 Center     Atomic      Atomic             Coordinates (Angstroms)
 Number     Number       Type             X           Y           Z
 ---------------------------------------------------------------------
      1          7           0        4.450717   -7.643386    3.394191
      2          1           0        3.932425   -6.983453    3.986328
      3          1           0        4.006536   -8.573204    3.357596
      4          1           0        5.453639   -7.671010    3.745530
      5          6           0        4.530106   -7.136225    1.980209
      6          1           0        4.437124   -6.049820    2.034135
      7          6           0        3.345950   -7.797968    1.242543
      8          6           0        5.889835   -7.540259    1.370397
      9          1           0        5.935565   -8.634941    1.306193
     10          1           0        5.963111   -7.140527    0.356820
     11          8           0        3.086666   -8.975312    1.513222
     12          6           0        7.080267   -7.030823    2.205278
     13          8           0        7.990470   -6.397067    1.643779
     14          8           0        7.015958   -7.295049    3.464598
     15          7           0        2.700706   -7.008451    0.380089
     16          1           0        2.974135   -6.032224    0.254202
     17          6           0        1.522278   -7.331188   -0.420610
     18          1           0        1.813011   -8.022613   -1.224592
     19          6           0        1.154026   -5.973888   -1.092800
     20          6           0        0.381283   -8.016762    0.385433
     21          1           0        0.765377   -8.989044    0.702871
     22          1           0       -0.436995   -8.226430   -0.314932
     23          8           0        1.911820   -5.008666   -0.965914
     24          6           0       -0.133062   -7.243878    1.580142
     25          6           0        0.355660   -7.496530    2.870755
     26          1           0        1.081388   -8.293043    3.013133
     27          6           0       -1.120624   -6.261285    1.436964
     28          1           0       -1.568867   -6.077176    0.465099
     29          6           0       -0.087943   -6.770061    3.974299
     30          1           0        0.278850   -6.984539    4.973439
     31          6           0       -1.569324   -5.523188    2.528034
     32          1           0       -2.336494   -4.767971    2.393248
     33          8           0       -1.439419   -5.050744    4.898159
     34          1           0       -2.060752   -4.358436    4.611451
     35          6           0       -1.042027   -5.761897    3.800049
     36          7           0        0.029264   -5.953726   -1.834949
     37          1           0       -0.615647   -6.734221   -1.797405
     38          6           0       -0.504608   -4.754603   -2.484193
     39          1           0        0.152273   -3.914919   -2.247237
     40          6           0       -1.926286   -4.528581   -1.946133
     41          6           0       -0.554727   -4.973026   -4.024247
     42          1           0       -1.060198   -5.928470   -4.208593
     43          1           0        0.481628   -5.084541   -4.363387
     44          8           0       -2.688425   -5.487628   -1.789135
     45          6           0       -1.257815   -3.875145   -4.794552
     46          6           0       -2.569959   -4.054611   -5.257398
     47          1           0       -3.076362   -4.999485   -5.073390
     48          6           0       -0.629389   -2.650011   -5.053562
     49          1           0        0.375535   -2.470184   -4.682527
     50          6           0       -3.240490   -3.052072   -5.953866
     51          1           0       -4.251110   -3.199245   -6.321933
     52          6           0       -1.288749   -1.637579   -5.749744
     53          1           0       -0.783017   -0.692899   -5.943224
     54          8           0       -3.296131   -0.881740   -6.890360
     55          1           0       -2.721425   -0.114840   -7.039599
     56          6           0       -2.597185   -1.835716   -6.203842
     57          7           0       -2.270319   -3.243948   -1.691775
     58          1           0       -1.624460   -2.496992   -1.934688
     59          6           0       -3.651298   -2.832324   -1.466276
     60          1           0       -4.269259   -3.286502   -2.254193
     61          6           0       -3.713048   -1.304374   -1.659993
     62          6           0       -4.253789   -3.330778   -0.130094
     63          1           0       -5.339020   -3.162676   -0.169808
     64          1           0       -4.134923   -4.419961   -0.149392
     65          8           0       -2.692206   -0.646429   -1.886697
     66          6           0       -3.731432   -2.790933    1.192623
     67          6           0       -2.540041   -2.065416    1.339809
     68          1           0       -1.944678   -1.809602    0.471159
     69          6           0       -4.474761   -3.084037    2.348496
     70          1           0       -5.406370   -3.638382    2.256189
     71          6           0       -2.101328   -1.659456    2.604012
     72          1           0       -1.188478   -1.076963    2.696427
     73          6           0       -4.039353   -2.685468    3.612674
     74          1           0       -4.641289   -2.916864    4.487851
     75          6           0       -2.841859   -1.973292    3.746416
     76          1           0       -2.503140   -1.643212    4.725245
     77          7           0       -4.933839   -0.730674   -1.593763
     78          1           0       -5.744990   -1.299235   -1.389102
     79          6           0       -5.163926    0.686522   -1.923268
     80          1           0       -4.402169    0.947036   -2.665798
     81          6           0       -4.958331    1.602304   -0.686018
     82          6           0       -6.560403    0.864655   -2.509432
     83          1           0       -6.718396    1.908983   -2.787778
     84          1           0       -6.682827    0.239419   -3.399304
     85          1           0       -7.329905    0.611455   -1.773235
     86          8           0       -5.884561    2.235560   -0.188272
     87          7           0       -3.682943    1.650312   -0.223731
     88          1           0       -2.953862    1.097510   -0.669234
     89          6           0       -3.322731    2.414589    0.961738
     90          1           0       -3.753907    3.418189    0.863955
     91          6           0       -1.793234    2.525485    0.972126
     92          6           0       -3.902600    1.743101    2.241883
     93          1           0       -4.961935    1.581697    2.015395
     94          1           0       -3.438395    0.756402    2.344575
     95          8           0       -1.084668    1.849588    0.219233
     96          6           0       -3.811204    2.495559    3.585889
     97          1           0       -2.755659    2.555471    3.888056
     98          6           0       -4.405773    3.913584    3.524131
     99          1           0       -5.445961    3.881651    3.178217
    100          1           0       -4.395617    4.383320    4.514137
    101          1           0       -3.867173    4.585467    2.841931
    102          6           0       -4.531802    1.673286    4.667355
    103          1           0       -5.603674    1.593711    4.447005
    104          1           0       -4.426215    2.142214    5.652217
    105          1           0       -4.126220    0.657595    4.729365
    106          7           0       -1.245275    3.401136    1.851050
    107          1           0       -1.841831    3.858744    2.526078
    108          6           0        0.194715    3.463825    2.057954
    109          1           0        0.662937    3.779640    1.117196
    110          6           0        0.732620    2.069018    2.450845
    111          6           0        0.513388    4.476756    3.163004
    112          1           0        1.595333    4.586741    3.282116
    113          1           0        0.098115    4.141351    4.118827
    114          1           0        0.099232    5.458969    2.913091
    115          8           0        0.197650    1.388418    3.324253
    116          7           0        1.862398    1.670485    1.806946
    117          1           0        2.256092    2.269131    1.092505
    118          6           0        2.398830    0.310816    1.905823
    119          1           0        1.545415   -0.344325    2.121776
    120          6           0        3.387376    0.125683    3.081175
    121          6           0        3.041408   -0.103988    0.569713
    122          1           0        3.717225   -0.937131    0.771515
    123          1           0        3.690920    0.718997    0.228560
    124          8           0        4.450866   -0.495219    2.933266
    125          6           0        2.079877   -0.525557   -0.494944
    126          6           0        2.073970   -1.650824   -1.285366
    127          1           0        2.752320   -2.491974   -1.252098
    128          7           0        0.997148    0.221678   -0.935190
    129          1           0        0.559231    1.017764   -0.478288
    130          6           0        0.398943   -0.484042   -1.933244
    131          1           0       -0.501596   -0.141126   -2.418884
    132          7           0        1.025272   -1.619926   -2.179097
    133          7           0        2.996245    0.613197    4.277502
    134          1           0        2.045654    0.961009    4.403624
    135          6           0        3.855708    0.551263    5.460025
    136          1           0        4.890746    0.627569    5.106315
    137          6           0        3.713847   -0.803489    6.205452
    138          6           0        3.534558    1.715983    6.417044
    139          1           0        4.178093    1.588490    7.297680
    140          8           0        3.430432   -0.864701    7.399964
    141          6           0        3.792659    3.085100    5.801790
    142          1           0        4.845684    3.195728    5.520435
    143          1           0        3.177832    3.239318    4.909256
    144          1           0        3.541789    3.862928    6.528212
    145          8           0        2.164428    1.652380    6.795553
    146          1           0        2.093608    0.869641    7.371780
    147          7           0        3.957699   -1.892415    5.427074
    148          1           0        4.179520   -1.713442    4.448739
    149          6           0        3.852817   -3.273686    5.902648
    150          1           0        4.155895   -3.254887    6.957868
    151          6           0        4.894697   -4.089046    5.095921
    152          6           0        2.441373   -3.917289    5.812349
    153          1           0        2.306170   -4.270568    4.782799
    154          8           0        4.608119   -5.117604    4.474584
    155          6           0        2.376772   -5.132630    6.752689
    156          1           0        2.478229   -4.818616    7.799265
    157          1           0        3.166911   -5.860462    6.540552
    158          1           0        1.410574   -5.637473    6.654186
    159          6           0        1.302341   -2.940473    6.133350
    160          1           0        1.374336   -2.560904    7.157358
    161          1           0        0.345648   -3.459651    6.017064
    162          1           0        1.300276   -2.082610    5.452715
    163          7           0        6.144372   -3.557369    5.074225
    164          1           0        6.299283   -2.692284    5.577769
    165          6           0        7.190399   -3.981587    4.138885
    166          1           0        6.742397   -4.769450    3.536322
    167          6           0        8.372859   -4.537595    4.960311
    168          6           0        7.608518   -2.788465    3.250295
    169          1           0        6.688666   -2.249907    2.994910
    170          1           0        8.220512   -2.105973    3.853382
    171          8           0        8.504290   -5.871089    5.021834
    172          6           0        8.325215   -3.113581    1.922645
    173          1           0        8.246083   -2.223259    1.287451
    174          1           0        7.803294   -3.917503    1.391292
    175          6           0        9.822860   -3.448887    1.982193
    176          1           0       10.343400   -2.706089    2.597547
    177          1           0       10.233988   -3.398688    0.964776
    178          7           0       10.076774   -4.777133    2.551508
    179          1           0        9.369966   -5.511791    2.352563
    180          7           0       12.282482   -4.357572    3.179580
    181          1           0       12.966228   -4.386639    3.921614
    182          1           0       12.390198   -3.641864    2.477152
    183          7           0       11.148163   -6.210773    4.008361
    184          1           0       12.003380   -6.514876    4.451639
    185          1           0       10.268646   -6.425904    4.483860
    186          6           0       11.161583   -5.102886    3.246248
    187          8           0        9.145665   -3.800201    5.534820
    188          1           0        7.866898   -6.394817    4.418487
 ---------------------------------------------------------------------

 SCF Done:  E(RB3LYP) =  -4648.55099867     A.U. after    3 cycles

 Alpha  occ. eigenvalues --  -19.25733 -19.23019 -19.22400 -19.21891 -19.21420
 Alpha  occ. eigenvalues --  -19.21063 -19.20989 -19.20747 -19.20573 -19.20546
 Alpha  occ. eigenvalues --  -19.20303 -19.20271 -19.19762 -19.19704 -19.19492
 Alpha  occ. eigenvalues --  -19.17893 -19.16687 -14.51321 -14.49160 -14.47057
 Alpha  occ. eigenvalues --  -14.46952 -14.45775 -14.45501 -14.44744 -14.44464
 Alpha  occ. eigenvalues --  -14.44316 -14.43967 -14.43558 -14.43274 -14.43183
 Alpha  occ. eigenvalues --  -14.42079 -14.40765 -14.36403 -10.44221 -10.39580
 Alpha  occ. eigenvalues --  -10.38697 -10.38547 -10.38303 -10.37590 -10.37529
 Alpha  occ. eigenvalues --  -10.37091 -10.36743 -10.36653 -10.36555 -10.34882
 Alpha  occ. eigenvalues --  -10.34810 -10.33844 -10.32983 -10.32484 -10.32378
 Alpha  occ. eigenvalues --  -10.32225 -10.31743 -10.31255 -10.30922 -10.30795
 Alpha  occ. eigenvalues --  -10.30623 -10.30204 -10.29816 -10.29748 -10.29480
 Alpha  occ. eigenvalues --  -10.29044 -10.28902 -10.28299 -10.28291 -10.27778
 Alpha  occ. eigenvalues --  -10.27356 -10.27092 -10.26940 -10.26604 -10.26350
 Alpha  occ. eigenvalues --  -10.26114 -10.25767 -10.25678 -10.25464 -10.25308
 Alpha  occ. eigenvalues --  -10.25307 -10.25096 -10.24801 -10.24708 -10.24706
 Alpha  occ. eigenvalues --  -10.24600 -10.24467 -10.24244 -10.24174 -10.24089
 Alpha  occ. eigenvalues --  -10.23825 -10.23799 -10.23743 -10.23700 -10.23635
 Alpha  occ. eigenvalues --  -10.23608 -10.23504 -10.23332 -10.23217 -10.23022
 Alpha  occ. eigenvalues --  -10.22621 -10.22401  -1.16903  -1.14041  -1.13349
 Alpha  occ. eigenvalues --   -1.13057  -1.13012  -1.12743  -1.12444  -1.11792
 Alpha  occ. eigenvalues --   -1.11687  -1.11341  -1.11289  -1.10952  -1.10409
 Alpha  occ. eigenvalues --   -1.09500  -1.08676  -1.08487  -1.07895  -1.07027
 Alpha  occ. eigenvalues --   -1.05923  -1.04659  -1.02373  -1.02023  -1.01752
 Alpha  occ. eigenvalues --   -1.01363  -1.00995  -1.00985  -1.00555  -1.00008
 Alpha  occ. eigenvalues --   -0.99592  -0.99447  -0.98675  -0.97508  -0.91997
 Alpha  occ. eigenvalues --   -0.91640  -0.90855  -0.89919  -0.89157  -0.87968
 Alpha  occ. eigenvalues --   -0.87966  -0.87146  -0.86656  -0.86282  -0.85362
 Alpha  occ. eigenvalues --   -0.84941  -0.84458  -0.84254  -0.83498  -0.83283
 Alpha  occ. eigenvalues --   -0.80736  -0.80375  -0.80226  -0.80165  -0.80026
 Alpha  occ. eigenvalues --   -0.79747  -0.79461  -0.79186  -0.77843  -0.77719
 Alpha  occ. eigenvalues --   -0.76226  -0.75951  -0.74555  -0.74324  -0.74077
 Alpha  occ. eigenvalues --   -0.73725  -0.73462  -0.72833  -0.72491  -0.72043
 Alpha  occ. eigenvalues --   -0.70986  -0.70916  -0.70218  -0.69440  -0.68693
 Alpha  occ. eigenvalues --   -0.68348  -0.68230  -0.67758  -0.67632  -0.67429
 Alpha  occ. eigenvalues --   -0.67347  -0.66804  -0.66746  -0.66637  -0.66533
 Alpha  occ. eigenvalues --   -0.66427  -0.66312  -0.65812  -0.65684  -0.65646
 Alpha  occ. eigenvalues --   -0.65577  -0.65260  -0.64265  -0.63849  -0.63774
 Alpha  occ. eigenvalues --   -0.63429  -0.63382  -0.63361  -0.62919  -0.62742
 Alpha  occ. eigenvalues --   -0.62568  -0.62228  -0.61502  -0.61274  -0.61196
 Alpha  occ. eigenvalues --   -0.60338  -0.59813  -0.59589  -0.59149  -0.58833
 Alpha  occ. eigenvalues --   -0.58580  -0.58353  -0.58238  -0.57929  -0.57718
 Alpha  occ. eigenvalues --   -0.57621  -0.57038  -0.56798  -0.56521  -0.56133
 Alpha  occ. eigenvalues --   -0.55996  -0.55591  -0.55407  -0.55369  -0.55002
 Alpha  occ. eigenvalues --   -0.54851  -0.54517  -0.54180  -0.54073  -0.53791
 Alpha  occ. eigenvalues --   -0.53696  -0.53332  -0.53260  -0.52985  -0.52695
 Alpha  occ. eigenvalues --   -0.52606  -0.52473  -0.52220  -0.52184  -0.52076
 Alpha  occ. eigenvalues --   -0.51824  -0.51655  -0.51517  -0.51445  -0.51388
 Alpha  occ. eigenvalues --   -0.50977  -0.50881  -0.50802  -0.50537  -0.50322
 Alpha  occ. eigenvalues --   -0.50243  -0.50152  -0.49882  -0.49776  -0.49632
 Alpha  occ. eigenvalues --   -0.49501  -0.49472  -0.49390  -0.49328  -0.49094
 Alpha  occ. eigenvalues --   -0.48974  -0.48704  -0.48398  -0.48285  -0.48033
 Alpha  occ. eigenvalues --   -0.47891  -0.47637  -0.47595  -0.47503  -0.47439
 Alpha  occ. eigenvalues --   -0.47368  -0.47193  -0.47099  -0.46937  -0.46860
 Alpha  occ. eigenvalues --   -0.46652  -0.46529  -0.46260  -0.46219  -0.45997
 Alpha  occ. eigenvalues --   -0.45786  -0.45751  -0.45660  -0.45511  -0.45438
 Alpha  occ. eigenvalues --   -0.45402  -0.45272  -0.45157  -0.45075  -0.44992
 Alpha  occ. eigenvalues --   -0.44938  -0.44873  -0.44814  -0.44641  -0.44421
 Alpha  occ. eigenvalues --   -0.44177  -0.44153  -0.44023  -0.43794  -0.43651
 Alpha  occ. eigenvalues --   -0.43566  -0.43435  -0.43389  -0.43292  -0.43128
 Alpha  occ. eigenvalues --   -0.42896  -0.42867  -0.42826  -0.42752  -0.42348
 Alpha  occ. eigenvalues --   -0.42165  -0.41836  -0.41264  -0.41098  -0.40982
 Alpha  occ. eigenvalues --   -0.40326  -0.40281  -0.40194  -0.39882  -0.39871
 Alpha  occ. eigenvalues --   -0.39755  -0.39469  -0.39289  -0.39029  -0.38908
 Alpha  occ. eigenvalues --   -0.38715  -0.38160  -0.38085  -0.38052  -0.37971
 Alpha  occ. eigenvalues --   -0.37306  -0.37167  -0.36977  -0.36802  -0.36517
 Alpha  occ. eigenvalues --   -0.36207  -0.35998  -0.35538  -0.35524  -0.35259
 Alpha  occ. eigenvalues --   -0.34748  -0.34713  -0.34245  -0.34173  -0.33858
 Alpha  occ. eigenvalues --   -0.33817  -0.33727  -0.33604  -0.33469  -0.33228
 Alpha  occ. eigenvalues --   -0.32957  -0.32651  -0.32415  -0.32156  -0.32052
 Alpha  occ. eigenvalues --   -0.31652  -0.31457  -0.31251  -0.30517  -0.30384
 Alpha  occ. eigenvalues --   -0.30316  -0.29654  -0.29611  -0.27384  -0.27212
 Alpha  occ. eigenvalues --   -0.26266
 Alpha virt. eigenvalues --   -0.09485  -0.08355  -0.07978  -0.07770  -0.07359
 Alpha virt. eigenvalues --   -0.07000  -0.06752  -0.06640  -0.06061  -0.05769
 Alpha virt. eigenvalues --   -0.05669  -0.05424  -0.05346  -0.04938  -0.04908

 Mulliken charges:
               1
     1  N   -0.761406
     2  H    0.423093
     3  H    0.397792
     4  H    0.432525
     5  C   -0.114763
     6  H    0.202124
     7  C    0.653947
     8  C   -0.374114
     9  H    0.199856
    10  H    0.194469
    11  O   -0.544507
    12  C    0.643452
    13  O   -0.547642
    14  O   -0.642773
    15  N   -0.628403
    16  H    0.368710
    17  C   -0.023749
    18  H    0.189942
    19  C    0.625873
    20  C   -0.404756
    21  H    0.199003
    22  H    0.157565
    23  O   -0.538695
    24  C    0.172496
    25  C   -0.212984
    26  H    0.128830
    27  C   -0.215182
    28  H    0.154658
    29  C   -0.166969
    30  H    0.137921
    31  C   -0.188177
    32  H    0.151775
    33  O   -0.658343
    34  H    0.415861
    35  C    0.339047
    36  N   -0.607106
    37  H    0.350787
    38  C   -0.097404
    39  H    0.237649
    40  C    0.645351
    41  C   -0.345557
    42  H    0.151807
    43  H    0.164946
    44  O   -0.561923
    45  C    0.140687
    46  C   -0.194435
    47  H    0.138146
    48  C   -0.188982
    49  H    0.162927
    50  C   -0.165711
    51  H    0.143084
    52  C   -0.198259
    53  H    0.122677
    54  O   -0.641213
    55  H    0.409211
    56  C    0.350620
    57  N   -0.625010
    58  H    0.389795
    59  C   -0.052251
    60  H    0.189380
    61  C    0.638237
    62  C   -0.367240
    63  H    0.143067
    64  H    0.217247
    65  O   -0.555430
    66  C    0.158314
    67  C   -0.181429
    68  H    0.154597
    69  C   -0.182482
    70  H    0.138747
    71  C   -0.146418
    72  H    0.160995
    73  C   -0.148183
    74  H    0.149378
    75  C   -0.167463
    76  H    0.151005
    77  N   -0.601935
    78  H    0.342892
    79  C   -0.061574
    80  H    0.185775
    81  C    0.630141
    82  C   -0.464700
    83  H    0.183164
    84  H    0.157876
    85  H    0.168916
    86  O   -0.525597
    87  N   -0.642139
    88  H    0.383297
    89  C   -0.057561
    90  H    0.183836
    91  C    0.637328
    92  C   -0.274503
    93  H    0.179415
    94  H    0.162294
    95  O   -0.554560
    96  C   -0.102338
    97  H    0.129024
    98  C   -0.463043
    99  H    0.171424
   100  H    0.154611
   101  H    0.126629
   102  C   -0.449949
   103  H    0.150534
   104  H    0.147266
   105  H    0.147980
   106  N   -0.604909
   107  H    0.359913
   108  C   -0.022959
   109  H    0.157618
   110  C    0.640593
   111  C   -0.498480
   112  H    0.174926
   113  H    0.193562
   114  H    0.177590
   115  O   -0.539489
   116  N   -0.607757
   117  H    0.339161
   118  C   -0.066913
   119  H    0.211338
   120  C    0.630278
   121  C   -0.389586
   122  H    0.194174
   123  H    0.154479
   124  O   -0.561930
   125  C    0.317458
   126  C   -0.071853
   127  H    0.146971
   128  N   -0.631999
   129  H    0.373115
   130  C    0.195581
   131  H    0.192744
   132  N   -0.467146
   133  N   -0.606628
   134  H    0.384126
   135  C   -0.079047
   136  H    0.178035
   137  C    0.628274
   138  C    0.117990
   139  H    0.150854
   140  O   -0.532228
   141  C   -0.454965
   142  H    0.145935
   143  H    0.145152
   144  H    0.175095
   145  O   -0.640856
   146  H    0.417546
   147  N   -0.663737
   148  H    0.377158
   149  C   -0.028962
   150  H    0.190832
   151  C    0.598038
   152  C   -0.062720
   153  H    0.137223
   154  O   -0.566330
   155  C   -0.472718
   156  H    0.156359
   157  H    0.134545
   158  H    0.170840
   159  C   -0.475266
   160  H    0.164374
   161  H    0.172031
   162  H    0.133392
   163  N   -0.580328
   164  H    0.352415
   165  C   -0.071343
   166  H    0.178722
   167  C    0.634057
   168  C   -0.299041
   169  H    0.183116
   170  H    0.165249
   171  O   -0.650283
   172  C   -0.308680
   173  H    0.166245
   174  H    0.184364
   175  C   -0.150681
   176  H    0.169172
   177  H    0.173580
   178  N   -0.621357
   179  H    0.410310
   180  N   -0.760357
   181  H    0.374105
   182  H    0.377563
   183  N   -0.761415
   184  H    0.357151
   185  H    0.414361
   186  C    0.786103
   187  O   -0.481287
   188  H    0.474295
 Sum of Mulliken charges =   1.00000

 Dipole moment (field-independent basis, Debye):
    X=             26.4322    Y=            -11.1835    Z=              9.6789  Tot=             30.2889
 Quadrupole moment (field-independent basis, Debye-Ang):
   XX=           -215.1714   YY=           -446.6385   ZZ=           -532.6406
   XY=           -114.6104   XZ=             92.3659   YZ=            -37.9319

 Normal termination of Gaussian 16 at Tue Aug  9 20:52:57 2022.
