 Gaussian 16, Revision C.01,
 Gaussian 16:  ES64L-G16RevC.01  3-Jul-2019

 -------------------------------------------------------------------
 # B3LYP/6-31G* guess=read geom=check nosymm integral(ultrafinegrid)
 -------------------------------------------------------------------

 ------------------------------------------------------
 Candidate Structure: Conf:232 Charge calc in gas phase
 ------------------------------------------------------
 Structure from the checkpoint file:  "conf-232.chk"
 Charge =  1 Multiplicity = 1

                          Input orientation:
 ---------------------------------------------------------------------
 Center     Atomic      Atomic             Coordinates (Angstroms)
 Number     Number       Type             X           Y           Z
 ---------------------------------------------------------------------
      1          7           0       -8.410671  -10.754687   -2.546304
      2          1           0       -8.947947  -10.239740   -3.292976
      3          1           0       -7.734198  -11.395343   -3.017988
      4          1           0       -9.026922  -11.267231   -1.912407
      5          6           0       -7.614086   -9.653794   -1.890288
      6          1           0       -8.192119   -9.290284   -1.035104
      7          6           0       -7.636408   -8.520761   -2.964485
      8          6           0       -6.239944  -10.144704   -1.408173
      9          1           0       -5.654564   -9.309717   -1.016104
     10          1           0       -6.365573  -10.839897   -0.566943
     11          8           0       -8.480099   -8.619252   -3.866931
     12          6           0       -5.450382  -10.876041   -2.480900
     13          8           0       -5.972117  -11.563422   -3.348222
     14          8           0       -4.140094  -10.724140   -2.345876
     15          7           0       -6.781903   -7.525935   -2.787687
     16          1           0       -6.122603   -7.475583   -2.004174
     17          6           0       -6.742466   -6.282148   -3.552556
     18          1           0       -6.585272   -6.514850   -4.612083
     19          6           0       -5.487482   -5.562037   -2.995535
     20          6           0       -8.052808   -5.448414   -3.419604
     21          1           0       -8.815909   -5.945280   -4.025503
     22          1           0       -7.869780   -4.472122   -3.883820
     23          8           0       -4.920441   -6.011751   -1.990923
     24          6           0       -8.549230   -5.289465   -1.999222
     25          6           0       -9.583948   -6.104532   -1.514120
     26          1           0      -10.057955   -6.816179   -2.187281
     27          6           0       -7.990508   -4.351640   -1.121625
     28          1           0       -7.202318   -3.688328   -1.468221
     29          6           0      -10.037260   -6.005646   -0.201421
     30          1           0      -10.852798   -6.621563    0.165137
     31          6           0       -8.432486   -4.239023    0.195453
     32          1           0       -7.985735   -3.499815    0.857272
     33          8           0       -9.934043   -5.017740    1.938645
     34          1           0       -9.487676   -4.305881    2.423861
     35          6           0       -9.456517   -5.070348    0.663417
     36          7           0       -5.097205   -4.471230   -3.662013
     37          1           0       -5.601377   -4.109432   -4.470322
     38          6           0       -3.954616   -3.643702   -3.284805
     39          1           0       -3.960094   -3.512688   -2.198127
     40          6           0       -4.201530   -2.291936   -3.983021
     41          6           0       -2.610085   -4.312680   -3.697810
     42          1           0       -2.593744   -4.398866   -4.790911
     43          1           0       -2.647425   -5.330993   -3.292721
     44          8           0       -5.006484   -2.215274   -4.920378
     45          6           0       -1.374762   -3.591930   -3.206682
     46          6           0       -0.496006   -2.962085   -4.100883
     47          1           0       -0.705609   -2.996898   -5.168704
     48          6           0       -1.062196   -3.535866   -1.839155
     49          1           0       -1.708966   -4.035885   -1.118899
     50          6           0        0.642432   -2.301249   -3.655792
     51          1           0        1.322156   -1.821636   -4.353563
     52          6           0        0.069201   -2.869533   -1.374544
     53          1           0        0.294741   -2.837592   -0.312774
     54          8           0        2.050174   -1.582997   -1.910502
     55          1           0        2.148890   -1.547637   -0.911670
     56          6           0        0.940022   -2.237416   -2.282770
     57          7           0       -3.514442   -1.241382   -3.502571
     58          1           0       -2.771498   -1.362336   -2.816115
     59          6           0       -3.581200    0.076998   -4.113919
     60          1           0       -3.521565   -0.030647   -5.203020
     61          6           0       -2.355942    0.847055   -3.591147
     62          6           0       -4.921825    0.797314   -3.766095
     63          1           0       -5.705127    0.041098   -3.873759
     64          1           0       -4.897170    1.100843   -2.713427
     65          8           0       -1.693224    0.398090   -2.648433
     66          6           0       -5.240894    1.976131   -4.661310
     67          6           0       -5.144193    3.296647   -4.200037
     68          1           0       -4.836371    3.483545   -3.173732
     69          6           0       -5.638474    1.756126   -5.990043
     70          1           0       -5.730228    0.735079   -6.354945
     71          6           0       -5.436415    4.371476   -5.043684
     72          1           0       -5.359876    5.387881   -4.667388
     73          6           0       -5.928649    2.827818   -6.834164
     74          1           0       -6.239380    2.639537   -7.858272
     75          6           0       -5.828177    4.139385   -6.362862
     76          1           0       -6.057246    4.974302   -7.019106
     77          7           0       -2.071475    2.020017   -4.193307
     78          1           0       -2.717565    2.385300   -4.882515
     79          6           0       -0.893632    2.836249   -3.864820
     80          1           0       -0.088115    2.126102   -3.638313
     81          6           0       -1.074900    3.705986   -2.591449
     82          6           0       -0.512595    3.693016   -5.068835
     83          1           0        0.364957    4.297136   -4.833190
     84          1           0       -0.290391    3.057559   -5.931537
     85          1           0       -1.321268    4.384234   -5.330489
     86          8           0       -0.760797    4.895400   -2.575334
     87          7           0       -1.564817    3.042816   -1.509876
     88          1           0       -1.565060    2.023798   -1.547998
     89          6           0       -1.611204    3.677266   -0.188984
     90          1           0       -1.828433    4.733192   -0.363144
     91          6           0       -0.214481    3.524165    0.446468
     92          6           0       -2.693645    3.031711    0.681388
     93          1           0       -3.641826    3.065529    0.126383
     94          1           0       -2.429099    1.976053    0.818439
     95          8           0        0.102209    2.507580    1.062047
     96          6           0       -2.881493    3.679539    2.068699
     97          1           0       -1.908946    3.665278    2.578371
     98          6           0       -3.358279    5.137721    1.981982
     99          1           0       -4.313715    5.209784    1.444796
    100          1           0       -3.508933    5.554966    2.984088
    101          1           0       -2.635192    5.782725    1.470755
    102          6           0       -3.859685    2.840775    2.904844
    103          1           0       -4.854077    2.812427    2.438864
    104          1           0       -3.977301    3.260472    3.910470
    105          1           0       -3.508621    1.807512    3.011133
    106          7           0        0.630404    4.564052    0.233765
    107          1           0        0.345099    5.264814   -0.441593
    108          6           0        2.033337    4.529567    0.632021
    109          1           0        2.584107    3.845518   -0.030105
    110          6           0        2.154303    4.027143    2.087531
    111          6           0        2.626113    5.938492    0.525311
    112          1           0        3.692812    5.919908    0.768618
    113          1           0        2.118701    6.607693    1.226329
    114          1           0        2.517491    6.332914   -0.491717
    115          8           0        1.488974    4.504786    2.997599
    116          7           0        3.117473    3.082500    2.272772
    117          1           0        3.593002    2.665730    1.483327
    118          6           0        3.269853    2.392525    3.532362
    119          1           0        2.997984    3.098503    4.323793
    120          6           0        4.729164    1.951031    3.679783
    121          6           0        2.300254    1.168431    3.641387
    122          1           0        1.289240    1.567657    3.523517
    123          1           0        2.373610    0.750663    4.653945
    124          8           0        5.491164    1.874265    2.719536
    125          6           0        2.513948    0.102571    2.612452
    126          6           0        1.853865   -0.156899    1.433386
    127          1           0        1.014739    0.382989    1.019683
    128          7           0        3.509138   -0.858810    2.684720
    129          1           0        4.255433   -0.925884    3.384281
    130          6           0        3.416721   -1.629179    1.574972
    131          1           0        4.088150   -2.452984    1.377942
    132          7           0        2.420605   -1.240085    0.794741
    133          7           0        5.085089    1.568911    4.935542
    134          1           0        4.504201    1.798455    5.733633
    135          6           0        6.407342    1.072910    5.255077
    136          1           0        7.159931    1.854266    5.068714
    137          6           0        6.742067   -0.173689    4.408469
    138          6           0        6.415844    0.681040    6.763132
    139          1           0        5.842189   -0.246628    6.856862
    140          8           0        5.903714   -1.062404    4.221666
    141          6           0        7.823432    0.493349    7.320004
    142          1           0        8.391703   -0.253315    6.757234
    143          1           0        8.386166    1.436066    7.276757
    144          1           0        7.768214    0.175736    8.365228
    145          8           0        5.674953    1.632219    7.531943
    146          1           0        6.218666    2.432681    7.624420
    147          7           0        8.012870   -0.243856    3.974884
    148          1           0        8.688267    0.465557    4.239987
    149          6           0        8.608063   -1.403248    3.318388
    150          1           0        7.930871   -2.249661    3.467662
    151          6           0        9.951162   -1.630444    4.039159
    152          6           0        8.809118   -1.159696    1.792469
    153          1           0        9.511256   -0.317898    1.702959
    154          8           0       10.593191   -0.658291    4.460331
    155          6           0        9.425803   -2.383010    1.095764
    156          1           0        8.772636   -3.260638    1.188548
    157          1           0       10.405885   -2.656224    1.497026
    158          1           0        9.548214   -2.180239    0.026249
    159          6           0        7.488739   -0.765217    1.115319
    160          1           0        6.758095   -1.580924    1.181496
    161          1           0        7.661557   -0.561305    0.052341
    162          1           0        7.040825    0.126123    1.562150
    163          7           0       10.354208   -2.904511    4.178963
    164          1           0        9.893013   -3.682240    3.704994
    165          6           0       11.684663   -3.266059    4.644210
    166          1           0       12.409884   -2.620946    4.128913
    167          6           0       11.946734   -4.728316    4.149701
    168          6           0       11.856229   -3.053353    6.182780
    169          1           0       10.911708   -2.651716    6.558467
    170          1           0       12.001471   -4.018601    6.684940
    171          8           0       13.091582   -5.215772    4.479147
    172          6           0       12.978721   -2.066447    6.575688
    173          1           0       12.736030   -1.600606    7.538818
    174          1           0       13.003710   -1.257458    5.837076
    175          6           0       14.379461   -2.688675    6.735446
    176          1           0       14.425761   -3.266384    7.667866
    177          1           0       15.128782   -1.890773    6.812757
    178          7           0       14.694710   -3.585240    5.630243
    179          1           0       13.923802   -4.280693    5.292995
    180          7           0       16.925648   -2.978791    5.151007
    181          1           0       17.523373   -2.718391    4.379058
    182          1           0       16.960190   -2.369433    5.954540
    183          7           0       15.708907   -4.365840    3.731015
    184          1           0       16.560705   -4.801777    3.405163
    185          1           0       14.838901   -4.897249    3.607832
    186          6           0       15.763490   -3.626962    4.868092
    187          8           0       11.070517   -5.278000    3.477649
    188          1           0       -3.689244  -11.255918   -3.032872
 ---------------------------------------------------------------------

 SCF Done:  E(RB3LYP) =  -4648.50633710     A.U. after    3 cycles

 Alpha  occ. eigenvalues --  -19.33567 -19.28839 -19.25531 -19.24864 -19.20920
 Alpha  occ. eigenvalues --  -19.20732 -19.18491 -19.18400 -19.16709 -19.16213
 Alpha  occ. eigenvalues --  -19.16190 -19.15939 -19.15010 -19.14886 -19.13661
 Alpha  occ. eigenvalues --  -19.12807 -19.11685 -14.57762 -14.48115 -14.44715
 Alpha  occ. eigenvalues --  -14.44157 -14.42484 -14.42276 -14.41946 -14.41655
 Alpha  occ. eigenvalues --  -14.40422 -14.40284 -14.40239 -14.39685 -14.39380
 Alpha  occ. eigenvalues --  -14.38473 -14.38262 -14.35007 -10.47089 -10.42614
 Alpha  occ. eigenvalues --  -10.40763 -10.39494 -10.37855 -10.35936 -10.35383
 Alpha  occ. eigenvalues --  -10.35331 -10.33697 -10.33508 -10.33095 -10.32789
 Alpha  occ. eigenvalues --  -10.32329 -10.31825 -10.31745 -10.31289 -10.30278
 Alpha  occ. eigenvalues --  -10.30125 -10.29878 -10.29719 -10.28928 -10.28761
 Alpha  occ. eigenvalues --  -10.28239 -10.28119 -10.26955 -10.26944 -10.26842
 Alpha  occ. eigenvalues --  -10.26810 -10.26759 -10.26633 -10.26615 -10.26603
 Alpha  occ. eigenvalues --  -10.26573 -10.26292 -10.26026 -10.25203 -10.25142
 Alpha  occ. eigenvalues --  -10.25057 -10.24769 -10.24086 -10.24043 -10.24038
 Alpha  occ. eigenvalues --  -10.23999 -10.23963 -10.23878 -10.23502 -10.23187
 Alpha  occ. eigenvalues --  -10.23037 -10.22808 -10.22629 -10.22525 -10.22266
 Alpha  occ. eigenvalues --  -10.22157 -10.22030 -10.22018 -10.21894 -10.21855
 Alpha  occ. eigenvalues --  -10.21662 -10.20879 -10.20668 -10.20414 -10.20290
 Alpha  occ. eigenvalues --  -10.20250 -10.19392  -1.25054  -1.18009  -1.16176
 Alpha  occ. eigenvalues --   -1.12993  -1.12899  -1.12038  -1.10678  -1.09894
 Alpha  occ. eigenvalues --   -1.08741  -1.08203  -1.07918  -1.07787  -1.07435
 Alpha  occ. eigenvalues --   -1.06908  -1.06501  -1.05482  -1.05423  -1.05333
 Alpha  occ. eigenvalues --   -1.04956  -1.03520  -1.00770  -0.98912  -0.98571
 Alpha  occ. eigenvalues --   -0.98187  -0.96825  -0.96718  -0.96602  -0.96318
 Alpha  occ. eigenvalues --   -0.96147  -0.95612  -0.95253  -0.94655  -0.94384
 Alpha  occ. eigenvalues --   -0.92884  -0.90738  -0.89313  -0.88626  -0.87798
 Alpha  occ. eigenvalues --   -0.85442  -0.84447  -0.84361  -0.84281  -0.83786
 Alpha  occ. eigenvalues --   -0.83445  -0.82862  -0.82228  -0.82065  -0.81769
 Alpha  occ. eigenvalues --   -0.81117  -0.80419  -0.79403  -0.78735  -0.78302
 Alpha  occ. eigenvalues --   -0.77561  -0.77220  -0.77105  -0.76726  -0.76048
 Alpha  occ. eigenvalues --   -0.75475  -0.75199  -0.73639  -0.73475  -0.72190
 Alpha  occ. eigenvalues --   -0.71563  -0.71386  -0.71215  -0.70675  -0.70634
 Alpha  occ. eigenvalues --   -0.70325  -0.70079  -0.69760  -0.69538  -0.68983
 Alpha  occ. eigenvalues --   -0.68636  -0.67215  -0.66991  -0.66606  -0.66311
 Alpha  occ. eigenvalues --   -0.65645  -0.65482  -0.65369  -0.64995  -0.64899
 Alpha  occ. eigenvalues --   -0.64642  -0.64533  -0.64215  -0.63881  -0.63448
 Alpha  occ. eigenvalues --   -0.62832  -0.62671  -0.62278  -0.62246  -0.61888
 Alpha  occ. eigenvalues --   -0.61756  -0.61655  -0.61455  -0.61204  -0.61161
 Alpha  occ. eigenvalues --   -0.60717  -0.60641  -0.60404  -0.60368  -0.59486
 Alpha  occ. eigenvalues --   -0.59009  -0.58702  -0.58165  -0.58054  -0.57494
 Alpha  occ. eigenvalues --   -0.57443  -0.56739  -0.56354  -0.56173  -0.56113
 Alpha  occ. eigenvalues --   -0.55837  -0.55575  -0.55216  -0.55179  -0.55111
 Alpha  occ. eigenvalues --   -0.54817  -0.54418  -0.54276  -0.54124  -0.54014
 Alpha  occ. eigenvalues --   -0.53922  -0.53438  -0.53306  -0.52881  -0.52614
 Alpha  occ. eigenvalues --   -0.52409  -0.51948  -0.51845  -0.51744  -0.51506
 Alpha  occ. eigenvalues --   -0.51444  -0.50900  -0.50771  -0.50627  -0.50519
 Alpha  occ. eigenvalues --   -0.50468  -0.50165  -0.50092  -0.50012  -0.49727
 Alpha  occ. eigenvalues --   -0.49643  -0.49583  -0.49455  -0.49158  -0.48942
 Alpha  occ. eigenvalues --   -0.48810  -0.48709  -0.48433  -0.48368  -0.48046
 Alpha  occ. eigenvalues --   -0.47720  -0.47572  -0.47510  -0.47255  -0.47088
 Alpha  occ. eigenvalues --   -0.46903  -0.46759  -0.46676  -0.46569  -0.46477
 Alpha  occ. eigenvalues --   -0.46300  -0.46238  -0.45980  -0.45880  -0.45852
 Alpha  occ. eigenvalues --   -0.45649  -0.45266  -0.44958  -0.44841  -0.44736
 Alpha  occ. eigenvalues --   -0.44692  -0.44643  -0.44421  -0.44315  -0.44053
 Alpha  occ. eigenvalues --   -0.43962  -0.43912  -0.43783  -0.43416  -0.43205
 Alpha  occ. eigenvalues --   -0.43140  -0.42884  -0.42776  -0.42756  -0.42666
 Alpha  occ. eigenvalues --   -0.42660  -0.42588  -0.42345  -0.42258  -0.42142
 Alpha  occ. eigenvalues --   -0.41960  -0.41867  -0.41737  -0.41628  -0.41357
 Alpha  occ. eigenvalues --   -0.41267  -0.41211  -0.41124  -0.41032  -0.40882
 Alpha  occ. eigenvalues --   -0.40686  -0.40511  -0.40476  -0.40213  -0.40176
 Alpha  occ. eigenvalues --   -0.40027  -0.39983  -0.39870  -0.39834  -0.39387
 Alpha  occ. eigenvalues --   -0.39197  -0.39085  -0.39055  -0.38859  -0.38796
 Alpha  occ. eigenvalues --   -0.38237  -0.38041  -0.37995  -0.37821  -0.37645
 Alpha  occ. eigenvalues --   -0.36504  -0.36232  -0.36034  -0.35904  -0.35777
 Alpha  occ. eigenvalues --   -0.35538  -0.35458  -0.35335  -0.35299  -0.35069
 Alpha  occ. eigenvalues --   -0.33824  -0.33771  -0.33656  -0.32763  -0.32685
 Alpha  occ. eigenvalues --   -0.32107  -0.31984  -0.31867  -0.31257  -0.31152
 Alpha  occ. eigenvalues --   -0.30611  -0.30477  -0.30238  -0.30100  -0.29884
 Alpha  occ. eigenvalues --   -0.29685  -0.29400  -0.29335  -0.29194  -0.28863
 Alpha  occ. eigenvalues --   -0.28779  -0.28582  -0.28014  -0.27964  -0.27844
 Alpha  occ. eigenvalues --   -0.27421  -0.27232  -0.27071  -0.25818  -0.24654
 Alpha  occ. eigenvalues --   -0.23408
 Alpha virt. eigenvalues --   -0.13734  -0.11555  -0.08394  -0.07801  -0.06961
 Alpha virt. eigenvalues --   -0.06131  -0.05910  -0.05225  -0.04508  -0.04384
 Alpha virt. eigenvalues --   -0.04139  -0.03916  -0.03462  -0.03023  -0.02926

 Mulliken charges:
               1
     1  N   -0.764874
     2  H    0.429931
     3  H    0.437609
     4  H    0.405924
     5  C   -0.131105
     6  H    0.240200
     7  C    0.679531
     8  C   -0.400502
     9  H    0.242025
    10  H    0.225506
    11  O   -0.546674
    12  C    0.625887
    13  O   -0.478870
    14  O   -0.520872
    15  N   -0.630279
    16  H    0.381747
    17  C   -0.038083
    18  H    0.193661
    19  C    0.640190
    20  C   -0.390822
    21  H    0.188122
    22  H    0.178798
    23  O   -0.558314
    24  C    0.166171
    25  C   -0.215602
    26  H    0.130289
    27  C   -0.183044
    28  H    0.143706
    29  C   -0.166986
    30  H    0.144604
    31  C   -0.190528
    32  H    0.138427
    33  O   -0.634369
    34  H    0.416772
    35  C    0.355455
    36  N   -0.629186
    37  H    0.363879
    38  C   -0.051735
    39  H    0.182607
    40  C    0.624123
    41  C   -0.349701
    42  H    0.149445
    43  H    0.170140
    44  O   -0.559761
    45  C    0.137033
    46  C   -0.194004
    47  H    0.114882
    48  C   -0.208449
    49  H    0.119949
    50  C   -0.161038
    51  H    0.130660
    52  C   -0.195119
    53  H    0.147865
    54  O   -0.685733
    55  H    0.458492
    56  C    0.367020
    57  N   -0.627124
    58  H    0.384589
    59  C   -0.038332
    60  H    0.184272
    61  C    0.621612
    62  C   -0.353776
    63  H    0.186260
    64  H    0.157838
    65  O   -0.546647
    66  C    0.127760
    67  C   -0.200059
    68  H    0.142040
    69  C   -0.188210
    70  H    0.150080
    71  C   -0.129350
    72  H    0.146296
    73  C   -0.128552
    74  H    0.141592
    75  C   -0.129601
    76  H    0.143342
    77  N   -0.601954
    78  H    0.353797
    79  C   -0.069700
    80  H    0.203522
    81  C    0.617650
    82  C   -0.463712
    83  H    0.186582
    84  H    0.155504
    85  H    0.163557
    86  O   -0.534300
    87  N   -0.628968
    88  H    0.380107
    89  C   -0.062976
    90  H    0.168788
    91  C    0.649519
    92  C   -0.265225
    93  H    0.124449
    94  H    0.152466
    95  O   -0.541714
    96  C   -0.084924
    97  H    0.165419
    98  C   -0.448925
    99  H    0.133488
   100  H    0.149642
   101  H    0.147881
   102  C   -0.444879
   103  H    0.130810
   104  H    0.145943
   105  H    0.142367
   106  N   -0.605798
   107  H    0.353899
   108  C   -0.013773
   109  H    0.147336
   110  C    0.652344
   111  C   -0.481321
   112  H    0.166921
   113  H    0.184376
   114  H    0.157105
   115  O   -0.540067
   116  N   -0.600230
   117  H    0.346962
   118  C   -0.066018
   119  H    0.180874
   120  C    0.630804
   121  C   -0.356351
   122  H    0.206733
   123  H    0.148564
   124  O   -0.531327
   125  C    0.294740
   126  C   -0.071097
   127  H    0.181260
   128  N   -0.627433
   129  H    0.402653
   130  C    0.223941
   131  H    0.165104
   132  N   -0.505516
   133  N   -0.629497
   134  H    0.351393
   135  C   -0.034002
   136  H    0.144573
   137  C    0.658252
   138  C    0.106636
   139  H    0.174301
   140  O   -0.570602
   141  C   -0.484258
   142  H    0.176816
   143  H    0.142606
   144  H    0.173886
   145  O   -0.623049
   146  H    0.396156
   147  N   -0.591641
   148  H    0.349745
   149  C   -0.058669
   150  H    0.171965
   151  C    0.617590
   152  C   -0.071066
   153  H    0.135300
   154  O   -0.570654
   155  C   -0.463225
   156  H    0.148809
   157  H    0.159669
   158  H    0.150678
   159  C   -0.467407
   160  H    0.138120
   161  H    0.143306
   162  H    0.192202
   163  N   -0.617037
   164  H    0.360754
   165  C   -0.048126
   166  H    0.155256
   167  C    0.603340
   168  C   -0.291911
   169  H    0.165292
   170  H    0.158187
   171  O   -0.646275
   172  C   -0.275077
   173  H    0.145911
   174  H    0.175909
   175  C   -0.155142
   176  H    0.174531
   177  H    0.135651
   178  N   -0.614323
   179  H    0.444464
   180  N   -0.755516
   181  H    0.361646
   182  H    0.363216
   183  N   -0.775489
   184  H    0.348724
   185  H    0.402185
   186  C    0.744607
   187  O   -0.532768
   188  H    0.446132
 Sum of Mulliken charges =   1.00000

 Dipole moment (field-independent basis, Debye):
    X=             -7.7371    Y=            -31.7605    Z=             -0.7092  Tot=             32.6970
 Quadrupole moment (field-independent basis, Debye-Ang):
   XX=             71.6295   YY=           -191.9470   ZZ=           -452.8973
   XY=            260.3212   XZ=            200.9400   YZ=             57.3160

 Normal termination of Gaussian 16 at Tue Aug  9 20:50:23 2022.
