 Gaussian 16, Revision C.01,
 Gaussian 16:  ES64L-G16RevC.01  3-Jul-2019

 -------------------------------------------------------------------
 # B3LYP/6-31G* guess=read geom=check nosymm integral(ultrafinegrid)
 -------------------------------------------------------------------

 ------------------------------------------------------
 Candidate Structure: Conf:997 Charge calc in gas phase
 ------------------------------------------------------
 Structure from the checkpoint file:  "conf-997.chk"
 Charge =  1 Multiplicity = 1

                          Input orientation:
 ---------------------------------------------------------------------
 Center     Atomic      Atomic             Coordinates (Angstroms)
 Number     Number       Type             X           Y           Z
 ---------------------------------------------------------------------
      1          7           0       -6.420101   -0.885219  -13.485594
      2          1           0       -7.227449   -0.441839  -13.935706
      3          1           0       -5.725663   -0.125189  -13.219219
      4          1           0       -6.007535   -1.553737  -14.142919
      5          6           0       -6.752407   -1.482995  -12.132408
      6          1           0       -7.823790   -1.682385  -12.086389
      7          6           0       -6.316471   -0.348213  -11.154422
      8          6           0       -5.936042   -2.779471  -11.928743
      9          1           0       -6.352426   -3.575014  -12.558846
     10          1           0       -4.888241   -2.619874  -12.199314
     11          8           0       -5.512473    0.488490  -11.586678
     12          6           0       -5.945017   -3.235712  -10.468565
     13          8           0       -4.947887   -3.432877   -9.823633
     14          8           0       -7.207505   -3.331002  -10.000359
     15          7           0       -6.834342   -0.412432   -9.932109
     16          1           0       -7.442056   -1.195469   -9.695303
     17          6           0       -6.332108    0.285373   -8.743786
     18          1           0       -5.357629    0.715367   -8.987543
     19          6           0       -6.197907   -0.819988   -7.670515
     20          6           0       -7.314128    1.410312   -8.302556
     21          1           0       -8.314335    0.969690   -8.220242
     22          1           0       -7.347566    2.142940   -9.117719
     23          8           0       -6.975240   -1.790289   -7.691682
     24          6           0       -6.923306    2.059251   -6.993535
     25          6           0       -7.567136    1.700308   -5.799738
     26          1           0       -8.401110    1.002554   -5.828963
     27          6           0       -5.870178    2.980267   -6.923648
     28          1           0       -5.367022    3.301119   -7.833822
     29          6           0       -7.160279    2.214947   -4.573837
     30          1           0       -7.663119    1.940054   -3.652163
     31          6           0       -5.446735    3.501218   -5.701642
     32          1           0       -4.621916    4.209572   -5.667766
     33          8           0       -5.700353    3.545682   -3.286672
     34          1           0       -4.955343    4.161562   -3.371783
     35          6           0       -6.081147    3.104588   -4.519380
     36          7           0       -5.240315   -0.641187   -6.758815
     37          1           0       -4.697093    0.220386   -6.722061
     38          6           0       -5.096279   -1.474049   -5.569917
     39          1           0       -6.096074   -1.742476   -5.213872
     40          6           0       -4.385096   -0.579042   -4.537607
     41          6           0       -4.307213   -2.784819   -5.867642
     42          1           0       -3.258922   -2.528073   -6.058505
     43          1           0       -4.711307   -3.186348   -6.803254
     44          8           0       -3.765844    0.426452   -4.912614
     45          6           0       -4.416938   -3.814255   -4.763060
     46          6           0       -3.354611   -4.067351   -3.880768
     47          1           0       -2.419299   -3.525082   -3.997596
     48          6           0       -5.603966   -4.539006   -4.582953
     49          1           0       -6.442026   -4.373775   -5.257366
     50          6           0       -3.465477   -5.002742   -2.856695
     51          1           0       -2.641400   -5.193484   -2.177279
     52          6           0       -5.732057   -5.479594   -3.562235
     53          1           0       -6.660599   -6.034945   -3.445426
     54          8           0       -4.711994   -6.619428   -1.676890
     55          1           0       -5.577359   -7.057966   -1.671877
     56          6           0       -4.659156   -5.716426   -2.693457
     57          7           0       -4.485557   -0.946676   -3.246877
     58          1           0       -4.887388   -1.849488   -3.022304
     59          6           0       -3.890399   -0.160886   -2.153457
     60          1           0       -3.954075    0.885434   -2.465957
     61          6           0       -2.400362   -0.547498   -1.990988
     62          6           0       -4.691939   -0.368540   -0.859641
     63          1           0       -5.755779   -0.312921   -1.123042
     64          1           0       -4.491486   -1.376071   -0.481074
     65          8           0       -2.010338   -1.306893   -1.102789
     66          6           0       -4.379321    0.660649    0.210120
     67          6           0       -3.658064    0.309968    1.357227
     68          1           0       -3.298675   -0.708964    1.469996
     69          6           0       -4.825889    1.983143    0.070590
     70          1           0       -5.390957    2.274778   -0.813194
     71          6           0       -3.395629    1.256926    2.349791
     72          1           0       -2.842793    0.966378    3.238724
     73          6           0       -4.557912    2.931709    1.057760
     74          1           0       -4.915840    3.951003    0.938556
     75          6           0       -3.843739    2.570547    2.202401
     76          1           0       -3.641592    3.306152    2.975847
     77          7           0       -1.580476   -0.011846   -2.928449
     78          1           0       -2.007529    0.530683   -3.674061
     79          6           0       -0.177934   -0.420962   -3.079316
     80          1           0       -0.123841   -1.475232   -2.781268
     81          6           0        0.742115    0.376663   -2.122238
     82          6           0        0.263215   -0.255619   -4.530043
     83          1           0        1.288183   -0.612607   -4.655723
     84          1           0       -0.393051   -0.826665   -5.195209
     85          1           0        0.248281    0.798327   -4.822797
     86          8           0        1.564462    1.195232   -2.545017
     87          7           0        0.575357    0.093098   -0.811100
     88          1           0       -0.151616   -0.568344   -0.544750
     89          6           0        1.297165    0.836010    0.226034
     90          1           0        1.377757    1.867660   -0.130636
     91          6           0        2.727457    0.266321    0.364100
     92          6           0        0.568163    0.799242    1.572242
     93          1           0       -0.498085    0.995985    1.399923
     94          1           0        0.659723   -0.214351    1.979463
     95          8           0        3.011460   -0.620531    1.172333
     96          6           0        1.130186    1.823029    2.585133
     97          1           0        2.227253    1.768626    2.560087
     98          6           0        0.729070    3.266977    2.244552
     99          1           0       -0.358179    3.398937    2.329620
    100          1           0        1.226158    3.956507    2.932633
    101          1           0        1.014413    3.551266    1.222732
    102          6           0        0.710447    1.478061    4.020081
    103          1           0       -0.378056    1.559625    4.147184
    104          1           0        1.195272    2.165598    4.719654
    105          1           0        1.003436    0.455098    4.285718
    106          7           0        3.643638    0.839386   -0.461029
    107          1           0        3.277203    1.383296   -1.238830
    108          6           0        5.042990    0.399970   -0.492773
    109          1           0        5.055686   -0.689413   -0.369212
    110          6           0        5.779709    1.029287    0.718050
    111          6           0        5.692040    0.780764   -1.817940
    112          1           0        6.723625    0.419498   -1.853736
    113          1           0        5.711769    1.866966   -1.949802
    114          1           0        5.138607    0.334749   -2.650175
    115          8           0        6.485248    2.048149    0.604663
    116          7           0        5.557768    0.396090    1.875713
    117          1           0        4.842836   -0.331397    1.842269
    118          6           0        5.953136    0.854467    3.205948
    119          1           0        5.405774    1.768615    3.458524
    120          6           0        7.460240    1.131955    3.296587
    121          6           0        5.539223   -0.270210    4.201070
    122          1           0        6.002097   -1.202860    3.858449
    123          1           0        4.450876   -0.392153    4.095219
    124          8           0        8.277781    0.474302    2.639432
    125          6           0        5.918812   -0.072295    5.632458
    126          6           0        6.627430   -0.889624    6.486443
    127          1           0        7.068743   -1.852668    6.259898
    128          7           0        5.544841    1.012473    6.405052
    129          1           0        5.150682    1.898915    6.055609
    130          6           0        6.062709    0.804894    7.648376
    131          1           0        5.942474    1.527090    8.444950
    132          7           0        6.711820   -0.340013    7.743912
    133          7           0        7.771809    2.121605    4.165820
    134          1           0        6.973112    2.593116    4.604811
    135          6           0        9.067602    2.359263    4.838335
    136          1           0        9.153293    1.674160    5.688696
    137          6           0        8.956702    3.765894    5.457534
    138          6           0       10.346198    2.217682    3.939891
    139          1           0       11.043289    3.002364    4.251972
    140          8           0        8.759878    3.938543    6.651064
    141          6           0       11.044949    0.867894    4.108358
    142          1           0       11.355293    0.725884    5.149696
    143          1           0       10.384061    0.044772    3.824933
    144          1           0       11.937909    0.838590    3.475541
    145          8           0       10.060435    2.495199    2.564384
    146          1           0        9.499787    1.726697    2.296455
    147          7           0        9.057603    4.788269    4.550261
    148          1           0        9.126677    4.520305    3.575119
    149          6           0        8.642869    6.155865    4.876017
    150          1           0        8.370084    6.119846    5.935937
    151          6           0        7.374151    6.439484    4.025356
    152          6           0        9.753526    7.208712    4.688956
    153          1           0        9.945147    7.308319    3.611176
    154          8           0        7.421941    7.220201    3.055100
    155          6           0        9.285804    8.576169    5.212737
    156          1           0        9.068233    8.527259    6.287569
    157          1           0        8.389311    8.921351    4.691403
    158          1           0       10.070461    9.327563    5.070150
    159          6           0       11.051515    6.776093    5.385110
    160          1           0       10.893341    6.633399    6.460954
    161          1           0       11.823395    7.543635    5.258744
    162          1           0       11.438659    5.836267    4.979629
    163          7           0        6.316065    5.710083    4.404935
    164          1           0        6.458297    5.052536    5.174029
    165          6           0        4.997204    5.447622    3.801824
    166          1           0        4.322950    6.289670    3.995423
    167          6           0        4.427600    4.173289    4.534672
    168          6           0        5.004126    5.100787    2.297524
    169          1           0        5.785550    4.345644    2.156313
    170          1           0        4.050398    4.599196    2.104144
    171          8           0        3.234517    3.911940    4.351748
    172          6           0        5.190500    6.264372    1.306843
    173          1           0        5.837319    7.019489    1.751041
    174          1           0        4.226704    6.750048    1.108025
    175          6           0        5.775051    5.826305   -0.057415
    176          1           0        6.223735    6.680268   -0.575644
    177          1           0        4.988359    5.430365   -0.707150
    178          7           0        6.775563    4.752736    0.012311
    179          1           0        6.424161    3.792213    0.008202
    180          7           0        8.591984    6.023555    0.764601
    181          1           0        9.594262    6.032260    0.902952
    182          1           0        8.070118    6.630436    1.410042
    183          7           0        8.846487    3.759676    0.254874
    184          1           0        9.554931    3.618454    0.977751
    185          1           0        8.349272    2.898624    0.037477
    186          6           0        8.053976    4.850295    0.371376
    187          8           0        5.294540    3.498137    5.196775
    188          1           0       -7.160846   -3.341960   -9.015329
 ---------------------------------------------------------------------

 SCF Done:  E(RB3LYP) =  -4648.47899812     A.U. after    3 cycles

 Alpha  occ. eigenvalues --  -19.32195 -19.28775 -19.27227 -19.26257 -19.24711
 Alpha  occ. eigenvalues --  -19.23821 -19.22033 -19.19293 -19.18303 -19.17990
 Alpha  occ. eigenvalues --  -19.17691 -19.17079 -19.15815 -19.15650 -19.14815
 Alpha  occ. eigenvalues --  -19.11918 -19.10373 -14.62586 -14.51261 -14.47053
 Alpha  occ. eigenvalues --  -14.45899 -14.43220 -14.43106 -14.42622 -14.41869
 Alpha  occ. eigenvalues --  -14.41239 -14.41135 -14.40688 -14.39443 -14.39400
 Alpha  occ. eigenvalues --  -14.38528 -14.37094 -14.30420 -10.45827 -10.45604
 Alpha  occ. eigenvalues --  -10.43510 -10.40774 -10.39177 -10.38871 -10.37006
 Alpha  occ. eigenvalues --  -10.36237 -10.36130 -10.34457 -10.34394 -10.33663
 Alpha  occ. eigenvalues --  -10.33543 -10.33519 -10.32837 -10.32517 -10.32310
 Alpha  occ. eigenvalues --  -10.31829 -10.31398 -10.30424 -10.30179 -10.29082
 Alpha  occ. eigenvalues --  -10.28956 -10.28313 -10.28261 -10.28219 -10.28133
 Alpha  occ. eigenvalues --  -10.27887 -10.27874 -10.27676 -10.27589 -10.27127
 Alpha  occ. eigenvalues --  -10.27041 -10.27025 -10.26973 -10.26670 -10.26548
 Alpha  occ. eigenvalues --  -10.26499 -10.26060 -10.25968 -10.25696 -10.24859
 Alpha  occ. eigenvalues --  -10.24839 -10.24819 -10.23916 -10.23771 -10.23694
 Alpha  occ. eigenvalues --  -10.23504 -10.23476 -10.23418 -10.23062 -10.22981
 Alpha  occ. eigenvalues --  -10.22194 -10.21832 -10.21775 -10.21593 -10.21567
 Alpha  occ. eigenvalues --  -10.20997 -10.20027 -10.19841 -10.19694 -10.19402
 Alpha  occ. eigenvalues --  -10.18806 -10.18441  -1.23381  -1.21227  -1.16281
 Alpha  occ. eigenvalues --   -1.15440  -1.14780  -1.14237  -1.13710  -1.12900
 Alpha  occ. eigenvalues --   -1.10954  -1.09527  -1.09139  -1.08361  -1.08071
 Alpha  occ. eigenvalues --   -1.07774  -1.07715  -1.06995  -1.06408  -1.04972
 Alpha  occ. eigenvalues --   -1.04272  -1.03697  -1.02088  -1.00193  -0.99575
 Alpha  occ. eigenvalues --   -0.97992  -0.97638  -0.97318  -0.96937  -0.96703
 Alpha  occ. eigenvalues --   -0.96317  -0.95881  -0.95578  -0.95417  -0.94453
 Alpha  occ. eigenvalues --   -0.93936  -0.93128  -0.90637  -0.90409  -0.87865
 Alpha  occ. eigenvalues --   -0.85998  -0.85717  -0.85709  -0.84621  -0.83673
 Alpha  occ. eigenvalues --   -0.83471  -0.83265  -0.83177  -0.83023  -0.82814
 Alpha  occ. eigenvalues --   -0.82248  -0.81556  -0.81420  -0.80143  -0.79020
 Alpha  occ. eigenvalues --   -0.78887  -0.78233  -0.77910  -0.77322  -0.76678
 Alpha  occ. eigenvalues --   -0.76156  -0.75662  -0.75235  -0.74689  -0.73407
 Alpha  occ. eigenvalues --   -0.72983  -0.72886  -0.72702  -0.71186  -0.71129
 Alpha  occ. eigenvalues --   -0.70961  -0.70721  -0.70532  -0.70018  -0.69703
 Alpha  occ. eigenvalues --   -0.69594  -0.68908  -0.68893  -0.68256  -0.68071
 Alpha  occ. eigenvalues --   -0.67793  -0.67391  -0.66326  -0.65946  -0.65445
 Alpha  occ. eigenvalues --   -0.65173  -0.65108  -0.64897  -0.64243  -0.64076
 Alpha  occ. eigenvalues --   -0.63868  -0.63108  -0.62998  -0.62735  -0.62510
 Alpha  occ. eigenvalues --   -0.61888  -0.61860  -0.61859  -0.61710  -0.60729
 Alpha  occ. eigenvalues --   -0.60617  -0.60595  -0.60261  -0.59972  -0.59806
 Alpha  occ. eigenvalues --   -0.59725  -0.59043  -0.58842  -0.58419  -0.58373
 Alpha  occ. eigenvalues --   -0.58240  -0.58168  -0.57586  -0.57317  -0.56955
 Alpha  occ. eigenvalues --   -0.56793  -0.56536  -0.56470  -0.56280  -0.55956
 Alpha  occ. eigenvalues --   -0.55913  -0.55582  -0.55390  -0.55302  -0.55222
 Alpha  occ. eigenvalues --   -0.54981  -0.54646  -0.54238  -0.54120  -0.53824
 Alpha  occ. eigenvalues --   -0.53697  -0.53509  -0.53073  -0.52870  -0.52724
 Alpha  occ. eigenvalues --   -0.52599  -0.52261  -0.52190  -0.52048  -0.52008
 Alpha  occ. eigenvalues --   -0.51350  -0.51329  -0.51188  -0.50965  -0.50949
 Alpha  occ. eigenvalues --   -0.50817  -0.50635  -0.50304  -0.50113  -0.49947
 Alpha  occ. eigenvalues --   -0.49556  -0.49307  -0.48901  -0.48783  -0.48741
 Alpha  occ. eigenvalues --   -0.48615  -0.48146  -0.48053  -0.47901  -0.47803
 Alpha  occ. eigenvalues --   -0.47627  -0.47469  -0.47369  -0.47107  -0.47052
 Alpha  occ. eigenvalues --   -0.46893  -0.46787  -0.46495  -0.46467  -0.46307
 Alpha  occ. eigenvalues --   -0.46273  -0.46119  -0.45796  -0.45631  -0.45531
 Alpha  occ. eigenvalues --   -0.45345  -0.45306  -0.45073  -0.45037  -0.45003
 Alpha  occ. eigenvalues --   -0.44843  -0.44666  -0.44528  -0.44456  -0.44295
 Alpha  occ. eigenvalues --   -0.43997  -0.43834  -0.43772  -0.43391  -0.43339
 Alpha  occ. eigenvalues --   -0.43299  -0.43194  -0.43056  -0.42896  -0.42706
 Alpha  occ. eigenvalues --   -0.42449  -0.42380  -0.42366  -0.41975  -0.41800
 Alpha  occ. eigenvalues --   -0.41687  -0.41486  -0.41285  -0.41199  -0.41022
 Alpha  occ. eigenvalues --   -0.40866  -0.40799  -0.40752  -0.40640  -0.40587
 Alpha  occ. eigenvalues --   -0.40453  -0.40291  -0.40237  -0.40172  -0.39959
 Alpha  occ. eigenvalues --   -0.39838  -0.39789  -0.39506  -0.39378  -0.39148
 Alpha  occ. eigenvalues --   -0.38673  -0.38548  -0.38164  -0.37937  -0.37781
 Alpha  occ. eigenvalues --   -0.37604  -0.37416  -0.36984  -0.36941  -0.36378
 Alpha  occ. eigenvalues --   -0.36330  -0.35982  -0.35813  -0.35706  -0.34869
 Alpha  occ. eigenvalues --   -0.34656  -0.34574  -0.34421  -0.34347  -0.33868
 Alpha  occ. eigenvalues --   -0.33347  -0.32900  -0.32819  -0.32697  -0.32231
 Alpha  occ. eigenvalues --   -0.31681  -0.31440  -0.30879  -0.30567  -0.30435
 Alpha  occ. eigenvalues --   -0.29772  -0.29599  -0.29536  -0.29330  -0.29203
 Alpha  occ. eigenvalues --   -0.29153  -0.29085  -0.28589  -0.27769  -0.27434
 Alpha  occ. eigenvalues --   -0.27263  -0.26782  -0.26603  -0.25849  -0.24296
 Alpha  occ. eigenvalues --   -0.22075
 Alpha virt. eigenvalues --   -0.14564  -0.13208  -0.13086  -0.10107  -0.09081
 Alpha virt. eigenvalues --   -0.08206  -0.07895  -0.07793  -0.07582  -0.06576
 Alpha virt. eigenvalues --   -0.05949  -0.05563  -0.05158  -0.05116  -0.04725

 Mulliken charges:
               1
     1  N   -0.754219
     2  H    0.423614
     3  H    0.436059
     4  H    0.420470
     5  C   -0.114961
     6  H    0.235151
     7  C    0.631721
     8  C   -0.370970
     9  H    0.218994
    10  H    0.212778
    11  O   -0.530561
    12  C    0.583335
    13  O   -0.409522
    14  O   -0.583286
    15  N   -0.589378
    16  H    0.381648
    17  C   -0.077786
    18  H    0.197058
    19  C    0.651901
    20  C   -0.349728
    21  H    0.165134
    22  H    0.174209
    23  O   -0.595617
    24  C    0.150265
    25  C   -0.191620
    26  H    0.139895
    27  C   -0.205910
    28  H    0.136522
    29  C   -0.160872
    30  H    0.157934
    31  C   -0.172199
    32  H    0.140831
    33  O   -0.635747
    34  H    0.419959
    35  C    0.364559
    36  N   -0.600688
    37  H    0.376354
    38  C   -0.049336
    39  H    0.186002
    40  C    0.631949
    41  C   -0.358899
    42  H    0.162174
    43  H    0.184760
    44  O   -0.563270
    45  C    0.133452
    46  C   -0.200575
    47  H    0.139966
    48  C   -0.196311
    49  H    0.134043
    50  C   -0.153559
    51  H    0.165626
    52  C   -0.190369
    53  H    0.134115
    54  O   -0.627147
    55  H    0.415553
    56  C    0.353207
    57  N   -0.605496
    58  H    0.358095
    59  C   -0.064394
    60  H    0.190146
    61  C    0.639929
    62  C   -0.373981
    63  H    0.153987
    64  H    0.176296
    65  O   -0.538165
    66  C    0.154997
    67  C   -0.178618
    68  H    0.147780
    69  C   -0.198293
    70  H    0.138443
    71  C   -0.134588
    72  H    0.153295
    73  C   -0.132716
    74  H    0.133394
    75  C   -0.128966
    76  H    0.145265
    77  N   -0.610115
    78  H    0.366599
    79  C   -0.058466
    80  H    0.178327
    81  C    0.630352
    82  C   -0.463581
    83  H    0.175475
    84  H    0.141578
    85  H    0.172762
    86  O   -0.549406
    87  N   -0.621576
    88  H    0.377874
    89  C   -0.044219
    90  H    0.167089
    91  C    0.634404
    92  C   -0.296349
    93  H    0.143825
    94  H    0.160029
    95  O   -0.543797
    96  C   -0.068469
    97  H    0.140211
    98  C   -0.471193
    99  H    0.126797
   100  H    0.200600
   101  H    0.115139
   102  C   -0.464186
   103  H    0.122395
   104  H    0.191509
   105  H    0.137743
   106  N   -0.613462
   107  H    0.368103
   108  C   -0.052774
   109  H    0.179790
   110  C    0.659017
   111  C   -0.475100
   112  H    0.173211
   113  H    0.156993
   114  H    0.164675
   115  O   -0.591913
   116  N   -0.616121
   117  H    0.390706
   118  C   -0.054224
   119  H    0.206007
   120  C    0.654306
   121  C   -0.399367
   122  H    0.174010
   123  H    0.180958
   124  O   -0.577908
   125  C    0.305687
   126  C   -0.086338
   127  H    0.119079
   128  N   -0.621652
   129  H    0.380548
   130  C    0.199943
   131  H    0.153950
   132  N   -0.434301
   133  N   -0.675509
   134  H    0.411648
   135  C   -0.012754
   136  H    0.202409
   137  C    0.541897
   138  C    0.099385
   139  H    0.159289
   140  O   -0.496831
   141  C   -0.478858
   142  H    0.155959
   143  H    0.184531
   144  H    0.154185
   145  O   -0.689371
   146  H    0.435449
   147  N   -0.598831
   148  H    0.330419
   149  C   -0.055821
   150  H    0.194055
   151  C    0.606957
   152  C   -0.061742
   153  H    0.106971
   154  O   -0.579812
   155  C   -0.461138
   156  H    0.146015
   157  H    0.168813
   158  H    0.145161
   159  C   -0.449591
   160  H    0.159072
   161  H    0.144151
   162  H    0.144885
   163  N   -0.614437
   164  H    0.378046
   165  C   -0.022657
   166  H    0.162037
   167  C    0.584221
   168  C   -0.298705
   169  H    0.139629
   170  H    0.172723
   171  O   -0.542791
   172  C   -0.310077
   173  H    0.202559
   174  H    0.144775
   175  C   -0.158402
   176  H    0.176923
   177  H    0.160352
   178  N   -0.598528
   179  H    0.398617
   180  N   -0.777823
   181  H    0.356192
   182  H    0.421976
   183  N   -0.770013
   184  H    0.384598
   185  H    0.376816
   186  C    0.718195
   187  O   -0.625357
   188  H    0.461838
 Sum of Mulliken charges =   1.00000

 Dipole moment (field-independent basis, Debye):
    X=            -32.5385    Y=             -2.1832    Z=            -65.5063  Tot=             73.1751
 Quadrupole moment (field-independent basis, Debye-Ang):
   XX=           -302.2547   YY=           -511.6876   ZZ=             21.1003
   XY=             87.4565   XZ=            299.9911   YZ=             52.6109

 Normal termination of Gaussian 16 at Tue Aug  9 20:37:36 2022.
