 Gaussian 16, Revision C.01,
 Gaussian 16:  ES64L-G16RevC.01  3-Jul-2019

 -------------------------------------------------------------------
 # B3LYP/6-31G* guess=read geom=check nosymm integral(ultrafinegrid)
 -------------------------------------------------------------------

 ------------------------------------------------------
 Candidate Structure: Conf:617 Charge calc in gas phase
 ------------------------------------------------------
 Structure from the checkpoint file:  "conf-617.chk"
 Charge =  1 Multiplicity = 1

                          Input orientation:
 ---------------------------------------------------------------------
 Center     Atomic      Atomic             Coordinates (Angstroms)
 Number     Number       Type             X           Y           Z
 ---------------------------------------------------------------------
      1          7           0       -5.610317   -6.566170  -12.287479
      2          1           0       -6.287995   -7.123214  -12.814577
      3          1           0       -5.952353   -5.540931  -12.210346
      4          1           0       -4.707884   -6.612002  -12.767915
      5          6           0       -5.543861   -6.935452  -10.821028
      6          1           0       -6.190906   -7.796843  -10.646227
      7          6           0       -6.139460   -5.657753  -10.141721
      8          6           0       -4.106175   -7.274171  -10.399529
      9          1           0       -3.618893   -7.908092  -11.152244
     10          1           0       -3.488040   -6.375504  -10.291025
     11          8           0       -6.378392   -4.694058  -10.897165
     12          6           0       -4.098696   -8.053789   -9.090417
     13          8           0       -5.104092   -8.395782   -8.504969
     14          8           0       -2.852673   -8.321182   -8.696460
     15          7           0       -6.330187   -5.685232   -8.836635
     16          1           0       -6.123088   -6.515260   -8.271966
     17          6           0       -6.847132   -4.550484   -8.062471
     18          1           0       -6.428579   -3.629515   -8.477527
     19          6           0       -6.333728   -4.796088   -6.628729
     20          6           0       -8.400524   -4.492728   -8.142515
     21          1           0       -8.795836   -5.425584   -7.724634
     22          1           0       -8.660349   -4.474440   -9.207760
     23          8           0       -6.065414   -5.950715   -6.275768
     24          6           0       -9.000589   -3.299666   -7.432933
     25          6           0       -9.663127   -3.444621   -6.205001
     26          1           0       -9.768526   -4.434496   -5.766665
     27          6           0       -8.895913   -2.012648   -7.976935
     28          1           0       -8.407136   -1.868477   -8.938737
     29          6           0      -10.195680   -2.349174   -5.534955
     30          1           0      -10.712972   -2.464305   -4.588035
     31          6           0       -9.419121   -0.903733   -7.314586
     32          1           0       -9.327934    0.087259   -7.754498
     33          8           0      -10.601610   -0.030608   -5.383920
     34          1           0      -10.451501    0.797436   -5.866511
     35          6           0      -10.067906   -1.068680   -6.085493
     36          7           0       -6.206126   -3.712384   -5.851215
     37          1           0       -6.542739   -2.794994   -6.141359
     38          6           0       -5.851770   -3.793167   -4.440724
     39          1           0       -6.448287   -4.583712   -3.971138
     40          6           0       -6.232791   -2.426093   -3.841776
     41          6           0       -4.339676   -4.126062   -4.232929
     42          1           0       -3.751314   -3.210693   -4.354287
     43          1           0       -4.062219   -4.808529   -5.042038
     44          8           0       -6.608707   -1.502624   -4.561679
     45          6           0       -4.035526   -4.784387   -2.902421
     46          6           0       -3.331121   -4.115241   -1.888320
     47          1           0       -3.008075   -3.090623   -2.052148
     48          6           0       -4.448217   -6.103295   -2.659977
     49          1           0       -4.984772   -6.645497   -3.436073
     50          6           0       -3.049367   -4.736820   -0.672968
     51          1           0       -2.494889   -4.222814    0.106046
     52          6           0       -4.174675   -6.734687   -1.448755
     53          1           0       -4.501522   -7.759410   -1.280919
     54          8           0       -3.170036   -6.609440    0.758777
     55          1           0       -3.505402   -7.519163    0.788059
     56          6           0       -3.471498   -6.051417   -0.448059
     57          7           0       -6.133630   -2.324056   -2.491625
     58          1           0       -5.603222   -3.042303   -2.008942
     59          6           0       -6.207826   -1.019830   -1.852375
     60          1           0       -7.074221   -0.501998   -2.273177
     61          6           0       -4.936665   -0.198008   -2.177906
     62          6           0       -6.409333   -1.209633   -0.326376
     63          1           0       -7.240297   -1.915344   -0.204757
     64          1           0       -5.516486   -1.691240    0.091553
     65          8           0       -3.881134   -0.747731   -2.512537
     66          6           0       -6.704161    0.075270    0.420686
     67          6           0       -5.764458    0.634955    1.295469
     68          1           0       -4.816015    0.128497    1.458633
     69          6           0       -7.924845    0.742055    0.231345
     70          1           0       -8.677072    0.313099   -0.428227
     71          6           0       -6.028919    1.835145    1.957905
     72          1           0       -5.284837    2.256267    2.627524
     73          6           0       -8.192247    1.942307    0.891885
     74          1           0       -9.144731    2.442135    0.738078
     75          6           0       -7.242603    2.493426    1.755423
     76          1           0       -7.449233    3.427528    2.269707
     77          7           0       -5.063992    1.142498   -2.065804
     78          1           0       -5.916395    1.519579   -1.668940
     79          6           0       -3.967525    2.082938   -2.332550
     80          1           0       -3.402676    1.657655   -3.169111
     81          6           0       -3.013606    2.186880   -1.115519
     82          6           0       -4.532197    3.448070   -2.710383
     83          1           0       -3.719998    4.134480   -2.962257
     84          1           0       -5.198363    3.357101   -3.573899
     85          1           0       -5.077932    3.888776   -1.870588
     86          8           0       -2.960958    3.199463   -0.414175
     87          7           0       -2.256315    1.085196   -0.901815
     88          1           0       -2.405868    0.282490   -1.509363
     89          6           0       -1.402158    0.932295    0.282778
     90          1           0       -1.901215    1.472249    1.094691
     91          6           0       -0.028045    1.609037    0.048916
     92          6           0       -1.248129   -0.552144    0.630801
     93          1           0       -2.245403   -1.015406    0.590803
     94          1           0       -0.635520   -1.020708   -0.148874
     95          8           0        1.014362    0.975039   -0.086905
     96          6           0       -0.611058   -0.846006    2.004928
     97          1           0        0.355889   -0.330390    2.036439
     98          6           0       -1.470067   -0.345160    3.176195
     99          1           0       -2.463826   -0.814742    3.167115
    100          1           0       -0.999030   -0.593545    4.133933
    101          1           0       -1.608929    0.741580    3.159371
    102          6           0       -0.344021   -2.352541    2.138998
    103          1           0       -1.281406   -2.925796    2.107464
    104          1           0        0.147445   -2.582086    3.091171
    105          1           0        0.302834   -2.716423    1.332342
    106          7           0       -0.075446    2.966192    0.001529
    107          1           0       -0.972025    3.427696    0.132645
    108          6           0        1.141443    3.741687   -0.093228
    109          1           0        1.749602    3.325099   -0.905491
    110          6           0        1.948322    3.628805    1.219067
    111          6           0        0.817932    5.216971   -0.381279
    112          1           0        1.736490    5.783963   -0.560582
    113          1           0        0.301693    5.683158    0.464021
    114          1           0        0.189004    5.292200   -1.274139
    115          8           0        1.395918    3.430421    2.308849
    116          7           0        3.279314    3.830566    1.096070
    117          1           0        3.661733    3.995868    0.173716
    118          6           0        4.217940    3.887957    2.228224
    119          1           0        3.957417    3.075665    2.914220
    120          6           0        4.042953    5.248289    2.943407
    121          6           0        5.654085    3.700281    1.707208
    122          1           0        5.900799    4.565704    1.077748
    123          1           0        5.660863    2.809633    1.068589
    124          8           0        4.834521    6.181894    2.773149
    125          6           0        6.694818    3.507328    2.765039
    126          6           0        7.443763    2.397665    3.093267
    127          1           0        7.397881    1.416556    2.636274
    128          7           0        7.142589    4.494950    3.623934
    129          1           0        6.797892    5.446908    3.700462
    130          6           0        8.109147    3.939687    4.405946
    131          1           0        8.618775    4.512834    5.167683
    132          7           0        8.322966    2.671265    4.113841
    133          7           0        2.947242    5.334027    3.727650
    134          1           0        2.330943    4.526058    3.716049
    135          6           0        2.409909    6.614731    4.203836
    136          1           0        2.741053    7.377943    3.488999
    137          6           0        3.005623    6.960181    5.594603
    138          6           0        0.861006    6.571533    4.210582
    139          1           0        0.541355    5.914542    5.032346
    140          8           0        2.307016    7.141026    6.590519
    141          6           0        0.260448    7.956545    4.417943
    142          1           0        0.578819    8.374302    5.374408
    143          1           0        0.565679    8.625964    3.604861
    144          1           0       -0.831061    7.882966    4.402628
    145          8           0        0.357698    6.088767    2.963561
    146          1           0        0.482757    5.124805    2.905820
    147          7           0        4.358500    7.034146    5.596732
    148          1           0        4.869645    6.889219    4.727878
    149          6           0        5.145945    7.284674    6.794586
    150          1           0        4.751411    8.181845    7.289521
    151          6           0        6.582355    7.547894    6.316483
    152          6           0        5.054354    6.112274    7.826911
    153          1           0        3.976653    5.969459    7.961003
    154          8           0        7.029664    7.027135    5.287579
    155          6           0        5.657005    4.803540    7.302902
    156          1           0        6.746247    4.866848    7.201017
    157          1           0        5.246271    4.534415    6.324832
    158          1           0        5.437100    3.983943    7.996337
    159          6           0        5.640252    6.498815    9.192327
    160          1           0        6.727587    6.630822    9.154607
    161          1           0        5.432798    5.711646    9.925596
    162          1           0        5.196955    7.426768    9.575392
    163          7           0        7.322798    8.363447    7.096180
    164          1           0        6.936511    8.793842    7.929567
    165          6           0        8.726410    8.654017    6.847375
    166          1           0        9.225719    7.745629    6.501172
    167          6           0        9.350710    9.113786    8.160826
    168          6           0        8.889298    9.763144    5.760582
    169          1           0        8.596273    9.306814    4.810425
    170          1           0        8.150756   10.547230    5.974326
    171          8           0       10.659515    8.909395    8.172767
    172          6           0       10.297650   10.388248    5.652723
    173          1           0       10.466748   10.713612    4.617941
    174          1           0       11.061812    9.640113    5.881480
    175          6           0       10.473680   11.605705    6.588839
    176          1           0       10.036887   11.427962    7.572066
    177          1           0        9.935036   12.462871    6.163185
    178          7           0       11.856345   12.011366    6.815168
    179          1           0       12.402067   12.259015    6.000730
    180          7           0       12.120084   10.970152    8.895829
    181          1           0       12.715556   10.992598    9.720405
    182          1           0       11.158333    9.655996    8.677905
    183          7           0       13.844813   12.305150    7.930120
    184          1           0       14.384175   12.176802    8.776192
    185          1           0       13.885634   13.256947    7.584219
    186          6           0       12.578842   11.722113    7.942772
    187          8           0        8.699278    9.678295    9.024522
    188          1           0       -2.899431   -8.818202   -7.855440
 ---------------------------------------------------------------------

 SCF Done:  E(RB3LYP) =  -4648.47239134     A.U. after    2 cycles

 Alpha  occ. eigenvalues --  -19.33014 -19.27898 -19.27753 -19.24549 -19.23625
 Alpha  occ. eigenvalues --  -19.21069 -19.19616 -19.19013 -19.18065 -19.17117
 Alpha  occ. eigenvalues --  -19.17029 -19.16020 -19.15753 -19.15214 -19.15030
 Alpha  occ. eigenvalues --  -19.14608 -19.13226 -14.60645 -14.49678 -14.44480
 Alpha  occ. eigenvalues --  -14.43173 -14.43133 -14.41704 -14.40878 -14.39384
 Alpha  occ. eigenvalues --  -14.39330 -14.39245 -14.39049 -14.38746 -14.38391
 Alpha  occ. eigenvalues --  -14.36945 -14.33813 -14.31080 -10.46554 -10.44298
 Alpha  occ. eigenvalues --  -10.42190 -10.38152 -10.36930 -10.36426 -10.35804
 Alpha  occ. eigenvalues --  -10.34286 -10.33931 -10.33850 -10.33481 -10.32956
 Alpha  occ. eigenvalues --  -10.32496 -10.32078 -10.31991 -10.31618 -10.31260
 Alpha  occ. eigenvalues --  -10.31013 -10.30698 -10.30416 -10.29575 -10.28834
 Alpha  occ. eigenvalues --  -10.27970 -10.27805 -10.27471 -10.26810 -10.26687
 Alpha  occ. eigenvalues --  -10.26643 -10.26368 -10.26233 -10.26135 -10.26134
 Alpha  occ. eigenvalues --  -10.25867 -10.25739 -10.25475 -10.25460 -10.25458
 Alpha  occ. eigenvalues --  -10.25367 -10.25310 -10.25190 -10.25044 -10.24907
 Alpha  occ. eigenvalues --  -10.24859 -10.24717 -10.24607 -10.24432 -10.24420
 Alpha  occ. eigenvalues --  -10.24362 -10.23753 -10.23618 -10.23337 -10.22711
 Alpha  occ. eigenvalues --  -10.22693 -10.22540 -10.22329 -10.21797 -10.21402
 Alpha  occ. eigenvalues --  -10.20908 -10.20888 -10.20767 -10.20022 -10.19156
 Alpha  occ. eigenvalues --  -10.18760 -10.18482  -1.24354  -1.20173  -1.15602
 Alpha  occ. eigenvalues --   -1.14477  -1.13037  -1.12695  -1.11744  -1.11636
 Alpha  occ. eigenvalues --   -1.10440  -1.10212  -1.08954  -1.08664  -1.07379
 Alpha  occ. eigenvalues --   -1.06786  -1.06346  -1.06305  -1.04870  -1.03437
 Alpha  occ. eigenvalues --   -1.02372  -1.01831  -1.01161  -1.01038  -0.99954
 Alpha  occ. eigenvalues --   -0.99393  -0.97747  -0.97296  -0.95933  -0.95623
 Alpha  occ. eigenvalues --   -0.95526  -0.95171  -0.93639  -0.93051  -0.92934
 Alpha  occ. eigenvalues --   -0.91620  -0.91407  -0.88885  -0.88877  -0.86768
 Alpha  occ. eigenvalues --   -0.86644  -0.85336  -0.85072  -0.84671  -0.83505
 Alpha  occ. eigenvalues --   -0.82905  -0.82744  -0.81980  -0.81801  -0.81550
 Alpha  occ. eigenvalues --   -0.80845  -0.80806  -0.80224  -0.80013  -0.79611
 Alpha  occ. eigenvalues --   -0.78462  -0.78190  -0.77033  -0.76565  -0.75579
 Alpha  occ. eigenvalues --   -0.75321  -0.74860  -0.73885  -0.73586  -0.72717
 Alpha  occ. eigenvalues --   -0.72102  -0.71728  -0.71677  -0.71089  -0.70561
 Alpha  occ. eigenvalues --   -0.70111  -0.70041  -0.69744  -0.69489  -0.68786
 Alpha  occ. eigenvalues --   -0.68279  -0.68216  -0.67164  -0.66932  -0.66491
 Alpha  occ. eigenvalues --   -0.66294  -0.66183  -0.65348  -0.65009  -0.64843
 Alpha  occ. eigenvalues --   -0.64579  -0.64338  -0.63650  -0.63456  -0.63390
 Alpha  occ. eigenvalues --   -0.63011  -0.62438  -0.62369  -0.61696  -0.61680
 Alpha  occ. eigenvalues --   -0.61384  -0.61286  -0.61031  -0.60956  -0.60757
 Alpha  occ. eigenvalues --   -0.60523  -0.60252  -0.59881  -0.59666  -0.59167
 Alpha  occ. eigenvalues --   -0.59000  -0.58545  -0.58323  -0.57936  -0.57804
 Alpha  occ. eigenvalues --   -0.57451  -0.56958  -0.56820  -0.56672  -0.56591
 Alpha  occ. eigenvalues --   -0.56314  -0.56186  -0.55745  -0.55172  -0.54892
 Alpha  occ. eigenvalues --   -0.54753  -0.54455  -0.54240  -0.53936  -0.53570
 Alpha  occ. eigenvalues --   -0.53549  -0.53254  -0.53097  -0.52979  -0.52840
 Alpha  occ. eigenvalues --   -0.52713  -0.52400  -0.52206  -0.51963  -0.51870
 Alpha  occ. eigenvalues --   -0.51624  -0.51374  -0.51208  -0.50984  -0.50940
 Alpha  occ. eigenvalues --   -0.50827  -0.50705  -0.50287  -0.50212  -0.49857
 Alpha  occ. eigenvalues --   -0.49454  -0.49364  -0.49164  -0.49085  -0.49056
 Alpha  occ. eigenvalues --   -0.48627  -0.48429  -0.48385  -0.48055  -0.47858
 Alpha  occ. eigenvalues --   -0.47621  -0.47524  -0.47406  -0.47319  -0.47153
 Alpha  occ. eigenvalues --   -0.46893  -0.46864  -0.46664  -0.46551  -0.46432
 Alpha  occ. eigenvalues --   -0.46294  -0.46183  -0.45855  -0.45424  -0.45399
 Alpha  occ. eigenvalues --   -0.45366  -0.45341  -0.45212  -0.45124  -0.44958
 Alpha  occ. eigenvalues --   -0.44827  -0.44529  -0.44414  -0.44372  -0.44056
 Alpha  occ. eigenvalues --   -0.43922  -0.43822  -0.43695  -0.43472  -0.43437
 Alpha  occ. eigenvalues --   -0.43345  -0.43084  -0.43066  -0.42920  -0.42763
 Alpha  occ. eigenvalues --   -0.42554  -0.42414  -0.42383  -0.42256  -0.41985
 Alpha  occ. eigenvalues --   -0.41891  -0.41708  -0.41682  -0.41585  -0.41437
 Alpha  occ. eigenvalues --   -0.41360  -0.41054  -0.40943  -0.40858  -0.40796
 Alpha  occ. eigenvalues --   -0.40749  -0.40634  -0.40465  -0.40302  -0.40073
 Alpha  occ. eigenvalues --   -0.39890  -0.39759  -0.39698  -0.39601  -0.39540
 Alpha  occ. eigenvalues --   -0.39503  -0.39418  -0.39249  -0.39062  -0.39045
 Alpha  occ. eigenvalues --   -0.38838  -0.38757  -0.37848  -0.37697  -0.37028
 Alpha  occ. eigenvalues --   -0.36804  -0.36657  -0.36105  -0.35797  -0.35461
 Alpha  occ. eigenvalues --   -0.35199  -0.35020  -0.34904  -0.34900  -0.34606
 Alpha  occ. eigenvalues --   -0.34358  -0.33791  -0.33267  -0.32490  -0.32347
 Alpha  occ. eigenvalues --   -0.32331  -0.32111  -0.32019  -0.31598  -0.31330
 Alpha  occ. eigenvalues --   -0.31298  -0.30734  -0.30311  -0.30129  -0.30083
 Alpha  occ. eigenvalues --   -0.29789  -0.29303  -0.29070  -0.29006  -0.28867
 Alpha  occ. eigenvalues --   -0.28735  -0.28449  -0.27870  -0.27836  -0.27820
 Alpha  occ. eigenvalues --   -0.27781  -0.26998  -0.26719  -0.26347  -0.25865
 Alpha  occ. eigenvalues --   -0.22734
 Alpha virt. eigenvalues --   -0.13277  -0.12699  -0.12038  -0.07623  -0.07556
 Alpha virt. eigenvalues --   -0.07362  -0.06689  -0.06368  -0.06268  -0.05912
 Alpha virt. eigenvalues --   -0.05605  -0.05123  -0.04549  -0.04342  -0.03767

 Mulliken charges:
               1
     1  N   -0.771759
     2  H    0.419181
     3  H    0.441771
     4  H    0.412518
     5  C   -0.092920
     6  H    0.243664
     7  C    0.638453
     8  C   -0.397397
     9  H    0.213379
    10  H    0.231307
    11  O   -0.551345
    12  C    0.616416
    13  O   -0.442674
    14  O   -0.542558
    15  N   -0.613911
    16  H    0.411177
    17  C   -0.064827
    18  H    0.189663
    19  C    0.629783
    20  C   -0.354723
    21  H    0.166322
    22  H    0.170312
    23  O   -0.554146
    24  C    0.148739
    25  C   -0.188622
    26  H    0.136260
    27  C   -0.201432
    28  H    0.133003
    29  C   -0.150937
    30  H    0.152613
    31  C   -0.180780
    32  H    0.133558
    33  O   -0.633967
    34  H    0.414527
    35  C    0.365768
    36  N   -0.623176
    37  H    0.373731
    38  C   -0.046720
    39  H    0.187409
    40  C    0.625877
    41  C   -0.356937
    42  H    0.178977
    43  H    0.170424
    44  O   -0.536489
    45  C    0.114473
    46  C   -0.230788
    47  H    0.175643
    48  C   -0.193226
    49  H    0.148647
    50  C   -0.167962
    51  H    0.161125
    52  C   -0.191704
    53  H    0.128188
    54  O   -0.633092
    55  H    0.412723
    56  C    0.353439
    57  N   -0.607886
    58  H    0.356371
    59  C   -0.063718
    60  H    0.187297
    61  C    0.645703
    62  C   -0.377739
    63  H    0.177131
    64  H    0.164744
    65  O   -0.558442
    66  C    0.146242
    67  C   -0.188764
    68  H    0.143707
    69  C   -0.201302
    70  H    0.133752
    71  C   -0.121905
    72  H    0.153414
    73  C   -0.129508
    74  H    0.143479
    75  C   -0.129636
    76  H    0.148298
    77  N   -0.588869
    78  H    0.350576
    79  C   -0.059453
    80  H    0.181515
    81  C    0.631076
    82  C   -0.463192
    83  H    0.174769
    84  H    0.152866
    85  H    0.177114
    86  O   -0.541880
    87  N   -0.627565
    88  H    0.371157
    89  C   -0.061374
    90  H    0.175618
    91  C    0.643890
    92  C   -0.282906
    93  H    0.120750
    94  H    0.156847
    95  O   -0.536136
    96  C   -0.079946
    97  H    0.166998
    98  C   -0.454987
    99  H    0.130208
   100  H    0.153932
   101  H    0.150625
   102  C   -0.453604
   103  H    0.135897
   104  H    0.150532
   105  H    0.148663
   106  N   -0.614614
   107  H    0.372958
   108  C   -0.041750
   109  H    0.161819
   110  C    0.667981
   111  C   -0.490491
   112  H    0.158384
   113  H    0.205034
   114  H    0.164562
   115  O   -0.568575
   116  N   -0.602065
   117  H    0.341989
   118  C   -0.041838
   119  H    0.189841
   120  C    0.629864
   121  C   -0.382310
   122  H    0.170029
   123  H    0.162809
   124  O   -0.553533
   125  C    0.312761
   126  C   -0.085768
   127  H    0.119566
   128  N   -0.617027
   129  H    0.387721
   130  C    0.203939
   131  H    0.155163
   132  N   -0.433304
   133  N   -0.612695
   134  H    0.361749
   135  C   -0.068763
   136  H    0.178835
   137  C    0.637914
   138  C    0.116864
   139  H    0.138496
   140  O   -0.539970
   141  C   -0.460817
   142  H    0.182418
   143  H    0.142335
   144  H    0.152560
   145  O   -0.665304
   146  H    0.415939
   147  N   -0.655050
   148  H    0.387853
   149  C   -0.013801
   150  H    0.157040
   151  C    0.621725
   152  C   -0.085128
   153  H    0.173225
   154  O   -0.565411
   155  C   -0.454001
   156  H    0.150937
   157  H    0.150813
   158  H    0.144666
   159  C   -0.465832
   160  H    0.150065
   161  H    0.152602
   162  H    0.144991
   163  N   -0.619309
   164  H    0.354358
   165  C   -0.008603
   166  H    0.183441
   167  C    0.577336
   168  C   -0.282715
   169  H    0.176036
   170  H    0.146065
   171  O   -0.608661
   172  C   -0.277970
   173  H    0.132699
   174  H    0.176152
   175  C   -0.154817
   176  H    0.202565
   177  H    0.149535
   178  N   -0.602490
   179  H    0.328208
   180  N   -0.735061
   181  H    0.292971
   182  H    0.461277
   183  N   -0.759058
   184  H    0.333408
   185  H    0.333369
   186  C    0.685207
   187  O   -0.498096
   188  H    0.445422
 Sum of Mulliken charges =   1.00000

 Dipole moment (field-independent basis, Debye):
    X=            -23.5497    Y=            -20.0160    Z=            -48.0738  Tot=             57.1517
 Quadrupole moment (field-independent basis, Debye-Ang):
   XX=           -286.0195   YY=           -201.1634   ZZ=            -29.1376
   XY=            285.1885   XZ=            290.0877   YZ=            340.3961

 Normal termination of Gaussian 16 at Tue Aug  9 20:49:24 2022.
