 Gaussian 16, Revision C.01,
 Gaussian 16:  ES64L-G16RevC.01  3-Jul-2019

 -------------------------------------------------------------------
 # B3LYP/6-31G* guess=read geom=check nosymm integral(ultrafinegrid)
 -------------------------------------------------------------------

 ------------------------------------------------------
 Candidate Structure: Conf:306 Charge calc in gas phase
 ------------------------------------------------------
 Structure from the checkpoint file:  "conf-306.chk"
 Charge =  1 Multiplicity = 1

                          Input orientation:
 ---------------------------------------------------------------------
 Center     Atomic      Atomic             Coordinates (Angstroms)
 Number     Number       Type             X           Y           Z
 ---------------------------------------------------------------------
      1          7           0      -11.589978   -6.635407   -6.880333
      2          1           0      -12.389471   -6.488575   -6.251189
      3          1           0      -11.564540   -5.836032   -7.540347
      4          1           0      -11.737274   -7.514507   -7.390335
      5          6           0      -10.263117   -6.574904   -6.135749
      6          1           0      -10.304061   -7.250046   -5.278281
      7          6           0      -10.191984   -5.071575   -5.778714
      8          6           0       -9.156760   -6.967468   -7.121524
      9          1           0       -9.301911   -7.975906   -7.528100
     10          1           0       -9.148779   -6.259617   -7.959620
     11          8           0      -10.387111   -4.313815   -6.734552
     12          6           0       -7.789236   -6.881813   -6.457879
     13          8           0       -7.597569   -6.332711   -5.395391
     14          8           0       -6.862227   -7.470161   -7.212440
     15          7           0      -10.060981   -4.731805   -4.492033
     16          1           0       -9.708891   -5.429539   -3.839391
     17          6           0       -9.741612   -3.350800   -4.081921
     18          1           0       -9.993699   -2.705951   -4.926543
     19          6           0       -8.221304   -3.372973   -3.833231
     20          6           0      -10.591399   -2.897682   -2.865226
     21          1           0      -11.630227   -2.847404   -3.216117
     22          1           0      -10.290636   -1.866375   -2.646097
     23          8           0       -7.758906   -4.085399   -2.941264
     24          6           0      -10.514760   -3.740237   -1.608896
     25          6           0      -11.232533   -4.941877   -1.493168
     26          1           0      -11.874831   -5.265409   -2.311258
     27          6           0       -9.750341   -3.331501   -0.510270
     28          1           0       -9.207216   -2.391009   -0.555343
     29          6           0      -11.163147   -5.725258   -0.345198
     30          1           0      -11.722867   -6.651198   -0.255190
     31          6           0       -9.672076   -4.098418    0.649050
     32          1           0       -9.070194   -3.754741    1.487814
     33          8           0      -10.344319   -6.111530    1.830616
     34          1           0       -9.773872   -5.718328    2.511303
     35          6           0      -10.373856   -5.307343    0.734016
     36          7           0       -7.457987   -2.663055   -4.695027
     37          1           0       -7.900297   -2.136817   -5.435711
     38          6           0       -5.997202   -2.832055   -4.734492
     39          1           0       -5.812908   -3.885827   -4.498482
     40          6           0       -5.333112   -1.938176   -3.652415
     41          6           0       -5.420817   -2.514360   -6.127257
     42          1           0       -4.339441   -2.433703   -5.986729
     43          1           0       -5.743460   -1.516323   -6.448904
     44          8           0       -4.778902   -0.879887   -3.945390
     45          6           0       -5.713161   -3.562330   -7.185287
     46          6           0       -4.763413   -4.557342   -7.472601
     47          1           0       -3.825898   -4.569571   -6.921059
     48          6           0       -6.896523   -3.569958   -7.936522
     49          1           0       -7.659760   -2.810306   -7.782337
     50          6           0       -4.976975   -5.523574   -8.451247
     51          1           0       -4.226264   -6.275355   -8.674232
     52          6           0       -7.121686   -4.518716   -8.938498
     53          1           0       -8.025716   -4.459539   -9.544278
     54          8           0       -6.299200   -6.445447  -10.176726
     55          1           0       -7.086834   -6.250746  -10.708993
     56          6           0       -6.157861   -5.500749   -9.202227
     57          7           0       -5.419655   -2.423035   -2.391539
     58          1           0       -6.011833   -3.235566   -2.232706
     59          6           0       -4.955008   -1.635617   -1.244685
     60          1           0       -5.199847   -0.586018   -1.439683
     61          6           0       -3.418650   -1.803282   -1.128481
     62          6           0       -5.648417   -2.102009    0.050771
     63          1           0       -6.713542   -2.256039   -0.161908
     64          1           0       -5.218118   -3.071523    0.325367
     65          8           0       -2.932108   -2.801583   -0.589691
     66          6           0       -5.497312   -1.093112    1.174288
     67          6           0       -4.299861   -1.006039    1.895998
     68          1           0       -3.499346   -1.701225    1.673101
     69          6           0       -6.521595   -0.183210    1.467433
     70          1           0       -7.462631   -0.235901    0.920905
     71          6           0       -4.119707   -0.029290    2.874902
     72          1           0       -3.172341    0.026758    3.407871
     73          6           0       -6.353097    0.787163    2.457337
     74          1           0       -7.160256    1.481833    2.675630
     75          6           0       -5.149201    0.870491    3.160674
     76          1           0       -5.014822    1.631762    3.924234
     77          7           0       -2.675324   -0.805917   -1.656534
     78          1           0       -3.154895   -0.126361   -2.236848
     79          6           0       -1.214088   -0.911891   -1.802266
     80          1           0       -0.994220   -1.965734   -2.013466
     81          6           0       -0.473648   -0.532911   -0.489734
     82          6           0       -0.748212   -0.028932   -2.956152
     83          1           0        0.335005   -0.105618   -3.076444
     84          1           0       -1.231797   -0.336204   -3.889727
     85          1           0       -0.978451    1.021771   -2.756068
     86          8           0        0.134063    0.532295   -0.382926
     87          7           0       -0.529682   -1.470867    0.488933
     88          1           0       -1.081646   -2.307594    0.317254
     89          6           0        0.149264   -1.303081    1.783495
     90          1           0        0.104804   -0.234185    2.015010
     91          6           0        1.644329   -1.687628    1.658190
     92          6           0       -0.563531   -2.113405    2.879104
     93          1           0       -1.610487   -1.778655    2.920052
     94          1           0       -0.578006   -3.169706    2.580031
     95          8           0        2.101449   -2.714188    2.154361
     96          6           0        0.030019   -2.021683    4.307544
     97          1           0        0.932235   -2.638752    4.334163
     98          6           0        0.421032   -0.596356    4.728932
     99          1           0       -0.442386    0.085079    4.707247
    100          1           0        0.806645   -0.603028    5.754919
    101          1           0        1.204895   -0.165052    4.096079
    102          6           0       -0.974847   -2.619533    5.304445
    103          1           0       -1.898713   -2.023973    5.337073
    104          1           0       -0.552128   -2.643583    6.315268
    105          1           0       -1.244583   -3.648021    5.033713
    106          7           0        2.411706   -0.798068    0.954222
    107          1           0        1.969164    0.081199    0.696121
    108          6           0        3.851929   -0.784937    1.172802
    109          1           0        4.157503   -1.826628    1.297291
    110          6           0        4.109523    0.008695    2.466547
    111          6           0        4.605270   -0.142286   -0.003431
    112          1           0        5.665265   -0.419852    0.035427
    113          1           0        4.545201    0.949672    0.020778
    114          1           0        4.193552   -0.511008   -0.948435
    115          8           0        3.464214    1.030189    2.714723
    116          7           0        5.057679   -0.463140    3.312960
    117          1           0        5.671387   -1.211700    3.015470
    118          6           0        5.346447    0.226013    4.573405
    119          1           0        4.391064    0.647901    4.897250
    120          6           0        6.323915    1.396349    4.316585
    121          6           0        5.875856   -0.738269    5.640200
    122          1           0        6.128615   -0.124915    6.513404
    123          1           0        6.836026   -1.156063    5.303862
    124          8           0        7.508418    1.361108    4.658986
    125          6           0        4.904408   -1.813554    6.046154
    126          6           0        4.024871   -2.644506    5.379131
    127          1           0        3.813081   -2.694957    4.319315
    128          7           0        4.789306   -2.195365    7.375147
    129          1           0        5.292805   -1.788080    8.151091
    130          6           0        3.862681   -3.198680    7.443385
    131          1           0        3.586412   -3.668105    8.378940
    132          7           0        3.380649   -3.493904    6.256625
    133          7           0        5.748649    2.429598    3.658820
    134          1           0        4.778112    2.331296    3.365782
    135          6           0        6.520089    3.584395    3.204573
    136          1           0        7.522167    3.214645    2.948416
    137          6           0        6.643823    4.626234    4.346292
    138          6           0        5.864153    4.203553    1.954847
    139          1           0        4.888261    4.603028    2.245262
    140          8           0        5.883797    5.588153    4.429241
    141          6           0        6.716067    5.318531    1.351468
    142          1           0        6.901559    6.110845    2.080612
    143          1           0        7.687765    4.927730    1.016685
    144          1           0        6.202681    5.746183    0.484436
    145          8           0        5.571437    3.187749    0.987701
    146          1           0        6.420523    2.864814    0.641539
    147          7           0        7.613673    4.343778    5.250228
    148          1           0        8.241274    3.580037    5.028748
    149          6           0        8.039012    5.306326    6.256865
    150          1           0        7.136747    5.706030    6.733735
    151          6           0        8.806562    6.461183    5.564999
    152          6           0        8.911958    4.583083    7.316981
    153          1           0        9.763740    4.143658    6.774262
    154          8           0        9.541219    6.237371    4.599006
    155          6           0        9.472105    5.550119    8.371377
    156          1           0        8.668149    6.086651    8.890925
    157          1           0       10.141114    6.298286    7.938318
    158          1           0       10.037192    4.991834    9.126937
    159          6           0        8.126818    3.445476    7.992196
    160          1           0        7.280899    3.846546    8.566088
    161          1           0        8.772918    2.898506    8.689440
    162          1           0        7.733236    2.731656    7.261733
    163          7           0        8.614299    7.681346    6.104588
    164          1           0        8.095105    7.825660    6.971377
    165          6           0        9.377703    8.865036    5.740749
    166          1           0       10.427260    8.586127    5.585072
    167          6           0        9.290330    9.861350    6.944901
    168          6           0        8.838645    9.459056    4.415681
    169          1           0        8.860543    8.657885    3.670677
    170          1           0        7.780094    9.719230    4.556720
    171          8           0       10.073850   10.870131    6.883740
    172          6           0        9.640673   10.673570    3.898681
    173          1           0        9.779077   10.628347    2.809594
    174          1           0       10.636629   10.664013    4.352517
    175          6           0        8.937204   11.983903    4.269160
    176          1           0        8.726513   12.006424    5.340092
    177          1           0        7.981571   12.078020    3.744265
    178          7           0        9.709725   13.201991    3.945956
    179          1           0        9.683780   13.514150    2.983707
    180          7           0       11.042940   13.088500    5.841965
    181          1           0       11.862804   13.409408    6.338634
    182          1           0       10.612116   12.177112    6.201556
    183          7           0       11.518274   14.645300    4.168273
    184          1           0       12.113097   15.139019    4.820458
    185          1           0       11.079312   15.257471    3.493091
    186          6           0       10.755699   13.624316    4.672191
    187          8           0        8.482813    9.591790    7.847400
    188          1           0       -5.987815   -7.328253   -6.796696
 ---------------------------------------------------------------------

 SCF Done:  E(RB3LYP) =  -4648.39958377     A.U. after    1 cycles

 Alpha  occ. eigenvalues --  -19.32032 -19.27718 -19.27102 -19.26943 -19.25040
 Alpha  occ. eigenvalues --  -19.22350 -19.19050 -19.17337 -19.16505 -19.15166
 Alpha  occ. eigenvalues --  -19.14971 -19.14057 -19.13820 -19.11605 -19.09778
 Alpha  occ. eigenvalues --  -19.07823 -19.07246 -14.64350 -14.51136 -14.47180
 Alpha  occ. eigenvalues --  -14.44807 -14.44126 -14.42911 -14.41842 -14.41641
 Alpha  occ. eigenvalues --  -14.40722 -14.40109 -14.39194 -14.37437 -14.37263
 Alpha  occ. eigenvalues --  -14.35584 -14.33628 -14.32401 -10.45804 -10.45097
 Alpha  occ. eigenvalues --  -10.43505 -10.39967 -10.39593 -10.36594 -10.36073
 Alpha  occ. eigenvalues --  -10.35580 -10.34287 -10.34240 -10.32650 -10.32405
 Alpha  occ. eigenvalues --  -10.32196 -10.31885 -10.30804 -10.30612 -10.29828
 Alpha  occ. eigenvalues --  -10.29694 -10.28746 -10.28741 -10.28469 -10.28343
 Alpha  occ. eigenvalues --  -10.28209 -10.28083 -10.27948 -10.27582 -10.27574
 Alpha  occ. eigenvalues --  -10.27508 -10.27068 -10.26956 -10.26547 -10.26450
 Alpha  occ. eigenvalues --  -10.26433 -10.26382 -10.26179 -10.25801 -10.25797
 Alpha  occ. eigenvalues --  -10.25350 -10.25254 -10.25090 -10.24341 -10.24233
 Alpha  occ. eigenvalues --  -10.23734 -10.23553 -10.23309 -10.23040 -10.23017
 Alpha  occ. eigenvalues --  -10.22973 -10.22711 -10.22705 -10.22482 -10.21201
 Alpha  occ. eigenvalues --  -10.21054 -10.20888 -10.20854 -10.20666 -10.20235
 Alpha  occ. eigenvalues --  -10.19936 -10.19053 -10.18838 -10.18693 -10.18517
 Alpha  occ. eigenvalues --  -10.17997 -10.17652  -1.23498  -1.20988  -1.17234
 Alpha  occ. eigenvalues --   -1.15056  -1.14795  -1.14432  -1.13205  -1.10825
 Alpha  occ. eigenvalues --   -1.09009  -1.08643  -1.07403  -1.07289  -1.06825
 Alpha  occ. eigenvalues --   -1.05546  -1.05252  -1.03784  -1.03272  -1.03025
 Alpha  occ. eigenvalues --   -1.02523  -1.01518  -1.00567  -0.99318  -0.98140
 Alpha  occ. eigenvalues --   -0.97717  -0.96356  -0.96324  -0.96101  -0.95426
 Alpha  occ. eigenvalues --   -0.94517  -0.94204  -0.93706  -0.93565  -0.92300
 Alpha  occ. eigenvalues --   -0.92195  -0.90060  -0.90045  -0.89849  -0.88286
 Alpha  occ. eigenvalues --   -0.87573  -0.85818  -0.84839  -0.84056  -0.83028
 Alpha  occ. eigenvalues --   -0.82904  -0.82685  -0.82313  -0.81828  -0.81488
 Alpha  occ. eigenvalues --   -0.81326  -0.80701  -0.79514  -0.78815  -0.78561
 Alpha  occ. eigenvalues --   -0.78202  -0.78031  -0.77408  -0.76354  -0.75991
 Alpha  occ. eigenvalues --   -0.75626  -0.75167  -0.74477  -0.73129  -0.72836
 Alpha  occ. eigenvalues --   -0.72727  -0.71479  -0.71303  -0.71200  -0.70361
 Alpha  occ. eigenvalues --   -0.70025  -0.69721  -0.69611  -0.69137  -0.68969
 Alpha  occ. eigenvalues --   -0.68789  -0.68644  -0.67755  -0.67609  -0.67175
 Alpha  occ. eigenvalues --   -0.66907  -0.66391  -0.66105  -0.65729  -0.65349
 Alpha  occ. eigenvalues --   -0.64764  -0.63789  -0.63639  -0.63346  -0.63173
 Alpha  occ. eigenvalues --   -0.62893  -0.62600  -0.62435  -0.62360  -0.62125
 Alpha  occ. eigenvalues --   -0.61539  -0.61297  -0.61158  -0.60606  -0.60479
 Alpha  occ. eigenvalues --   -0.60071  -0.60038  -0.59851  -0.59544  -0.59408
 Alpha  occ. eigenvalues --   -0.59023  -0.58434  -0.57898  -0.57722  -0.57397
 Alpha  occ. eigenvalues --   -0.57365  -0.57267  -0.56879  -0.56396  -0.56323
 Alpha  occ. eigenvalues --   -0.56241  -0.55969  -0.55778  -0.55463  -0.55433
 Alpha  occ. eigenvalues --   -0.55358  -0.54609  -0.54381  -0.54240  -0.53898
 Alpha  occ. eigenvalues --   -0.53657  -0.53476  -0.53234  -0.52775  -0.52733
 Alpha  occ. eigenvalues --   -0.52171  -0.51949  -0.51870  -0.51753  -0.51709
 Alpha  occ. eigenvalues --   -0.51472  -0.51345  -0.51297  -0.51277  -0.51025
 Alpha  occ. eigenvalues --   -0.50388  -0.50260  -0.50163  -0.50086  -0.49894
 Alpha  occ. eigenvalues --   -0.49716  -0.49516  -0.49250  -0.49155  -0.48642
 Alpha  occ. eigenvalues --   -0.48606  -0.48464  -0.47966  -0.47817  -0.47590
 Alpha  occ. eigenvalues --   -0.47493  -0.47128  -0.46654  -0.46594  -0.46372
 Alpha  occ. eigenvalues --   -0.46328  -0.45947  -0.45726  -0.45629  -0.45554
 Alpha  occ. eigenvalues --   -0.45474  -0.45430  -0.45332  -0.45185  -0.45006
 Alpha  occ. eigenvalues --   -0.44843  -0.44652  -0.44545  -0.44382  -0.44240
 Alpha  occ. eigenvalues --   -0.44183  -0.44060  -0.43764  -0.43552  -0.43394
 Alpha  occ. eigenvalues --   -0.43379  -0.43007  -0.42797  -0.42758  -0.42691
 Alpha  occ. eigenvalues --   -0.42599  -0.42221  -0.42091  -0.42048  -0.41981
 Alpha  occ. eigenvalues --   -0.41931  -0.41844  -0.41742  -0.41642  -0.41605
 Alpha  occ. eigenvalues --   -0.41547  -0.41382  -0.41313  -0.40806  -0.40762
 Alpha  occ. eigenvalues --   -0.40657  -0.40399  -0.40303  -0.40159  -0.39938
 Alpha  occ. eigenvalues --   -0.39935  -0.39711  -0.39648  -0.39336  -0.39127
 Alpha  occ. eigenvalues --   -0.38826  -0.38724  -0.38615  -0.38575  -0.38524
 Alpha  occ. eigenvalues --   -0.38476  -0.38259  -0.38013  -0.37949  -0.37813
 Alpha  occ. eigenvalues --   -0.37724  -0.37588  -0.37309  -0.37233  -0.36182
 Alpha  occ. eigenvalues --   -0.35981  -0.35400  -0.34974  -0.34622  -0.34351
 Alpha  occ. eigenvalues --   -0.34341  -0.34118  -0.33930  -0.33911  -0.33816
 Alpha  occ. eigenvalues --   -0.33577  -0.33389  -0.33074  -0.32735  -0.32499
 Alpha  occ. eigenvalues --   -0.32115  -0.32019  -0.30896  -0.30788  -0.30479
 Alpha  occ. eigenvalues --   -0.30221  -0.29376  -0.29333  -0.29265  -0.29160
 Alpha  occ. eigenvalues --   -0.29052  -0.28655  -0.28443  -0.28086  -0.27893
 Alpha  occ. eigenvalues --   -0.27538  -0.26784  -0.26073  -0.25950  -0.24632
 Alpha  occ. eigenvalues --   -0.24217  -0.23683  -0.23553  -0.23145  -0.21763
 Alpha  occ. eigenvalues --   -0.21539
 Alpha virt. eigenvalues --   -0.15707  -0.13260  -0.12084  -0.10085  -0.08972
 Alpha virt. eigenvalues --   -0.08447  -0.08363  -0.08302  -0.07134  -0.06592
 Alpha virt. eigenvalues --   -0.05699  -0.04825  -0.04690  -0.04513  -0.04471

 Mulliken charges:
               1
     1  N   -0.735303
     2  H    0.429111
     3  H    0.428805
     4  H    0.421733
     5  C   -0.119621
     6  H    0.224964
     7  C    0.660079
     8  C   -0.379792
     9  H    0.204106
    10  H    0.222579
    11  O   -0.538689
    12  C    0.631099
    13  O   -0.454119
    14  O   -0.540808
    15  N   -0.574993
    16  H    0.378846
    17  C   -0.088402
    18  H    0.182582
    19  C    0.650709
    20  C   -0.370538
    21  H    0.165274
    22  H    0.175844
    23  O   -0.529962
    24  C    0.187021
    25  C   -0.207048
    26  H    0.094556
    27  C   -0.178889
    28  H    0.139972
    29  C   -0.151910
    30  H    0.146363
    31  C   -0.190840
    32  H    0.146102
    33  O   -0.631178
    34  H    0.419488
    35  C    0.356884
    36  N   -0.601770
    37  H    0.344836
    38  C   -0.056804
    39  H    0.192102
    40  C    0.628467
    41  C   -0.405420
    42  H    0.190817
    43  H    0.177391
    44  O   -0.531354
    45  C    0.186486
    46  C   -0.192099
    47  H    0.151248
    48  C   -0.192275
    49  H    0.127217
    50  C   -0.205857
    51  H    0.162438
    52  C   -0.227146
    53  H    0.122039
    54  O   -0.635891
    55  H    0.409156
    56  C    0.384327
    57  N   -0.624796
    58  H    0.377800
    59  C   -0.027951
    60  H    0.169365
    61  C    0.643238
    62  C   -0.404215
    63  H    0.140456
    64  H    0.187158
    65  O   -0.550344
    66  C    0.156975
    67  C   -0.189932
    68  H    0.159742
    69  C   -0.188638
    70  H    0.108875
    71  C   -0.137677
    72  H    0.152639
    73  C   -0.126784
    74  H    0.133217
    75  C   -0.129808
    76  H    0.141558
    77  N   -0.588333
    78  H    0.358415
    79  C   -0.052513
    80  H    0.170179
    81  C    0.636237
    82  C   -0.471170
    83  H    0.175936
    84  H    0.149000
    85  H    0.178233
    86  O   -0.534984
    87  N   -0.628683
    88  H    0.368211
    89  C   -0.057687
    90  H    0.184934
    91  C    0.625662
    92  C   -0.293445
    93  H    0.139858
    94  H    0.148764
    95  O   -0.521392
    96  C   -0.082536
    97  H    0.188631
    98  C   -0.469149
    99  H    0.126242
   100  H    0.150004
   101  H    0.162057
   102  C   -0.446543
   103  H    0.124233
   104  H    0.151068
   105  H    0.138353
   106  N   -0.597186
   107  H    0.369666
   108  C   -0.053537
   109  H    0.173103
   110  C    0.648884
   111  C   -0.483515
   112  H    0.144643
   113  H    0.201892
   114  H    0.163666
   115  O   -0.548708
   116  N   -0.594700
   117  H    0.338238
   118  C   -0.063744
   119  H    0.195010
   120  C    0.633897
   121  C   -0.383913
   122  H    0.166852
   123  H    0.176829
   124  O   -0.554541
   125  C    0.328518
   126  C   -0.094172
   127  H    0.156143
   128  N   -0.607157
   129  H    0.331440
   130  C    0.205042
   131  H    0.152396
   132  N   -0.432740
   133  N   -0.618130
   134  H    0.388068
   135  C   -0.070978
   136  H    0.150134
   137  C    0.645354
   138  C    0.117990
   139  H    0.170007
   140  O   -0.542528
   141  C   -0.474754
   142  H    0.191275
   143  H    0.131019
   144  H    0.153456
   145  O   -0.625365
   146  H    0.381700
   147  N   -0.601318
   148  H    0.352655
   149  C   -0.029359
   150  H    0.159089
   151  C    0.621410
   152  C   -0.100096
   153  H    0.137169
   154  O   -0.570258
   155  C   -0.460079
   156  H    0.152648
   157  H    0.167706
   158  H    0.139867
   159  C   -0.452272
   160  H    0.139585
   161  H    0.137813
   162  H    0.160869
   163  N   -0.607875
   164  H    0.352019
   165  C   -0.037572
   166  H    0.149900
   167  C    0.577629
   168  C   -0.275812
   169  H    0.172041
   170  H    0.141554
   171  O   -0.655356
   172  C   -0.256026
   173  H    0.123699
   174  H    0.159404
   175  C   -0.187153
   176  H    0.217869
   177  H    0.164610
   178  N   -0.594281
   179  H    0.343398
   180  N   -0.776782
   181  H    0.350888
   182  H    0.472859
   183  N   -0.757896
   184  H    0.358761
   185  H    0.355636
   186  C    0.774482
   187  O   -0.551292
   188  H    0.437921
 Sum of Mulliken charges =   1.00000

 Dipole moment (field-independent basis, Debye):
    X=            -43.8070    Y=            -14.7881    Z=            -36.2941  Tot=             58.7793
 Quadrupole moment (field-independent basis, Debye-Ang):
   XX=            147.2145   YY=            -79.4151   ZZ=           -364.7226
   XY=            517.6437   XZ=            326.0414   YZ=            204.7677

 Normal termination of Gaussian 16 at Tue Aug  9 20:48:43 2022.
