 Gaussian 16, Revision C.01,
 Gaussian 16:  ES64L-G16RevC.01  3-Jul-2019

 ----------------------------------------------------------------------
 # B3LYP/6-31G* empiricaldispersion=gd3bj guess=read geom=check nosymm
 integral(ultrafinegrid)
 ----------------------------------------------------------------------

 ------------------------------------------------------
 Candidate Structure: Conf:538 Charge calc in gas phase
 ------------------------------------------------------
 Structure from the checkpoint file:  "conf-538.chk"
 Charge =  1 Multiplicity = 1

                          Input orientation:
 ---------------------------------------------------------------------
 Center     Atomic      Atomic             Coordinates (Angstroms)
 Number     Number       Type             X           Y           Z
 ---------------------------------------------------------------------
      1          7           0       -1.104320    2.666375   -1.794371
      2          1           0       -0.805389    1.783796   -2.272615
      3          1           0       -0.304994    2.875796   -1.158161
      4          1           0       -1.222160    3.425885   -2.467991
      5          6           0       -2.346687    2.347147   -1.032648
      6          1           0       -3.029515    1.812694   -1.694021
      7          1           0       -2.810055    3.277541   -0.695611
      8          6           0       -1.900671    1.540259    0.191275
      9          8           0       -0.900791    1.907876    0.797893
     10          7           0       -2.687360    0.500364    0.543125
     11          1           0       -3.305681    0.101628   -0.152739
     12          6           0       -2.298226   -0.377019    1.631830
     13          1           0       -3.179375   -0.632045    2.230900
     14          1           0       -1.588299    0.164539    2.259317
     15          6           0       -1.683702   -1.671340    1.086324
     16          8           0       -2.052157   -2.131855    0.000075
     17          7           0       -0.787419   -2.244773    1.916465
     18          1           0       -0.393606   -1.630431    2.628247
     19          6           0        0.044272   -3.397528    1.556624
     20          1           0       -0.244069   -3.751033    0.568500
     21          1           0       -0.086109   -4.203178    2.287273
     22          6           0        1.470268   -2.849883    1.530274
     23          8           0        1.974774   -2.386908    0.511382
     24          7           0        2.068293   -2.710445    2.749637
     25          1           0        1.558507   -3.008264    3.570717
     26          6           0        2.980284   -1.586160    2.908100
     27          1           0        3.891285   -1.755507    2.328941
     28          1           0        3.250967   -1.500145    3.963099
     29          6           0        2.235430   -0.315042    2.451995
     30          8           0        1.051173   -0.148668    2.741013
     31          7           0        2.939426    0.549820    1.681331
     32          1           0        3.893189    0.315928    1.439286
     33          6           0        2.304053    1.660620    0.996337
     34          1           0        1.392715    1.920338    1.539327
     35          1           0        2.961858    2.533223    0.986238
     36          6           0        1.885638    1.378901   -0.449070
     37          8           0        1.477820    2.307560   -1.157852
     38          7           0        1.991831    0.106161   -0.886947
     39          1           0        2.212711   -0.649613   -0.240780
     40          6           0        1.531283   -0.291836   -2.211314
     41          1           0        2.140510   -1.124912   -2.565035
     42          1           0        1.620566    0.559912   -2.885115
     43          6           0        0.073186   -0.719153   -2.095847
     44          8           0       -0.876277    0.051784   -2.231356
     45          8           0       -0.058236   -1.978777   -1.740438
     46          1           0       -0.967066   -2.138279   -1.366568
 ---------------------------------------------------------------------

 SCF Done:  E(RB3LYP) =  -1325.00260186     A.U. after    1 cycles

 Alpha  occ. eigenvalues --  -19.30334 -19.26989 -19.25270 -19.24790 -19.24765
 Alpha  occ. eigenvalues --  -19.24258 -19.23572 -14.56401 -14.49554 -14.48990
 Alpha  occ. eigenvalues --  -14.48828 -14.48823 -14.48045 -10.44681 -10.42910
 Alpha  occ. eigenvalues --  -10.41829 -10.41665 -10.41482 -10.41003 -10.38676
 Alpha  occ. eigenvalues --  -10.35405 -10.34965 -10.34906 -10.34729 -10.34016
 Alpha  occ. eigenvalues --   -1.22528  -1.17842  -1.17340  -1.16290  -1.15704
 Alpha  occ. eigenvalues --   -1.15271  -1.13591  -1.11336  -1.05856  -1.05785
 Alpha  occ. eigenvalues --   -1.05333  -1.04567  -1.03685  -0.89852  -0.88489
 Alpha  occ. eigenvalues --   -0.87236  -0.85155  -0.82590  -0.80685  -0.74119
 Alpha  occ. eigenvalues --   -0.72817  -0.72403  -0.71820  -0.71166  -0.70700
 Alpha  occ. eigenvalues --   -0.70373  -0.69918  -0.67054  -0.65760  -0.64609
 Alpha  occ. eigenvalues --   -0.63070  -0.62790  -0.62211  -0.61629  -0.61211
 Alpha  occ. eigenvalues --   -0.60421  -0.60210  -0.59449  -0.58529  -0.57283
 Alpha  occ. eigenvalues --   -0.56785  -0.56531  -0.55473  -0.55302  -0.54592
 Alpha  occ. eigenvalues --   -0.53998  -0.53755  -0.53413  -0.52474  -0.52143
 Alpha  occ. eigenvalues --   -0.51921  -0.51026  -0.50890  -0.49945  -0.49580
 Alpha  occ. eigenvalues --   -0.48470  -0.48191  -0.47246  -0.43848  -0.42023
 Alpha  occ. eigenvalues --   -0.40662  -0.40328  -0.40015  -0.39773  -0.39533
 Alpha  occ. eigenvalues --   -0.37954  -0.37714  -0.37422  -0.36815  -0.36147
 Alpha virt. eigenvalues --   -0.13326  -0.12508  -0.11843  -0.10257  -0.09577
 Alpha virt. eigenvalues --   -0.08795  -0.06442  -0.04206  -0.03436  -0.03268
 Alpha virt. eigenvalues --   -0.00877   0.00351   0.01049   0.01594   0.02283

 Mulliken charges:
               1
     1  N   -0.760200
     2  H    0.433941
     3  H    0.445850
     4  H    0.401402
     5  C   -0.259651
     6  H    0.215433
     7  H    0.235997
     8  C    0.628474
     9  O   -0.505404
    10  N   -0.570635
    11  H    0.360656
    12  C   -0.267263
    13  H    0.215738
    14  H    0.233794
    15  C    0.628117
    16  O   -0.559743
    17  N   -0.588221
    18  H    0.375703
    19  C   -0.225556
    20  H    0.223306
    21  H    0.190950
    22  C    0.585478
    23  O   -0.511514
    24  N   -0.545480
    25  H    0.350290
    26  C   -0.237741
    27  H    0.195055
    28  H    0.210317
    29  C    0.604290
    30  O   -0.528463
    31  N   -0.593969
    32  H    0.351775
    33  C   -0.249315
    34  H    0.258429
    35  H    0.207105
    36  C    0.629828
    37  O   -0.578017
    38  N   -0.618692
    39  H    0.409687
    40  C   -0.205255
    41  H    0.210524
    42  H    0.201611
    43  C    0.604205
    44  O   -0.525789
    45  O   -0.542269
    46  H    0.465223
 Sum of Mulliken charges =   1.00000

 Dipole moment (field-independent basis, Debye):
    X=             -0.0079    Y=              1.7303    Z=              1.6454  Tot=              2.3877
 Quadrupole moment (field-independent basis, Debye-Ang):
   XX=           -101.8406   YY=           -111.0539   ZZ=           -108.3481
   XY=            -15.5465   XZ=             16.2238   YZ=            -29.4366

 Normal termination of Gaussian 16 at Fri Jul 15 04:10:46 2022.
