 Gaussian 16, Revision C.01,
 Gaussian 16:  ES64L-G16RevC.01  3-Jul-2019

 ----------------------------------------------------------------------
 # B3LYP/6-31G* empiricaldispersion=gd3bj guess=read geom=check nosymm
 integral(ultrafinegrid)
 ----------------------------------------------------------------------

 ------------------------------------------------------
 Candidate Structure: Conf:684 Charge calc in gas phase
 ------------------------------------------------------
 Structure from the checkpoint file:  "conf-684.chk"
 Charge =  1 Multiplicity = 1

                          Input orientation:
 ---------------------------------------------------------------------
 Center     Atomic      Atomic             Coordinates (Angstroms)
 Number     Number       Type             X           Y           Z
 ---------------------------------------------------------------------
      1          7           0        1.687256    1.374501    0.244100
      2          1           0        1.145177    1.010688   -0.569371
      3          1           0        1.893505    0.526186    0.823212
      4          1           0        2.578905    1.720317   -0.120916
      5          6           0        0.887678    2.402310    0.964455
      6          1           0        0.663507    3.216225    0.272324
      7          1           0        1.478205    2.791570    1.797634
      8          6           0       -0.363680    1.709191    1.511871
      9          8           0       -0.249699    0.629467    2.089211
     10          7           0       -1.537978    2.354707    1.341927
     11          1           0       -1.579583    3.123434    0.685517
     12          6           0       -2.803703    1.676586    1.629173
     13          1           0       -3.603225    2.417878    1.625569
     14          1           0       -2.739417    1.216044    2.616576
     15          6           0       -3.029368    0.668475    0.496181
     16          8           0       -3.275958    1.095562   -0.635478
     17          7           0       -2.828365   -0.626808    0.815264
     18          1           0       -2.700210   -0.847132    1.793898
     19          6           0       -2.595779   -1.694016   -0.143683
     20          1           0       -2.769886   -1.312566   -1.147574
     21          1           0       -3.304738   -2.514450    0.017091
     22          6           0       -1.189804   -2.311341   -0.067311
     23          8           0       -0.804322   -3.076485   -0.951023
     24          7           0       -0.492405   -2.065595    1.073675
     25          1           0       -0.631277   -1.181880    1.557194
     26          6           0        0.766350   -2.749871    1.342970
     27          1           0        0.643728   -3.810506    1.112339
     28          1           0        0.999027   -2.635821    2.402534
     29          6           0        1.894359   -2.120649    0.533220
     30          8           0        2.470082   -1.091882    0.909581
     31          7           0        2.179614   -2.721442   -0.641191
     32          1           0        1.549846   -3.457570   -0.939311
     33          6           0        3.011879   -2.042894   -1.626528
     34          1           0        3.892082   -1.633169   -1.133018
     35          1           0        3.323897   -2.766152   -2.384312
     36          6           0        2.250219   -0.873778   -2.270316
     37          8           0        2.644397    0.288515   -2.201798
     38          7           0        1.103962   -1.229872   -2.912909
     39          1           0        0.707674   -2.145612   -2.735950
     40          6           0        0.205255   -0.234208   -3.454481
     41          1           0       -0.355543   -0.646387   -4.294480
     42          1           0        0.805068    0.609118   -3.811022
     43          6           0       -0.755187    0.276384   -2.391969
     44          8           0       -0.408489    0.499614   -1.230277
     45          8           0       -1.985230    0.430829   -2.823994
     46          1           0       -2.563211    0.735182   -2.057288
 ---------------------------------------------------------------------

 SCF Done:  E(RB3LYP) =  -1325.01223911     A.U. after    1 cycles

 Alpha  occ. eigenvalues --  -19.31228 -19.27647 -19.27426 -19.26209 -19.25043
 Alpha  occ. eigenvalues --  -19.24612 -19.24340 -14.56103 -14.51881 -14.50809
 Alpha  occ. eigenvalues --  -14.49339 -14.48720 -14.48496 -10.45465 -10.44923
 Alpha  occ. eigenvalues --  -10.43439 -10.41908 -10.41885 -10.41427 -10.39742
 Alpha  occ. eigenvalues --  -10.37060 -10.35825 -10.35414 -10.35013 -10.34895
 Alpha  occ. eigenvalues --   -1.23459  -1.19699  -1.17839  -1.17205  -1.16168
 Alpha  occ. eigenvalues --   -1.15904  -1.14258  -1.11533  -1.07823  -1.07243
 Alpha  occ. eigenvalues --   -1.05987  -1.04730  -1.04230  -0.91100  -0.89403
 Alpha  occ. eigenvalues --   -0.87853  -0.85895  -0.83788  -0.81667  -0.75074
 Alpha  occ. eigenvalues --   -0.74574  -0.72842  -0.72581  -0.71991  -0.71034
 Alpha  occ. eigenvalues --   -0.70834  -0.69917  -0.68104  -0.66783  -0.65778
 Alpha  occ. eigenvalues --   -0.64118  -0.63965  -0.63496  -0.62394  -0.62032
 Alpha  occ. eigenvalues --   -0.61199  -0.60729  -0.60247  -0.60074  -0.58860
 Alpha  occ. eigenvalues --   -0.57614  -0.57039  -0.56728  -0.56091  -0.55505
 Alpha  occ. eigenvalues --   -0.55051  -0.54464  -0.53803  -0.53440  -0.52702
 Alpha  occ. eigenvalues --   -0.52401  -0.51684  -0.51173  -0.50935  -0.50394
 Alpha  occ. eigenvalues --   -0.49818  -0.49203  -0.48509  -0.44756  -0.43194
 Alpha  occ. eigenvalues --   -0.42239  -0.42098  -0.41325  -0.41158  -0.40579
 Alpha  occ. eigenvalues --   -0.39176  -0.37925  -0.37501  -0.37266  -0.36492
 Alpha virt. eigenvalues --   -0.14580  -0.13195  -0.12276  -0.11904  -0.10627
 Alpha virt. eigenvalues --   -0.10261  -0.06954  -0.05246  -0.03822  -0.03213
 Alpha virt. eigenvalues --   -0.00995  -0.00352   0.00715   0.01087   0.01450

 Mulliken charges:
               1
     1  N   -0.785943
     2  H    0.449242
     3  H    0.448335
     4  H    0.414738
     5  C   -0.260620
     6  H    0.206214
     7  H    0.242965
     8  C    0.651369
     9  O   -0.526303
    10  N   -0.567331
    11  H    0.362462
    12  C   -0.241583
    13  H    0.219374
    14  H    0.201532
    15  C    0.639670
    16  O   -0.549071
    17  N   -0.574712
    18  H    0.355320
    19  C   -0.236060
    20  H    0.207136
    21  H    0.223355
    22  C    0.606259
    23  O   -0.537456
    24  N   -0.622110
    25  H    0.397649
    26  C   -0.234479
    27  H    0.199338
    28  H    0.206810
    29  C    0.617300
    30  O   -0.557430
    31  N   -0.561063
    32  H    0.365072
    33  C   -0.244061
    34  H    0.221828
    35  H    0.206181
    36  C    0.604086
    37  O   -0.539594
    38  N   -0.564439
    39  H    0.359232
    40  C   -0.237669
    41  H    0.215496
    42  H    0.229556
    43  C    0.619369
    44  O   -0.545952
    45  O   -0.561185
    46  H    0.477176
 Sum of Mulliken charges =   1.00000

 Dipole moment (field-independent basis, Debye):
    X=             -0.4962    Y=              1.3983    Z=              0.9926  Tot=              1.7851
 Quadrupole moment (field-independent basis, Debye-Ang):
   XX=           -121.4089   YY=           -104.9644   ZZ=           -124.8401
   XY=             -4.2264   XZ=            -13.1173   YZ=              8.8091

 Normal termination of Gaussian 16 at Fri Jul 15 04:10:50 2022.
