 Gaussian 16, Revision C.01,
 Gaussian 16:  ES64L-G16RevC.01  3-Jul-2019

 ----------------------------------------------------------------------
 # B3LYP/6-31G* empiricaldispersion=gd3bj guess=read geom=check nosymm
 integral(ultrafinegrid)
 ----------------------------------------------------------------------

 ------------------------------------------------------
 Candidate Structure: Conf:669 Charge calc in gas phase
 ------------------------------------------------------
 Structure from the checkpoint file:  "conf-669.chk"
 Charge =  1 Multiplicity = 1

                          Input orientation:
 ---------------------------------------------------------------------
 Center     Atomic      Atomic             Coordinates (Angstroms)
 Number     Number       Type             X           Y           Z
 ---------------------------------------------------------------------
      1          7           0       -4.555070    2.461091   -1.030703
      2          1           0       -5.453248    2.103113   -0.694292
      3          1           0       -3.887916    1.646938   -1.237940
      4          1           0       -4.720986    2.999189   -1.885829
      5          6           0       -3.777748    3.217666    0.010478
      6          1           0       -4.349574    3.256474    0.939339
      7          1           0       -3.587656    4.233388   -0.340039
      8          6           0       -2.471447    2.395355    0.157802
      9          8           0       -2.374787    1.378301   -0.544314
     10          7           0       -1.563271    2.829187    1.021768
     11          1           0       -1.780529    3.633759    1.596888
     12          6           0       -0.233163    2.219357    1.176092
     13          1           0        0.416653    2.958351    1.643563
     14          1           0        0.165788    1.972820    0.180781
     15          6           0       -0.154298    0.946214    2.024312
     16          8           0        0.851492    0.733197    2.687895
     17          7           0       -1.219799    0.094602    1.946567
     18          1           0       -1.793936    0.150322    1.109097
     19          6           0       -1.091193   -1.262473    2.466992
     20          1           0       -1.988413   -1.534697    3.033462
     21          1           0       -0.229258   -1.288539    3.134670
     22          6           0       -0.961891   -2.200963    1.269503
     23          8           0       -1.736514   -2.073747    0.314617
     24          7           0        0.030220   -3.115895    1.306646
     25          1           0        0.721411   -3.055962    2.042625
     26          6           0        0.348092   -3.944837    0.141523
     27          1           0       -0.589364   -4.300857   -0.291317
     28          1           0        0.952704   -4.791981    0.463412
     29          6           0        1.162281   -3.113001   -0.859738
     30          8           0        2.384924   -3.194635   -0.927451
     31          7           0        0.419077   -2.238388   -1.590910
     32          1           0       -0.548434   -2.105238   -1.306589
     33          6           0        1.067410   -1.189560   -2.367037
     34          1           0        1.923119   -1.627137   -2.886897
     35          1           0        0.359088   -0.796857   -3.096781
     36          6           0        1.508496   -0.029294   -1.465149
     37          8           0        0.867179    1.027294   -1.413529
     38          7           0        2.606430   -0.275877   -0.724103
     39          1           0        3.068254   -1.182882   -0.784556
     40          6           0        3.162242    0.704642    0.182108
     41          1           0        2.558200    0.818534    1.092690
     42          1           0        3.208707    1.687150   -0.299449
     43          6           0        4.551253    0.266426    0.593534
     44          8           0        5.047148   -0.801574    0.317104
     45          8           0        5.157148    1.215581    1.331599
     46          1           0        6.032837    0.863861    1.581394
 ---------------------------------------------------------------------

 SCF Done:  E(RB3LYP) =  -1324.94290380     A.U. after    1 cycles

 Alpha  occ. eigenvalues --  -19.30373 -19.27106 -19.22468 -19.22436 -19.21599
 Alpha  occ. eigenvalues --  -19.20012 -19.19889 -14.63519 -14.53514 -14.47353
 Alpha  occ. eigenvalues --  -14.46453 -14.44134 -14.43646 -10.47165 -10.44191
 Alpha  occ. eigenvalues --  -10.39879 -10.39832 -10.39556 -10.37090 -10.36782
 Alpha  occ. eigenvalues --  -10.34535 -10.33008 -10.31959 -10.30863 -10.30608
 Alpha  occ. eigenvalues --   -1.22937  -1.18167  -1.17216  -1.14817  -1.14045
 Alpha  occ. eigenvalues --   -1.12058  -1.11160  -1.09490  -1.09327  -1.03035
 Alpha  occ. eigenvalues --   -1.02803  -1.00701  -0.99877  -0.93373  -0.87140
 Alpha  occ. eigenvalues --   -0.85141  -0.83590  -0.80896  -0.78190  -0.77416
 Alpha  occ. eigenvalues --   -0.77366  -0.75374  -0.70522  -0.69913  -0.69176
 Alpha  occ. eigenvalues --   -0.68435  -0.66655  -0.65985  -0.65925  -0.65158
 Alpha  occ. eigenvalues --   -0.63515  -0.62600  -0.61513  -0.60640  -0.58909
 Alpha  occ. eigenvalues --   -0.57955  -0.56985  -0.56906  -0.56254  -0.56116
 Alpha  occ. eigenvalues --   -0.55644  -0.55212  -0.54079  -0.53797  -0.53555
 Alpha  occ. eigenvalues --   -0.53105  -0.51816  -0.50199  -0.50125  -0.49331
 Alpha  occ. eigenvalues --   -0.49162  -0.48534  -0.47482  -0.47305  -0.46643
 Alpha  occ. eigenvalues --   -0.46127  -0.45758  -0.45335  -0.44445  -0.43049
 Alpha  occ. eigenvalues --   -0.39330  -0.37772  -0.37703  -0.36689  -0.36068
 Alpha  occ. eigenvalues --   -0.35327  -0.34937  -0.33445  -0.33105  -0.32153
 Alpha virt. eigenvalues --   -0.15600  -0.14525  -0.09763  -0.09251  -0.08956
 Alpha virt. eigenvalues --   -0.08119  -0.06980  -0.06238  -0.05267  -0.04726
 Alpha virt. eigenvalues --   -0.03586  -0.02577  -0.01247   0.00828   0.01577

 Mulliken charges:
               1
     1  N   -0.749497
     2  H    0.426937
     3  H    0.446921
     4  H    0.428359
     5  C   -0.279591
     6  H    0.249960
     7  H    0.253126
     8  C    0.634845
     9  O   -0.514382
    10  N   -0.571719
    11  H    0.365054
    12  C   -0.302846
    13  H    0.204066
    14  H    0.294927
    15  C    0.602308
    16  O   -0.488987
    17  N   -0.604968
    18  H    0.370504
    19  C   -0.231314
    20  H    0.194965
    21  H    0.203482
    22  C    0.612419
    23  O   -0.546175
    24  N   -0.574367
    25  H    0.358384
    26  C   -0.240167
    27  H    0.202674
    28  H    0.203211
    29  C    0.587908
    30  O   -0.505971
    31  N   -0.583774
    32  H    0.371989
    33  C   -0.228623
    34  H    0.203573
    35  H    0.177599
    36  C    0.590285
    37  O   -0.546548
    38  N   -0.602976
    39  H    0.395717
    40  C   -0.217737
    41  H    0.219856
    42  H    0.199581
    43  C    0.570019
    44  O   -0.443508
    45  O   -0.560702
    46  H    0.425183
 Sum of Mulliken charges =   1.00000

 Dipole moment (field-independent basis, Debye):
    X=            -17.6098    Y=             11.4507    Z=              0.8201  Tot=             21.0213
 Quadrupole moment (field-independent basis, Debye-Ang):
   XX=            -52.1844   YY=            -88.5172   ZZ=           -128.1807
   XY=            -45.0543   XZ=             15.6211   YZ=             -8.6125

 Normal termination of Gaussian 16 at Fri Jul 15 04:10:44 2022.
