 Gaussian 16, Revision C.01,
 Gaussian 16:  ES64L-G16RevC.01  3-Jul-2019

 ----------------------------------------------------------------------
 # B3LYP/6-31G* empiricaldispersion=gd3bj guess=read geom=check nosymm
 integral(ultrafinegrid)
 ----------------------------------------------------------------------

 ------------------------------------------------------
 Candidate Structure: Conf:428 Charge calc in gas phase
 ------------------------------------------------------
 Structure from the checkpoint file:  "conf-428.chk"
 Charge =  1 Multiplicity = 1

                          Input orientation:
 ---------------------------------------------------------------------
 Center     Atomic      Atomic             Coordinates (Angstroms)
 Number     Number       Type             X           Y           Z
 ---------------------------------------------------------------------
      1          7           0       -3.954194    0.853757   -2.526557
      2          1           0       -3.982662    1.103520   -3.517672
      3          1           0       -4.868369    1.022981   -2.077149
      4          1           0       -3.733786   -0.173972   -2.413345
      5          6           0       -2.940204    1.634282   -1.743841
      6          1           0       -3.027845    2.691616   -2.004837
      7          1           0       -1.943884    1.251856   -1.967893
      8          6           0       -3.337239    1.390481   -0.284000
      9          8           0       -4.538662    1.226158   -0.032608
     10          7           0       -2.336946    1.313395    0.606006
     11          1           0       -1.399734    1.178674    0.219176
     12          6           0       -2.573977    0.724334    1.931860
     13          1           0       -3.535498    1.074969    2.309843
     14          1           0       -1.773750    1.021132    2.608145
     15          6           0       -2.528063   -0.794662    1.711987
     16          8           0       -1.516969   -1.455447    1.921877
     17          7           0       -3.639483   -1.294565    1.090800
     18          1           0       -4.366371   -0.628996    0.846750
     19          6           0       -3.522225   -2.486268    0.256587
     20          1           0       -4.510717   -2.758875   -0.113968
     21          1           0       -3.123813   -3.312618    0.848829
     22          6           0       -2.613209   -2.156006   -0.935046
     23          8           0       -3.042840   -1.611591   -1.967557
     24          7           0       -1.315414   -2.456491   -0.748788
     25          1           0       -1.049794   -2.699230    0.201731
     26          6           0       -0.262835   -2.035813   -1.656551
     27          1           0       -0.721841   -1.850049   -2.629829
     28          1           0        0.467572   -2.842810   -1.760952
     29          6           0        0.391029   -0.737600   -1.169467
     30          8           0       -0.278884    0.297115   -1.012779
     31          7           0        1.701301   -0.798589   -0.932620
     32          1           0        2.252691   -1.648268   -1.053277
     33          6           0        2.487734    0.325020   -0.471465
     34          1           0        2.424623    1.160665   -1.178370
     35          1           0        2.119602    0.684588    0.497073
     36          6           0        3.932695   -0.181889   -0.347734
     37          8           0        4.207850   -1.350760   -0.613119
     38          7           0        4.833471    0.727121    0.061443
     39          1           0        4.581561    1.686653    0.275868
     40          6           0        6.233304    0.398924    0.232461
     41          1           0        6.680868    0.049975   -0.705466
     42          1           0        6.369808   -0.405219    0.964921
     43          6           0        6.947839    1.648697    0.705942
     44          8           0        6.395475    2.712016    0.893159
     45          8           0        8.255254    1.426160    0.888140
     46          1           0        8.657266    2.262907    1.191194
 ---------------------------------------------------------------------

 SCF Done:  E(RB3LYP) =  -1324.98486681     A.U. after    1 cycles

 Alpha  occ. eigenvalues --  -19.29037 -19.26740 -19.25855 -19.24561 -19.24008
 Alpha  occ. eigenvalues --  -19.23767 -19.22346 -14.58553 -14.49873 -14.49436
 Alpha  occ. eigenvalues --  -14.48498 -14.47889 -14.46444 -10.43736 -10.42541
 Alpha  occ. eigenvalues --  -10.41968 -10.41675 -10.40903 -10.39664 -10.38952
 Alpha  occ. eigenvalues --  -10.35353 -10.35064 -10.34981 -10.34391 -10.33041
 Alpha  occ. eigenvalues --   -1.20251  -1.19064  -1.17330  -1.16082  -1.15688
 Alpha  occ. eigenvalues --   -1.14345  -1.12932  -1.11462  -1.06560  -1.05772
 Alpha  occ. eigenvalues --   -1.04661  -1.04181  -1.02932  -0.90226  -0.88774
 Alpha  occ. eigenvalues --   -0.86728  -0.84857  -0.82714  -0.80602  -0.73828
 Alpha  occ. eigenvalues --   -0.73422  -0.72714  -0.72000  -0.71236  -0.70686
 Alpha  occ. eigenvalues --   -0.69844  -0.69100  -0.66512  -0.66397  -0.64810
 Alpha  occ. eigenvalues --   -0.62833  -0.62109  -0.61365  -0.60776  -0.60116
 Alpha  occ. eigenvalues --   -0.59456  -0.59280  -0.58560  -0.58256  -0.57929
 Alpha  occ. eigenvalues --   -0.57435  -0.56060  -0.55690  -0.55225  -0.54758
 Alpha  occ. eigenvalues --   -0.53929  -0.53497  -0.52753  -0.51932  -0.51567
 Alpha  occ. eigenvalues --   -0.51195  -0.50500  -0.50439  -0.49848  -0.49628
 Alpha  occ. eigenvalues --   -0.48806  -0.48135  -0.46261  -0.41749  -0.41309
 Alpha  occ. eigenvalues --   -0.41241  -0.41200  -0.40470  -0.38532  -0.38070
 Alpha  occ. eigenvalues --   -0.37804  -0.37317  -0.36371  -0.36293  -0.35764
 Alpha virt. eigenvalues --   -0.14029  -0.12739  -0.10495  -0.09428  -0.08536
 Alpha virt. eigenvalues --   -0.08494  -0.07472  -0.02724  -0.02318  -0.01330
 Alpha virt. eigenvalues --   -0.00929  -0.00550   0.00036   0.00693   0.01318

 Mulliken charges:
               1
     1  N   -0.757925
     2  H    0.408409
     3  H    0.414749
     4  H    0.455303
     5  C   -0.296967
     6  H    0.235695
     7  H    0.261022
     8  C    0.618160
     9  O   -0.539253
    10  N   -0.582876
    11  H    0.398186
    12  C   -0.247715
    13  H    0.217173
    14  H    0.209467
    15  C    0.586695
    16  O   -0.507784
    17  N   -0.574773
    18  H    0.371846
    19  C   -0.233047
    20  H    0.202571
    21  H    0.207432
    22  C    0.602986
    23  O   -0.582913
    24  N   -0.539046
    25  H    0.381138
    26  C   -0.244119
    27  H    0.213682
    28  H    0.193392
    29  C    0.630738
    30  O   -0.573636
    31  N   -0.589017
    32  H    0.376725
    33  C   -0.205442
    34  H    0.200525
    35  H    0.199696
    36  C    0.617619
    37  O   -0.520220
    38  N   -0.624891
    39  H    0.362484
    40  C   -0.183095
    41  H    0.218939
    42  H    0.219325
    43  C    0.573676
    44  O   -0.457648
    45  O   -0.549329
    46  H    0.432062
 Sum of Mulliken charges =   1.00000

 Dipole moment (field-independent basis, Debye):
    X=             -4.9123    Y=              2.4968    Z=             -6.1358  Tot=              8.2470
 Quadrupole moment (field-independent basis, Debye-Ang):
   XX=            -47.5159   YY=           -127.7636   ZZ=           -117.0977
   XY=              8.8345   XZ=             28.4575   YZ=             -5.2485

 Normal termination of Gaussian 16 at Fri Jul 15 04:10:43 2022.
