 Gaussian 16, Revision C.01,
 Gaussian 16:  ES64L-G16RevC.01  3-Jul-2019

 ----------------------------------------------------------------------
 # B3LYP/6-31G* empiricaldispersion=gd3bj guess=read geom=check nosymm
 integral(ultrafinegrid)
 ----------------------------------------------------------------------

 ------------------------------------------------------
 Candidate Structure: Conf:549 Charge calc in gas phase
 ------------------------------------------------------
 Structure from the checkpoint file:  "conf-549.chk"
 Charge =  1 Multiplicity = 1

                          Input orientation:
 ---------------------------------------------------------------------
 Center     Atomic      Atomic             Coordinates (Angstroms)
 Number     Number       Type             X           Y           Z
 ---------------------------------------------------------------------
      1          7           0       -7.358215    2.923453    3.013680
      2          1           0       -8.031540    3.318739    2.351806
      3          1           0       -6.446553    3.492743    2.996142
      4          1           0       -7.771653    2.949459    3.949626
      5          6           0       -6.850370    1.565365    2.616689
      6          1           0       -7.344704    1.238997    1.700435
      7          1           0       -7.055519    0.847333    3.412176
      8          6           0       -5.329968    1.794321    2.412956
      9          8           0       -4.905812    2.942843    2.610442
     10          7           0       -4.613067    0.748019    2.045924
     11          1           0       -5.000884   -0.187969    1.887625
     12          6           0       -3.180191    0.785374    1.804785
     13          1           0       -2.641472    1.077284    2.712952
     14          1           0       -2.938424    1.512817    1.022298
     15          6           0       -2.805935   -0.643649    1.373390
     16          8           0       -3.677184   -1.514451    1.321661
     17          7           0       -1.517086   -0.841860    1.076215
     18          1           0       -0.818860   -0.101282    1.098947
     19          6           0       -1.006150   -2.119846    0.627578
     20          1           0       -1.601269   -2.497460   -0.212316
     21          1           0       -1.061704   -2.868303    1.427865
     22          6           0        0.449689   -1.896558    0.208486
     23          8           0        0.980528   -0.791908    0.364666
     24          7           0        1.085422   -2.964236   -0.307392
     25          1           0        0.560682   -3.806179   -0.504249
     26          6           0        2.477826   -2.902770   -0.755973
     27          1           0        2.875264   -3.916620   -0.787773
     28          1           0        3.042308   -2.313057   -0.028396
     29          6           0        2.601765   -2.303925   -2.168433
     30          8           0        2.838097   -3.001414   -3.142276
     31          7           0        2.412685   -0.951637   -2.209186
     32          1           0        2.130367   -0.491472   -1.349320
     33          6           0        2.385005   -0.209600   -3.456108
     34          1           0        2.470235   -0.938366   -4.267323
     35          1           0        1.437747    0.324462   -3.577310
     36          6           0        3.506855    0.822151   -3.614836
     37          8           0        3.401727    1.753101   -4.402888
     38          7           0        4.605095    0.601517   -2.852986
     39          1           0        4.632907   -0.159492   -2.187037
     40          6           0        5.752667    1.470657   -2.904752
     41          1           0        5.452314    2.522709   -2.831508
     42          1           0        6.301221    1.375436   -3.851434
     43          6           0        6.677815    1.119268   -1.760795
     44          8           0        6.471170    0.236970   -0.954172
     45          8           0        7.769087    1.903884   -1.750306
     46          1           0        8.322161    1.613250   -1.000559
 ---------------------------------------------------------------------

 SCF Done:  E(RB3LYP) =  -1324.93751436     A.U. after    1 cycles

 Alpha  occ. eigenvalues --  -19.29528 -19.26175 -19.24267 -19.23308 -19.20791
 Alpha  occ. eigenvalues --  -19.18537 -19.16030 -14.62859 -14.51989 -14.47920
 Alpha  occ. eigenvalues --  -14.47421 -14.42934 -14.41233 -10.46347 -10.43343
 Alpha  occ. eigenvalues --  -10.41514 -10.40361 -10.38890 -10.36638 -10.35947
 Alpha  occ. eigenvalues --  -10.34356 -10.33693 -10.31518 -10.29267 -10.28510
 Alpha  occ. eigenvalues --   -1.22045  -1.17282  -1.16714  -1.16212  -1.15061
 Alpha  occ. eigenvalues --   -1.10527  -1.08588  -1.08584  -1.08021  -1.04492
 Alpha  occ. eigenvalues --   -1.03277  -0.99466  -0.97454  -0.92968  -0.88218
 Alpha  occ. eigenvalues --   -0.85137  -0.82381  -0.80532  -0.77120  -0.76777
 Alpha  occ. eigenvalues --   -0.76702  -0.74624  -0.71360  -0.69724  -0.69106
 Alpha  occ. eigenvalues --   -0.68084  -0.66009  -0.65456  -0.64310  -0.63809
 Alpha  occ. eigenvalues --   -0.63429  -0.61308  -0.60899  -0.60512  -0.58876
 Alpha  occ. eigenvalues --   -0.58670  -0.58039  -0.57129  -0.56272  -0.55219
 Alpha  occ. eigenvalues --   -0.55058  -0.54597  -0.54128  -0.53788  -0.52396
 Alpha  occ. eigenvalues --   -0.51967  -0.50805  -0.50470  -0.49480  -0.49384
 Alpha  occ. eigenvalues --   -0.48483  -0.47748  -0.47000  -0.46590  -0.45775
 Alpha  occ. eigenvalues --   -0.44708  -0.44620  -0.44227  -0.41919  -0.40834
 Alpha  occ. eigenvalues --   -0.39034  -0.38446  -0.38216  -0.37524  -0.36749
 Alpha  occ. eigenvalues --   -0.34875  -0.33530  -0.31846  -0.30749  -0.29377
 Alpha virt. eigenvalues --   -0.14565  -0.13983  -0.09826  -0.08796  -0.08402
 Alpha virt. eigenvalues --   -0.07050  -0.05396  -0.05309  -0.03562  -0.02669
 Alpha virt. eigenvalues --   -0.02214  -0.01759  -0.01071   0.00128   0.01182

 Mulliken charges:
               1
     1  N   -0.750065
     2  H    0.425541
     3  H    0.442055
     4  H    0.425370
     5  C   -0.277266
     6  H    0.251292
     7  H    0.251354
     8  C    0.641096
     9  O   -0.521514
    10  N   -0.605779
    11  H    0.382436
    12  C   -0.211302
    13  H    0.218588
    14  H    0.217575
    15  C    0.621513
    16  O   -0.529393
    17  N   -0.622995
    18  H    0.370958
    19  C   -0.198510
    20  H    0.205764
    21  H    0.209275
    22  C    0.615475
    23  O   -0.542455
    24  N   -0.587957
    25  H    0.354943
    26  C   -0.246735
    27  H    0.200831
    28  H    0.204711
    29  C    0.583067
    30  O   -0.483372
    31  N   -0.621281
    32  H    0.366240
    33  C   -0.228603
    34  H    0.224850
    35  H    0.176492
    36  C    0.595836
    37  O   -0.515952
    38  N   -0.606889
    39  H    0.353577
    40  C   -0.173833
    41  H    0.209697
    42  H    0.208224
    43  C    0.565520
    44  O   -0.466094
    45  O   -0.554663
    46  H    0.422376
 Sum of Mulliken charges =   1.00000

 Dipole moment (field-independent basis, Debye):
    X=            -26.5382    Y=              6.0818    Z=             14.5847  Tot=             30.8865
 Quadrupole moment (field-independent basis, Debye-Ang):
   XX=             97.2052   YY=           -113.9721   ZZ=           -127.6270
   XY=            -66.9974   XZ=            -74.3226   YZ=             27.2793

 Normal termination of Gaussian 16 at Fri Jul 15 04:10:42 2022.
