 Gaussian 16, Revision C.01,
 Gaussian 16:  ES64L-G16RevC.01  3-Jul-2019

 ----------------------------------------------------------------------
 # B3LYP/6-31G* empiricaldispersion=gd3bj guess=read geom=check nosymm
 integral(ultrafinegrid)
 ----------------------------------------------------------------------

 ------------------------------------------------------
 Candidate Structure: Conf:197 Charge calc in gas phase
 ------------------------------------------------------
 Structure from the checkpoint file:  "conf-197.chk"
 Charge =  1 Multiplicity = 1

                          Input orientation:
 ---------------------------------------------------------------------
 Center     Atomic      Atomic             Coordinates (Angstroms)
 Number     Number       Type             X           Y           Z
 ---------------------------------------------------------------------
      1          7           0       -4.895274    8.258413    2.751995
      2          1           0       -4.983331    9.122357    2.210701
      3          1           0       -3.897095    8.168422    3.149369
      4          1           0       -5.578120    8.282249    3.513763
      5          6           0       -4.969008    7.012373    1.914900
      6          1           0       -5.146300    7.277006    0.871436
      7          1           0       -5.781689    6.376189    2.268613
      8          6           0       -3.578412    6.357482    2.125421
      9          8           0       -2.788681    6.956340    2.873091
     10          7           0       -3.353730    5.222352    1.493566
     11          1           0       -4.033728    4.757278    0.880068
     12          6           0       -2.113371    4.468240    1.569541
     13          1           0       -1.904945    4.166991    2.601759
     14          1           0       -1.270045    5.072157    1.217826
     15          6           0       -2.338214    3.241598    0.664340
     16          8           0       -3.419346    3.107887    0.082922
     17          7           0       -1.313358    2.393061    0.577386
     18          1           0       -0.427598    2.525330    1.066754
     19          6           0       -1.339955    1.188575   -0.225783
     20          1           0       -1.521568    1.426221   -1.280554
     21          1           0       -2.143646    0.518240    0.101047
     22          6           0        0.032595    0.523004   -0.044636
     23          8           0        0.883865    1.039023    0.681978
     24          7           0        0.212224   -0.620881   -0.719347
     25          1           0       -0.498297   -1.034543   -1.319627
     26          6           0        1.443849   -1.375808   -0.665772
     27          1           0        1.666001   -1.691234    0.361167
     28          1           0        2.291072   -0.767302   -1.005130
     29          6           0        1.257317   -2.595705   -1.575227
     30          8           0        0.200072   -2.780130   -2.178781
     31          7           0        2.315351   -3.420957   -1.655343
     32          1           0        3.183142   -3.262292   -1.150334
     33          6           0        2.304690   -4.613972   -2.468420
     34          1           0        1.530369   -5.314575   -2.128000
     35          1           0        2.081141   -4.372623   -3.514854
     36          6           0        3.683657   -5.263278   -2.344761
     37          8           0        4.542547   -4.796434   -1.604619
     38          7           0        3.878195   -6.359173   -3.126288
     39          1           0        3.070171   -6.774269   -3.571188
     40          6           0        5.048755   -7.191420   -2.949140
     41          1           0        5.874528   -6.552664   -2.628627
     42          1           0        5.334704   -7.650504   -3.899955
     43          6           0        4.909969   -8.306031   -1.917880
     44          8           0        5.798475   -9.077695   -1.651873
     45          8           0        3.683460   -8.341572   -1.346739
     46          1           0        3.705767   -9.077627   -0.705785
 ---------------------------------------------------------------------

 SCF Done:  E(RB3LYP) =  -1324.94172817     A.U. after    2 cycles

 Alpha  occ. eigenvalues --  -19.28734 -19.25889 -19.22843 -19.20214 -19.19605
 Alpha  occ. eigenvalues --  -19.19441 -19.19184 -14.62094 -14.51031 -14.46201
 Alpha  occ. eigenvalues --  -14.43988 -14.43745 -14.43200 -10.45497 -10.42590
 Alpha  occ. eigenvalues --  -10.40053 -10.38079 -10.37464 -10.36591 -10.36427
 Alpha  occ. eigenvalues --  -10.35478 -10.32164 -10.30625 -10.30354 -10.30010
 Alpha  occ. eigenvalues --   -1.21243  -1.16565  -1.15770  -1.14826  -1.12313
 Alpha  occ. eigenvalues --   -1.11665  -1.10824  -1.07625  -1.07532  -1.02790
 Alpha  occ. eigenvalues --   -1.00591  -1.00202  -0.99657  -0.92112  -0.86807
 Alpha  occ. eigenvalues --   -0.84461  -0.82758  -0.80117  -0.76844  -0.76077
 Alpha  occ. eigenvalues --   -0.75930  -0.73551  -0.69744  -0.68531  -0.68125
 Alpha  occ. eigenvalues --   -0.67425  -0.66530  -0.65605  -0.64902  -0.63046
 Alpha  occ. eigenvalues --   -0.62598  -0.60961  -0.59794  -0.59446  -0.57707
 Alpha  occ. eigenvalues --   -0.56820  -0.56641  -0.55680  -0.55279  -0.54837
 Alpha  occ. eigenvalues --   -0.54437  -0.54289  -0.53615  -0.53349  -0.52660
 Alpha  occ. eigenvalues --   -0.52167  -0.51312  -0.50825  -0.50009  -0.48156
 Alpha  occ. eigenvalues --   -0.47930  -0.47240  -0.46379  -0.46113  -0.45534
 Alpha  occ. eigenvalues --   -0.45246  -0.44312  -0.43855  -0.42623  -0.41003
 Alpha  occ. eigenvalues --   -0.37571  -0.37528  -0.36154  -0.35923  -0.34855
 Alpha  occ. eigenvalues --   -0.34020  -0.33933  -0.32842  -0.32653  -0.31466
 Alpha virt. eigenvalues --   -0.13747  -0.13338  -0.08408  -0.07712  -0.06253
 Alpha virt. eigenvalues --   -0.05788  -0.05216  -0.04730  -0.04109  -0.02750
 Alpha virt. eigenvalues --   -0.01857   0.00203   0.00509   0.01215   0.01600

 Mulliken charges:
               1
     1  N   -0.750984
     2  H    0.423653
     3  H    0.441591
     4  H    0.423659
     5  C   -0.276930
     6  H    0.249936
     7  H    0.250007
     8  C    0.640669
     9  O   -0.524920
    10  N   -0.604694
    11  H    0.381990
    12  C   -0.212171
    13  H    0.216352
    14  H    0.216333
    15  C    0.621239
    16  O   -0.535580
    17  N   -0.621680
    18  H    0.370074
    19  C   -0.200374
    20  H    0.202023
    21  H    0.202072
    22  C    0.613633
    23  O   -0.533343
    24  N   -0.623570
    25  H    0.364493
    26  C   -0.195248
    27  H    0.198152
    28  H    0.198501
    29  C    0.610463
    30  O   -0.532725
    31  N   -0.624930
    32  H    0.364453
    33  C   -0.195797
    34  H    0.197019
    35  H    0.197231
    36  C    0.605037
    37  O   -0.513572
    38  N   -0.584517
    39  H    0.342735
    40  C   -0.243735
    41  H    0.236447
    42  H    0.204466
    43  C    0.586469
    44  O   -0.438509
    45  O   -0.566649
    46  H    0.421231
 Sum of Mulliken charges =   1.00000

 Dipole moment (field-independent basis, Debye):
    X=            -18.4986    Y=             24.4244    Z=              5.9886  Tot=             31.2188
 Quadrupole moment (field-independent basis, Debye-Ang):
   XX=            -56.2483   YY=            134.8430   ZZ=           -105.1068
   XY=           -158.1797   XZ=            -62.2466   YZ=             90.0017

 Normal termination of Gaussian 16 at Fri Jul 15 04:10:46 2022.
