 Gaussian 16, Revision C.01,
 Gaussian 16:  ES64L-G16RevC.01  3-Jul-2019

 ----------------------------------------------------------------------
 # B3LYP/6-31G* empiricaldispersion=gd3bj guess=read geom=check nosymm
 integral(ultrafinegrid)
 ----------------------------------------------------------------------

 ------------------------------------------------------
 Candidate Structure: Conf:472 Charge calc in gas phase
 ------------------------------------------------------
 Structure from the checkpoint file:  "conf-472.chk"
 Charge =  1 Multiplicity = 1

                          Input orientation:
 ---------------------------------------------------------------------
 Center     Atomic      Atomic             Coordinates (Angstroms)
 Number     Number       Type             X           Y           Z
 ---------------------------------------------------------------------
      1          7           0       -4.269079    2.470709    0.183958
      2          1           0       -4.305643    2.631807    1.193179
      3          1           0       -3.608515    1.668677   -0.060352
      4          1           0       -5.199803    2.224075   -0.184084
      5          6           0       -3.796401    3.658450   -0.596099
      6          1           0       -2.740631    3.815479   -0.373581
      7          1           0       -4.380532    4.536305   -0.309737
      8          6           0       -4.068161    3.250802   -2.049402
      9          8           0       -5.078623    2.578893   -2.270062
     10          7           0       -3.157247    3.597966   -2.973660
     11          1           0       -2.281045    3.994459   -2.655287
     12          6           0       -3.097912    2.864100   -4.248481
     13          1           0       -2.478136    3.420022   -4.950299
     14          1           0       -4.110248    2.762405   -4.641302
     15          6           0       -2.428543    1.523107   -3.910898
     16          8           0       -1.216351    1.377934   -3.949189
     17          7           0       -3.276061    0.574483   -3.411267
     18          1           0       -4.236867    0.841485   -3.236263
     19          6           0       -2.710897   -0.523043   -2.656975
     20          1           0       -2.049044   -1.112717   -3.296294
     21          1           0       -3.527275   -1.172282   -2.326183
     22          6           0       -1.942991   -0.032509   -1.421455
     23          8           0       -2.351661    0.913541   -0.708095
     24          7           0       -0.829575   -0.692522   -1.135028
     25          1           0       -0.435095   -1.399409   -1.757689
     26          6           0        0.029599   -0.395169   -0.009056
     27          1           0       -0.496707   -0.558483    0.938606
     28          1           0        0.349786    0.652956   -0.035009
     29          6           0        1.240021   -1.335888   -0.129730
     30          8           0        1.321533   -2.125487   -1.069704
     31          7           0        2.157201   -1.217655    0.841043
     32          1           0        2.077733   -0.553740    1.607947
     33          6           0        3.366957   -2.008331    0.874827
     34          1           0        3.135364   -3.076100    0.981874
     35          1           0        3.936029   -1.891438   -0.055123
     36          6           0        4.179825   -1.524626    2.078477
     37          8           0        3.739315   -0.659867    2.830122
     38          7           0        5.401087   -2.097517    2.223043
     39          1           0        5.615005   -2.913266    1.664373
     40          6           0        6.179434   -1.881641    3.425194
     41          1           0        5.998505   -0.863692    3.775350
     42          1           0        7.246172   -1.970281    3.199954
     43          6           0        5.867118   -2.823804    4.583370
     44          8           0        6.380343   -2.728919    5.670516
     45          8           0        4.970920   -3.781812    4.250524
     46          1           0        4.847839   -4.326917    5.051178
 ---------------------------------------------------------------------

 SCF Done:  E(RB3LYP) =  -1324.96054501     A.U. after    3 cycles

 Alpha  occ. eigenvalues --  -19.27703 -19.27263 -19.25761 -19.23116 -19.21941
 Alpha  occ. eigenvalues --  -19.21382 -19.20981 -14.59444 -14.51736 -14.48530
 Alpha  occ. eigenvalues --  -14.47481 -14.45805 -14.45567 -10.45053 -10.42162
 Alpha  occ. eigenvalues --  -10.41058 -10.40273 -10.39475 -10.39272 -10.38524
 Alpha  occ. eigenvalues --  -10.35451 -10.35020 -10.34338 -10.32472 -10.31577
 Alpha  occ. eigenvalues --   -1.20225  -1.17939  -1.16906  -1.15205  -1.14200
 Alpha  occ. eigenvalues --   -1.13831  -1.13186  -1.08927  -1.07758  -1.04896
 Alpha  occ. eigenvalues --   -1.03895  -1.02452  -1.01876  -0.91029  -0.88190
 Alpha  occ. eigenvalues --   -0.86003  -0.84419  -0.81920  -0.79249  -0.75034
 Alpha  occ. eigenvalues --   -0.74040  -0.73873  -0.71287  -0.70115  -0.69966
 Alpha  occ. eigenvalues --   -0.69003  -0.67697  -0.67109  -0.66037  -0.64133
 Alpha  occ. eigenvalues --   -0.63679  -0.62046  -0.61233  -0.60617  -0.59685
 Alpha  occ. eigenvalues --   -0.58703  -0.58307  -0.57723  -0.56974  -0.56680
 Alpha  occ. eigenvalues --   -0.55927  -0.55314  -0.55115  -0.54415  -0.54196
 Alpha  occ. eigenvalues --   -0.53040  -0.52872  -0.52248  -0.52114  -0.51384
 Alpha  occ. eigenvalues --   -0.49950  -0.49733  -0.48804  -0.48504  -0.47796
 Alpha  occ. eigenvalues --   -0.46859  -0.46780  -0.45211  -0.42551  -0.41602
 Alpha  occ. eigenvalues --   -0.40554  -0.39041  -0.38950  -0.37635  -0.37379
 Alpha  occ. eigenvalues --   -0.36570  -0.36131  -0.35391  -0.35206  -0.33152
 Alpha virt. eigenvalues --   -0.14857  -0.11325  -0.09717  -0.09007  -0.07630
 Alpha virt. eigenvalues --   -0.06568  -0.06105  -0.05930  -0.03537  -0.02329
 Alpha virt. eigenvalues --   -0.01202  -0.01036  -0.00516   0.00012   0.00141

 Mulliken charges:
               1
     1  N   -0.747966
     2  H    0.408939
     3  H    0.447602
     4  H    0.416034
     5  C   -0.271504
     6  H    0.226516
     7  H    0.245592
     8  C    0.640361
     9  O   -0.527108
    10  N   -0.564755
    11  H    0.362025
    12  C   -0.250962
    13  H    0.216530
    14  H    0.216618
    15  C    0.587263
    16  O   -0.489275
    17  N   -0.568841
    18  H    0.363759
    19  C   -0.243340
    20  H    0.210136
    21  H    0.198256
    22  C    0.658914
    23  O   -0.626747
    24  N   -0.579107
    25  H    0.383884
    26  C   -0.204113
    27  H    0.193008
    28  H    0.198602
    29  C    0.617869
    30  O   -0.522476
    31  N   -0.625162
    32  H    0.362986
    33  C   -0.199772
    34  H    0.202405
    35  H    0.203796
    36  C    0.608105
    37  O   -0.518475
    38  N   -0.583146
    39  H    0.346494
    40  C   -0.244719
    41  H    0.234971
    42  H    0.208428
    43  C    0.588675
    44  O   -0.434952
    45  O   -0.568284
    46  H    0.422936
 Sum of Mulliken charges =   1.00000

 Dipole moment (field-independent basis, Debye):
    X=            -10.9531    Y=              6.5983    Z=             -1.0864  Tot=             12.8331
 Quadrupole moment (field-independent basis, Debye-Ang):
   XX=            -57.8114   YY=            -85.0419   ZZ=           -138.2515
   XY=            -55.8140   XZ=              5.9427   YZ=            -16.5070

 Normal termination of Gaussian 16 at Fri Jul 15 04:10:52 2022.
