 Gaussian 16, Revision C.01,
 Gaussian 16:  ES64L-G16RevC.01  3-Jul-2019

 ----------------------------------------------------------------------
 # B3LYP/6-31G* empiricaldispersion=gd3bj guess=read geom=check nosymm
 integral(ultrafinegrid)
 ----------------------------------------------------------------------

 ------------------------------------------------------
 Candidate Structure: Conf:315 Charge calc in gas phase
 ------------------------------------------------------
 Structure from the checkpoint file:  "conf-315.chk"
 Charge =  1 Multiplicity = 1

                          Input orientation:
 ---------------------------------------------------------------------
 Center     Atomic      Atomic             Coordinates (Angstroms)
 Number     Number       Type             X           Y           Z
 ---------------------------------------------------------------------
      1          7           0       -9.494040    3.713271    1.530140
      2          1           0      -10.359831    3.178315    1.636668
      3          1           0       -9.737193    4.687535    1.333140
      4          1           0       -8.904988    3.651433    2.430968
      5          6           0       -8.535965    3.118290    0.536706
      6          1           0       -8.310562    3.847402   -0.242951
      7          1           0       -8.977385    2.229830    0.082761
      8          6           0       -7.291719    2.778965    1.399193
      9          8           0       -7.361968    3.050943    2.608559
     10          7           0       -6.267434    2.231632    0.775350
     11          1           0       -6.247148    2.021870   -0.230108
     12          6           0       -5.020586    1.847268    1.416137
     13          1           0       -5.200256    1.104052    2.200335
     14          1           0       -4.538129    2.715201    1.878244
     15          6           0       -4.154968    1.264769    0.281965
     16          8           0       -4.609423    1.222162   -0.865501
     17          7           0       -2.943764    0.838798    0.641003
     18          1           0       -2.589328    0.883859    1.597079
     19          6           0       -1.992431    0.262459   -0.286079
     20          1           0       -1.745181    0.972351   -1.084148
     21          1           0       -2.405395   -0.634262   -0.762897
     22          6           0       -0.745375   -0.084671    0.541291
     23          8           0       -0.717910    0.145152    1.751980
     24          7           0        0.264990   -0.636011   -0.144317
     25          1           0        0.228442   -0.819620   -1.145174
     26          6           0        1.512821   -1.024876    0.473390
     27          1           0        1.344742   -1.768814    1.261786
     28          1           0        2.002553   -0.163250    0.943522
     29          6           0        2.394656   -1.606530   -0.638194
     30          8           0        1.988456   -1.669844   -1.799062
     31          7           0        3.609520   -2.027355   -0.248272
     32          1           0        3.936489   -1.971735    0.713066
     33          6           0        4.563267   -2.600891   -1.168649
     34          1           0        4.152508   -3.496600   -1.651589
     35          1           0        4.810849   -1.892249   -1.969126
     36          6           0        5.814514   -2.954330   -0.359627
     37          8           0        5.874739   -2.740929    0.849679
     38          7           0        6.822509   -3.506304   -1.065060
     39          1           0        6.757365   -3.675579   -2.062787
     40          6           0        8.065956   -3.892053   -0.437136
     41          1           0        7.903846   -4.635547    0.352649
     42          1           0        8.558387   -3.035621    0.039147
     43          6           0        8.974813   -4.472163   -1.499756
     44          8           0        8.674972   -4.578830   -2.669513
     45          8           0       10.153351   -4.852988   -0.982913
     46          1           0       10.686253   -5.214839   -1.716471
 ---------------------------------------------------------------------

 SCF Done:  E(RB3LYP) =  -1324.94651134     A.U. after    3 cycles

 Alpha  occ. eigenvalues --  -19.28643 -19.26651 -19.22718 -19.21292 -19.20019
 Alpha  occ. eigenvalues --  -19.18847 -19.18707 -14.62013 -14.50930 -14.46062
 Alpha  occ. eigenvalues --  -14.43762 -14.43037 -14.42814 -10.45403 -10.42504
 Alpha  occ. eigenvalues --  -10.39925 -10.39456 -10.37266 -10.36091 -10.35964
 Alpha  occ. eigenvalues --  -10.35370 -10.31992 -10.30368 -10.30283 -10.29880
 Alpha  occ. eigenvalues --   -1.21152  -1.17802  -1.15684  -1.14703  -1.12089
 Alpha  occ. eigenvalues --   -1.11122  -1.10377  -1.08941  -1.07525  -1.02648
 Alpha  occ. eigenvalues --   -1.00359  -0.99693  -0.99213  -0.92021  -0.86675
 Alpha  occ. eigenvalues --   -0.84286  -0.82857  -0.80265  -0.76847  -0.76000
 Alpha  occ. eigenvalues --   -0.75848  -0.73445  -0.69706  -0.68902  -0.68028
 Alpha  occ. eigenvalues --   -0.67109  -0.66257  -0.65327  -0.64796  -0.62747
 Alpha  occ. eigenvalues --   -0.62508  -0.60428  -0.59413  -0.59338  -0.56901
 Alpha  occ. eigenvalues --   -0.56633  -0.56432  -0.55828  -0.55812  -0.54847
 Alpha  occ. eigenvalues --   -0.54717  -0.54215  -0.53879  -0.53105  -0.52702
 Alpha  occ. eigenvalues --   -0.52443  -0.52169  -0.50697  -0.49818  -0.48494
 Alpha  occ. eigenvalues --   -0.47809  -0.47651  -0.46646  -0.45833  -0.45544
 Alpha  occ. eigenvalues --   -0.45383  -0.43765  -0.43613  -0.42013  -0.40906
 Alpha  occ. eigenvalues --   -0.38903  -0.37404  -0.36009  -0.35397  -0.34640
 Alpha  occ. eigenvalues --   -0.33871  -0.33474  -0.32956  -0.32337  -0.31699
 Alpha virt. eigenvalues --   -0.13655  -0.13264  -0.08299  -0.07616  -0.06165
 Alpha virt. eigenvalues --   -0.05933  -0.05559  -0.04572  -0.03574  -0.02663
 Alpha virt. eigenvalues --   -0.01770   0.00322   0.01324   0.01414   0.01743

 Mulliken charges:
               1
     1  N   -0.750999
     2  H    0.423544
     3  H    0.423542
     4  H    0.441491
     5  C   -0.276967
     6  H    0.249913
     7  H    0.249939
     8  C    0.640640
     9  O   -0.525150
    10  N   -0.604647
    11  H    0.382037
    12  C   -0.212193
    13  H    0.216210
    14  H    0.216216
    15  C    0.621282
    16  O   -0.535780
    17  N   -0.621562
    18  H    0.369923
    19  C   -0.200599
    20  H    0.202028
    21  H    0.202073
    22  C    0.613501
    23  O   -0.534097
    24  N   -0.623326
    25  H    0.364685
    26  C   -0.195275
    27  H    0.197607
    28  H    0.197649
    29  C    0.610236
    30  O   -0.533053
    31  N   -0.624264
    32  H    0.363527
    33  C   -0.193182
    34  H    0.196180
    35  H    0.196116
    36  C    0.610124
    37  O   -0.525681
    38  N   -0.626109
    39  H    0.360859
    40  C   -0.177391
    41  H    0.212889
    42  H    0.212916
    43  C    0.569400
    44  O   -0.457193
    45  O   -0.554171
    46  H    0.427111
 Sum of Mulliken charges =   1.00000

 Dipole moment (field-independent basis, Debye):
    X=            -28.1996    Y=              9.7667    Z=              2.7529  Tot=             29.9697
 Quadrupole moment (field-independent basis, Debye-Ang):
   XX=            259.8318   YY=            -72.4378   ZZ=           -150.4382
   XY=           -158.7408   XZ=            -50.3938   YZ=             16.5011

 Normal termination of Gaussian 16 at Fri Jul 15 04:10:49 2022.
