 Gaussian 16, Revision C.01,
 Gaussian 16:  ES64L-G16RevC.01  3-Jul-2019

 ----------------------------------------------------------------------
 # B3LYP/6-31G* empiricaldispersion=gd3bj guess=read geom=check nosymm
 integral(ultrafinegrid)
 ----------------------------------------------------------------------

 ------------------------------------------------------
 Candidate Structure: Conf:961 Charge calc in gas phase
 ------------------------------------------------------
 Structure from the checkpoint file:  "conf-961.chk"
 Charge =  1 Multiplicity = 1

                          Input orientation:
 ---------------------------------------------------------------------
 Center     Atomic      Atomic             Coordinates (Angstroms)
 Number     Number       Type             X           Y           Z
 ---------------------------------------------------------------------
      1          7           0       -0.273641    2.038470   -0.893425
      2          1           0        0.512567    2.269415   -1.521786
      3          1           0        0.168812    1.475311   -0.122012
      4          1           0       -0.627584    2.892018   -0.455607
      5          6           0       -1.357485    1.256810   -1.543854
      6          1           0       -0.864907    0.492337   -2.150156
      7          1           0       -1.942789    1.911548   -2.195023
      8          6           0       -2.214701    0.646966   -0.433711
      9          8           0       -2.057105    0.984679    0.734202
     10          7           0       -3.137836   -0.269514   -0.825560
     11          1           0       -3.033695   -0.686502   -1.741859
     12          6           0       -3.728351   -1.100071    0.208361
     13          1           0       -4.479120   -1.749916   -0.250244
     14          1           0       -4.227896   -0.463191    0.942387
     15          6           0       -2.637844   -1.956007    0.872095
     16          8           0       -1.604649   -2.244346    0.277382
     17          7           0       -2.863747   -2.354350    2.150944
     18          1           0       -3.751301   -2.160461    2.594595
     19          6           0       -1.922931   -3.267675    2.790686
     20          1           0       -1.858619   -4.215360    2.250506
     21          1           0       -2.272235   -3.464421    3.807930
     22          6           0       -0.499309   -2.703749    2.841210
     23          8           0        0.477192   -3.429522    2.682320
     24          7           0       -0.391442   -1.373249    3.122088
     25          1           0       -1.210856   -0.790528    2.997690
     26          6           0        0.910583   -0.722000    3.023747
     27          1           0        1.660162   -1.390565    3.451380
     28          1           0        0.891187    0.218779    3.573302
     29          6           0        1.174573   -0.427398    1.550121
     30          8           0        0.956758    0.695552    1.083864
     31          7           0        1.576825   -1.482516    0.796886
     32          1           0        1.538582   -2.384560    1.273385
     33          6           0        1.295766   -1.504439   -0.636285
     34          1           0        1.694953   -2.441870   -1.036482
     35          1           0        0.217348   -1.506044   -0.811252
     36          6           0        1.901176   -0.364211   -1.446704
     37          8           0        1.301764    0.093238   -2.421944
     38          7           0        3.140807    0.049350   -1.097083
     39          1           0        3.546464   -0.303482   -0.241040
     40          6           0        3.874291    1.005200   -1.892764
     41          1           0        3.739461    0.767612   -2.955009
     42          1           0        4.939643    0.928283   -1.669188
     43          6           0        3.433020    2.453972   -1.719885
     44          8           0        2.333321    2.842975   -1.375355
     45          8           0        4.428825    3.282261   -2.052976
     46          1           0        4.094888    4.198551   -1.995320
 ---------------------------------------------------------------------

 SCF Done:  E(RB3LYP) =  -1324.99847602     A.U. after    3 cycles

 Alpha  occ. eigenvalues --  -19.31584 -19.26621 -19.25391 -19.25056 -19.24238
 Alpha  occ. eigenvalues --  -19.23518 -19.22718 -14.55029 -14.49301 -14.49083
 Alpha  occ. eigenvalues --  -14.48257 -14.47898 -14.47426 -10.44675 -10.42584
 Alpha  occ. eigenvalues --  -10.41317 -10.41303 -10.40866 -10.40071 -10.37434
 Alpha  occ. eigenvalues --  -10.35645 -10.35381 -10.34317 -10.33954 -10.33904
 Alpha  occ. eigenvalues --   -1.22890  -1.17925  -1.16731  -1.16284  -1.15400
 Alpha  occ. eigenvalues --   -1.14539  -1.13788  -1.10304  -1.05667  -1.05072
 Alpha  occ. eigenvalues --   -1.05023  -1.04012  -1.02946  -0.89324  -0.88520
 Alpha  occ. eigenvalues --   -0.86695  -0.84728  -0.82419  -0.80504  -0.74616
 Alpha  occ. eigenvalues --   -0.72836  -0.71379  -0.70952  -0.70541  -0.70210
 Alpha  occ. eigenvalues --   -0.69676  -0.68906  -0.66153  -0.65053  -0.64262
 Alpha  occ. eigenvalues --   -0.63054  -0.62448  -0.62012  -0.61659  -0.60386
 Alpha  occ. eigenvalues --   -0.60080  -0.59615  -0.58053  -0.57744  -0.57549
 Alpha  occ. eigenvalues --   -0.56712  -0.56226  -0.55509  -0.55306  -0.54222
 Alpha  occ. eigenvalues --   -0.53723  -0.52996  -0.52327  -0.52200  -0.52033
 Alpha  occ. eigenvalues --   -0.51723  -0.50876  -0.50617  -0.50022  -0.49364
 Alpha  occ. eigenvalues --   -0.49112  -0.47712  -0.47004  -0.44092  -0.41180
 Alpha  occ. eigenvalues --   -0.40380  -0.39909  -0.39449  -0.39113  -0.38875
 Alpha  occ. eigenvalues --   -0.37865  -0.37619  -0.36979  -0.36334  -0.35756
 Alpha virt. eigenvalues --   -0.11818  -0.11596  -0.11561  -0.10078  -0.09588
 Alpha virt. eigenvalues --   -0.08707  -0.05808  -0.04373  -0.03652  -0.03080
 Alpha virt. eigenvalues --   -0.02252   0.00235   0.00439   0.01043   0.01765

 Mulliken charges:
               1
     1  N   -0.774010
     2  H    0.440145
     3  H    0.467893
     4  H    0.398394
     5  C   -0.293471
     6  H    0.256873
     7  H    0.225422
     8  C    0.619682
     9  O   -0.514063
    10  N   -0.562916
    11  H    0.354796
    12  C   -0.256255
    13  H    0.210141
    14  H    0.204979
    15  C    0.624982
    16  O   -0.514052
    17  N   -0.613917
    18  H    0.353682
    19  C   -0.216666
    20  H    0.216228
    21  H    0.202450
    22  C    0.617101
    23  O   -0.521902
    24  N   -0.569111
    25  H    0.356271
    26  C   -0.233724
    27  H    0.211326
    28  H    0.199099
    29  C    0.597655
    30  O   -0.545039
    31  N   -0.595147
    32  H    0.390468
    33  C   -0.247157
    34  H    0.207620
    35  H    0.215337
    36  C    0.610259
    37  O   -0.555076
    38  N   -0.559453
    39  H    0.357987
    40  C   -0.230029
    41  H    0.233872
    42  H    0.211539
    43  C    0.609520
    44  O   -0.492622
    45  O   -0.530883
    46  H    0.431773
 Sum of Mulliken charges =   1.00000

 Dipole moment (field-independent basis, Debye):
    X=             -2.1738    Y=              2.0223    Z=             -0.3216  Tot=              2.9864
 Quadrupole moment (field-independent basis, Debye-Ang):
   XX=            -81.2045   YY=           -115.2109   ZZ=           -118.2337
   XY=             22.4376   XZ=            -13.3418   YZ=            -17.2467

 Normal termination of Gaussian 16 at Fri Jul 15 04:11:03 2022.
