 Gaussian 16, Revision C.01,
 Gaussian 16:  ES64L-G16RevC.01  3-Jul-2019

 ----------------------------------------------------------------------
 # B3LYP/6-31G* empiricaldispersion=gd3bj guess=read geom=check nosymm
 integral(ultrafinegrid)
 ----------------------------------------------------------------------

 -----------------------------------------------------
 Candidate Structure: Conf:35 Charge calc in gas phase
 -----------------------------------------------------
 Structure from the checkpoint file:  "conf-35.chk"
 Charge =  1 Multiplicity = 1

                          Input orientation:
 ---------------------------------------------------------------------
 Center     Atomic      Atomic             Coordinates (Angstroms)
 Number     Number       Type             X           Y           Z
 ---------------------------------------------------------------------
      1          7           0       -2.989622   -1.123374    0.738497
      2          1           0       -2.612152   -1.061604   -0.245553
      3          1           0       -3.757172   -1.800026    0.735899
      4          1           0       -2.194128   -1.536416    1.295274
      5          6           0       -3.437308    0.205625    1.259796
      6          1           0       -3.991064    0.042048    2.185855
      7          1           0       -4.094589    0.661643    0.516482
      8          6           0       -2.177186    1.019472    1.581917
      9          8           0       -1.410854    0.617556    2.440503
     10          7           0       -2.008604    2.160727    0.855872
     11          1           0       -2.627256    2.305552    0.068522
     12          6           0       -0.684934    2.746187    0.750509
     13          1           0       -0.195821    2.681886    1.727006
     14          1           0       -0.763994    3.797731    0.463238
     15          6           0        0.150322    1.916472   -0.229374
     16          8           0       -0.012814    0.703212   -0.305341
     17          7           0        1.021921    2.583695   -1.036047
     18          1           0        1.217203    3.554821   -0.826301
     19          6           0        2.053423    1.848133   -1.767416
     20          1           0        2.851111    1.516081   -1.099927
     21          1           0        2.481942    2.518378   -2.518851
     22          6           0        1.506430    0.595817   -2.456937
     23          8           0        2.124244   -0.467389   -2.413574
     24          7           0        0.346814    0.757139   -3.148999
     25          1           0       -0.167003    1.611150   -2.977896
     26          6           0       -0.424604   -0.406170   -3.572979
     27          1           0        0.190904   -1.019538   -4.235420
     28          1           0       -1.298728   -0.060612   -4.125029
     29          6           0       -0.909080   -1.224834   -2.365333
     30          8           0       -2.003388   -0.994409   -1.829017
     31          7           0       -0.051115   -2.188636   -1.974449
     32          1           0        0.881029   -2.128789   -2.374444
     33          6           0       -0.259369   -3.008918   -0.796464
     34          1           0       -1.304669   -3.317312   -0.751891
     35          1           0        0.350049   -3.912585   -0.894222
     36          6           0        0.068399   -2.318154    0.536912
     37          8           0       -0.730119   -2.377100    1.484709
     38          7           0        1.251030   -1.696645    0.625905
     39          1           0        1.820522   -1.577989   -0.204977
     40          6           0        1.545518   -0.844303    1.777920
     41          1           0        1.938732   -1.448400    2.604956
     42          1           0        0.636828   -0.341800    2.107592
     43          6           0        2.579820    0.195139    1.401439
     44          8           0        2.465863    1.392609    1.546996
     45          8           0        3.674647   -0.385677    0.865065
     46          1           0        4.321204    0.318535    0.667804
 ---------------------------------------------------------------------

 SCF Done:  E(RB3LYP) =  -1324.98846599     A.U. after    1 cycles

 Alpha  occ. eigenvalues --  -19.30719 -19.25641 -19.25283 -19.25225 -19.24857
 Alpha  occ. eigenvalues --  -19.24481 -19.23958 -14.55928 -14.50115 -14.49878
 Alpha  occ. eigenvalues --  -14.48988 -14.48689 -14.48078 -10.43399 -10.42629
 Alpha  occ. eigenvalues --  -10.42275 -10.42154 -10.41805 -10.41038 -10.38622
 Alpha  occ. eigenvalues --  -10.35846 -10.35635 -10.35291 -10.35218 -10.33337
 Alpha  occ. eigenvalues --   -1.21707  -1.18187  -1.17113  -1.16846  -1.15881
 Alpha  occ. eigenvalues --   -1.15572  -1.12687  -1.10976  -1.06216  -1.06016
 Alpha  occ. eigenvalues --   -1.05825  -1.04599  -1.03880  -0.89979  -0.88922
 Alpha  occ. eigenvalues --   -0.87228  -0.85033  -0.83143  -0.81290  -0.73595
 Alpha  occ. eigenvalues --   -0.72986  -0.72843  -0.71905  -0.71048  -0.70734
 Alpha  occ. eigenvalues --   -0.70163  -0.69027  -0.66849  -0.66000  -0.64926
 Alpha  occ. eigenvalues --   -0.64183  -0.63051  -0.62138  -0.61305  -0.61019
 Alpha  occ. eigenvalues --   -0.59906  -0.59669  -0.59106  -0.58485  -0.57801
 Alpha  occ. eigenvalues --   -0.57118  -0.56235  -0.56014  -0.54927  -0.54494
 Alpha  occ. eigenvalues --   -0.54179  -0.53691  -0.53228  -0.52952  -0.52180
 Alpha  occ. eigenvalues --   -0.51863  -0.51261  -0.50603  -0.50156  -0.49706
 Alpha  occ. eigenvalues --   -0.49664  -0.48848  -0.47846  -0.42964  -0.41380
 Alpha  occ. eigenvalues --   -0.41185  -0.40956  -0.39830  -0.39402  -0.39099
 Alpha  occ. eigenvalues --   -0.38277  -0.37881  -0.37045  -0.36796  -0.36503
 Alpha virt. eigenvalues --   -0.13293  -0.12058  -0.11817  -0.10641  -0.10213
 Alpha virt. eigenvalues --   -0.09696  -0.06827  -0.04820  -0.04578  -0.03374
 Alpha virt. eigenvalues --   -0.02193  -0.01509  -0.00385   0.01303   0.01547

 Mulliken charges:
               1
     1  N   -0.809935
     2  H    0.450260
     3  H    0.397947
     4  H    0.462924
     5  C   -0.258296
     6  H    0.238066
     7  H    0.199055
     8  C    0.623098
     9  O   -0.471539
    10  N   -0.558989
    11  H    0.341765
    12  C   -0.272253
    13  H    0.255054
    14  H    0.184253
    15  C    0.641158
    16  O   -0.529289
    17  N   -0.613093
    18  H    0.357096
    19  C   -0.217931
    20  H    0.195140
    21  H    0.205781
    22  C    0.619376
    23  O   -0.541088
    24  N   -0.545138
    25  H    0.343617
    26  C   -0.240551
    27  H    0.205728
    28  H    0.200371
    29  C    0.643150
    30  O   -0.574026
    31  N   -0.560161
    32  H    0.378441
    33  C   -0.256082
    34  H    0.187606
    35  H    0.215530
    36  C    0.635412
    37  O   -0.566184
    38  N   -0.576064
    39  H    0.369577
    40  C   -0.186438
    41  H    0.210275
    42  H    0.249850
    43  C    0.560597
    44  O   -0.472607
    45  O   -0.548307
    46  H    0.426844
 Sum of Mulliken charges =   1.00000

 Dipole moment (field-independent basis, Debye):
    X=             -4.7723    Y=              2.6695    Z=             -4.3819  Tot=              7.0073
 Quadrupole moment (field-independent basis, Debye-Ang):
   XX=            -93.7071   YY=           -106.5352   ZZ=           -131.5304
   XY=              6.7860   XZ=             -4.8376   YZ=             -5.0700

 Normal termination of Gaussian 16 at Fri Jul 15 04:10:51 2022.
