 Gaussian 16, Revision C.01,
 Gaussian 16:  ES64L-G16RevC.01  3-Jul-2019

 ----------------------------------------------------------------------
 # B3LYP/6-31G* empiricaldispersion=gd3bj guess=read geom=check nosymm
 integral(ultrafinegrid)
 ----------------------------------------------------------------------

 ------------------------------------------------------
 Candidate Structure: Conf:824 Charge calc in gas phase
 ------------------------------------------------------
 Structure from the checkpoint file:  "conf-824.chk"
 Charge =  1 Multiplicity = 1

                          Input orientation:
 ---------------------------------------------------------------------
 Center     Atomic      Atomic             Coordinates (Angstroms)
 Number     Number       Type             X           Y           Z
 ---------------------------------------------------------------------
      1          7           0       -1.587816    2.518838    2.568419
      2          1           0       -1.257042    1.531996    2.759928
      3          1           0       -2.021852    2.923592    3.400426
      4          1           0       -0.771739    3.078245    2.249992
      5          6           0       -2.491541    2.462311    1.379004
      6          1           0       -3.118183    3.357005    1.356206
      7          1           0       -3.108913    1.567169    1.454722
      8          6           0       -1.516802    2.437146    0.183451
      9          8           0       -0.419433    2.971869    0.331944
     10          7           0       -1.972894    1.822948   -0.917938
     11          1           0       -2.815429    1.259803   -0.827618
     12          6           0       -1.078539    1.278060   -1.934835
     13          1           0       -0.059931    1.601020   -1.721155
     14          1           0       -1.372335    1.622159   -2.932118
     15          6           0       -1.232524   -0.244195   -1.829553
     16          8           0       -2.313687   -0.711774   -1.436621
     17          7           0       -0.168577   -0.997207   -2.139986
     18          1           0        0.740814   -0.565213   -2.285237
     19          6           0       -0.147144   -2.430674   -1.860982
     20          1           0        0.705560   -2.865443   -2.379717
     21          1           0       -1.072398   -2.884010   -2.224560
     22          6           0        0.019591   -2.669016   -0.352813
     23          8           0        1.098775   -3.008233    0.156163
     24          7           0       -1.093250   -2.437700    0.379030
     25          1           0       -1.873620   -2.001253   -0.113542
     26          6           0       -1.078656   -2.408376    1.835206
     27          1           0       -0.508442   -3.263907    2.205209
     28          1           0       -2.104372   -2.475459    2.197869
     29          6           0       -0.470724   -1.090146    2.326552
     30          8           0       -1.193950   -0.114924    2.586890
     31          7           0        0.874246   -1.102417    2.424540
     32          1           0        1.320956   -1.907075    1.985331
     33          6           0        1.667083    0.113846    2.472556
     34          1           0        1.073855    0.898775    2.944451
     35          1           0        2.559411   -0.051781    3.082172
     36          6           0        1.999711    0.496040    1.024514
     37          8           0        1.120958    0.464884    0.166924
     38          7           0        3.298652    0.754489    0.727435
     39          1           0        3.994051    0.539429    1.429471
     40          6           0        3.698314    0.598115   -0.668602
     41          1           0        4.788002    0.653342   -0.729923
     42          1           0        3.269869    1.385849   -1.288602
     43          6           0        3.196685   -0.750925   -1.195400
     44          8           0        2.663271   -0.903128   -2.276977
     45          8           0        3.381356   -1.718570   -0.294818
     46          1           0        2.756493   -2.464502   -0.473135
 ---------------------------------------------------------------------

 SCF Done:  E(RB3LYP) =  -1324.99795665     A.U. after    3 cycles

 Alpha  occ. eigenvalues --  -19.29089 -19.26718 -19.26089 -19.24916 -19.24795
 Alpha  occ. eigenvalues --  -19.24784 -19.24087 -14.58370 -14.49609 -14.49305
 Alpha  occ. eigenvalues --  -14.48964 -14.48052 -14.47734 -10.43326 -10.43115
 Alpha  occ. eigenvalues --  -10.42984 -10.41675 -10.41291 -10.40954 -10.39602
 Alpha  occ. eigenvalues --  -10.36409 -10.35176 -10.34734 -10.34586 -10.34019
 Alpha  occ. eigenvalues --   -1.20872  -1.18624  -1.17871  -1.16576  -1.16375
 Alpha  occ. eigenvalues --   -1.15539  -1.12819  -1.12080  -1.06323  -1.06051
 Alpha  occ. eigenvalues --   -1.05092  -1.04649  -1.03875  -0.89952  -0.89431
 Alpha  occ. eigenvalues --   -0.87043  -0.85021  -0.82878  -0.80756  -0.74218
 Alpha  occ. eigenvalues --   -0.73773  -0.73195  -0.72280  -0.71281  -0.70823
 Alpha  occ. eigenvalues --   -0.70496  -0.69386  -0.66959  -0.66328  -0.65403
 Alpha  occ. eigenvalues --   -0.63469  -0.62525  -0.61913  -0.61494  -0.61042
 Alpha  occ. eigenvalues --   -0.60306  -0.59446  -0.59296  -0.58835  -0.58318
 Alpha  occ. eigenvalues --   -0.57294  -0.56480  -0.56035  -0.55290  -0.54710
 Alpha  occ. eigenvalues --   -0.54483  -0.53672  -0.53096  -0.52501  -0.52103
 Alpha  occ. eigenvalues --   -0.51621  -0.51164  -0.50761  -0.50373  -0.49388
 Alpha  occ. eigenvalues --   -0.48765  -0.48537  -0.48173  -0.42599  -0.41758
 Alpha  occ. eigenvalues --   -0.41120  -0.40880  -0.40540  -0.40218  -0.39470
 Alpha  occ. eigenvalues --   -0.38175  -0.37987  -0.37522  -0.37071  -0.36161
 Alpha virt. eigenvalues --   -0.13504  -0.12562  -0.11621  -0.10750  -0.09429
 Alpha virt. eigenvalues --   -0.09119  -0.08601  -0.04645  -0.04120  -0.02508
 Alpha virt. eigenvalues --   -0.01056  -0.00737   0.00129   0.01053   0.01297

 Mulliken charges:
               1
     1  N   -0.767549
     2  H    0.451144
     3  H    0.406015
     4  H    0.412847
     5  C   -0.278088
     6  H    0.239858
     7  H    0.229918
     8  C    0.642149
     9  O   -0.511266
    10  N   -0.577035
    11  H    0.361457
    12  C   -0.241006
    13  H    0.227248
    14  H    0.214695
    15  C    0.630275
    16  O   -0.563174
    17  N   -0.585581
    18  H    0.397494
    19  C   -0.247142
    20  H    0.211320
    21  H    0.211561
    22  C    0.618997
    23  O   -0.564057
    24  N   -0.574619
    25  H    0.392438
    26  C   -0.242813
    27  H    0.210268
    28  H    0.202294
    29  C    0.625495
    30  O   -0.574348
    31  N   -0.543512
    32  H    0.381637
    33  C   -0.249408
    34  H    0.180207
    35  H    0.191017
    36  C    0.621660
    37  O   -0.524331
    38  N   -0.560712
    39  H    0.351178
    40  C   -0.217054
    41  H    0.209311
    42  H    0.215580
    43  C    0.596669
    44  O   -0.484360
    45  O   -0.576078
    46  H    0.449400
 Sum of Mulliken charges =   1.00000

 Dipole moment (field-independent basis, Debye):
    X=             -1.5961    Y=              4.7332    Z=              7.9638  Tot=              9.4007
 Quadrupole moment (field-independent basis, Debye-Ang):
   XX=           -103.3044   YY=           -115.8468   ZZ=           -109.2420
   XY=            -11.3639   XZ=             -5.0331   YZ=             16.5225

 Normal termination of Gaussian 16 at Fri Jul 15 04:11:35 2022.
