 Gaussian 16, Revision C.01,
 Gaussian 16:  ES64L-G16RevC.01  3-Jul-2019

 ----------------------------------------------------------------------
 # B3LYP/6-31G* empiricaldispersion=gd3bj guess=read geom=check nosymm
 integral(ultrafinegrid)
 ----------------------------------------------------------------------

 ------------------------------------------------------
 Candidate Structure: Conf:607 Charge calc in gas phase
 ------------------------------------------------------
 Structure from the checkpoint file:  "conf-607.chk"
 Charge =  1 Multiplicity = 1

                          Input orientation:
 ---------------------------------------------------------------------
 Center     Atomic      Atomic             Coordinates (Angstroms)
 Number     Number       Type             X           Y           Z
 ---------------------------------------------------------------------
      1          7           0       -7.947709    4.498291   -1.973373
      2          1           0       -8.381420    5.275245   -1.467825
      3          1           0       -8.671634    4.022428   -2.518232
      4          1           0       -7.174313    4.865752   -2.625958
      5          6           0       -7.152148    3.575555   -1.093025
      6          1           0       -7.538428    2.558727   -1.177763
      7          1           0       -7.223046    3.902620   -0.054588
      8          6           0       -5.709864    3.703127   -1.649857
      9          8           0       -5.548826    4.472199   -2.610349
     10          7           0       -4.776760    2.984159   -1.055966
     11          1           0       -4.949770    2.355789   -0.262915
     12          6           0       -3.375591    2.976404   -1.442723
     13          1           0       -2.943107    3.978862   -1.354050
     14          1           0       -3.262276    2.651693   -2.482665
     15          6           0       -2.698821    1.989535   -0.473022
     16          8           0       -3.376592    1.423364    0.389022
     17          7           0       -1.386477    1.816420   -0.645272
     18          1           0       -0.845913    2.291181   -1.367889
     19          6           0       -0.592187    0.923112    0.171419
     20          1           0       -0.976408   -0.102263    0.114705
     21          1           0       -0.623551    1.224707    1.225266
     22          6           0        0.840968    0.999008   -0.371727
     23          8           0        1.114448    1.735402   -1.319792
     24          7           0        1.738861    0.220636    0.254086
     25          1           0        1.499426   -0.392159    1.028966
     26          6           0        3.127109    0.171766   -0.144336
     27          1           0        3.612108    1.145713   -0.000359
     28          1           0        3.214835   -0.075284   -1.209715
     29          6           0        3.812551   -0.893563    0.713033
     30          8           0        3.187014   -1.491666    1.594367
     31          7           0        5.114794   -1.111897    0.447519
     32          1           0        5.537731   -0.657324   -0.350602
     33          6           0        5.920511   -2.077103    1.193886
     34          1           0        6.971508   -1.811443    1.084655
     35          1           0        5.639157   -2.007534    2.249167
     36          6           0        5.759423   -3.527715    0.708463
     37          8           0        6.704196   -4.161386    0.263943
     38          7           0        4.487053   -4.010868    0.811326
     39          1           0        3.813113   -3.449110    1.321804
     40          6           0        4.203055   -5.402576    0.558779
     41          1           0        5.007432   -5.793340   -0.071876
     42          1           0        3.262095   -5.523657    0.014142
     43          6           0        4.128734   -6.289526    1.795260
     44          8           0        3.676437   -7.410116    1.784330
     45          8           0        4.635553   -5.696102    2.898950
     46          1           0        4.572768   -6.358555    3.613071
 ---------------------------------------------------------------------

 SCF Done:  E(RB3LYP) =  -1324.93875269     A.U. after    1 cycles

 Alpha  occ. eigenvalues --  -19.29119 -19.24898 -19.23473 -19.21613 -19.21356
 Alpha  occ. eigenvalues --  -19.18741 -19.17302 -14.62475 -14.51482 -14.46941
 Alpha  occ. eigenvalues --  -14.45828 -14.45332 -14.41482 -10.45907 -10.42961
 Alpha  occ. eigenvalues --  -10.40698 -10.38665 -10.38616 -10.37146 -10.36015
 Alpha  occ. eigenvalues --  -10.34616 -10.33071 -10.32365 -10.30181 -10.28727
 Alpha  occ. eigenvalues --   -1.21630  -1.16192  -1.15647  -1.15459  -1.13790
 Alpha  occ. eigenvalues --   -1.13014  -1.09233  -1.08077  -1.06570  -1.03533
 Alpha  occ. eigenvalues --   -1.01974  -1.01632  -0.98081  -0.92523  -0.87505
 Alpha  occ. eigenvalues --   -0.85243  -0.82615  -0.80081  -0.77288  -0.76428
 Alpha  occ. eigenvalues --   -0.76314  -0.74066  -0.70538  -0.69030  -0.68571
 Alpha  occ. eigenvalues --   -0.67921  -0.66956  -0.65433  -0.64481  -0.63563
 Alpha  occ. eigenvalues --   -0.62998  -0.61086  -0.60169  -0.59972  -0.59237
 Alpha  occ. eigenvalues --   -0.57794  -0.57507  -0.56457  -0.56232  -0.55732
 Alpha  occ. eigenvalues --   -0.54927  -0.54197  -0.53313  -0.53245  -0.53034
 Alpha  occ. eigenvalues --   -0.51296  -0.50953  -0.50500  -0.49402  -0.49047
 Alpha  occ. eigenvalues --   -0.48298  -0.47835  -0.47375  -0.46240  -0.45026
 Alpha  occ. eigenvalues --   -0.44866  -0.44227  -0.43862  -0.43000  -0.41439
 Alpha  occ. eigenvalues --   -0.38162  -0.36961  -0.36751  -0.36556  -0.36066
 Alpha  occ. eigenvalues --   -0.35154  -0.34519  -0.34199  -0.30653  -0.30146
 Alpha virt. eigenvalues --   -0.14143  -0.13666  -0.08985  -0.08139  -0.07545
 Alpha virt. eigenvalues --   -0.06641  -0.06418  -0.04139  -0.03616  -0.03144
 Alpha virt. eigenvalues --   -0.02252  -0.00595  -0.00211   0.00678   0.00824

 Mulliken charges:
               1
     1  N   -0.750540
     2  H    0.424425
     3  H    0.424448
     4  H    0.441689
     5  C   -0.277110
     6  H    0.250507
     7  H    0.250593
     8  C    0.640750
     9  O   -0.523639
    10  N   -0.605141
    11  H    0.382188
    12  C   -0.211667
    13  H    0.216885
    14  H    0.216754
    15  C    0.621496
    16  O   -0.533323
    17  N   -0.622414
    18  H    0.370230
    19  C   -0.199681
    20  H    0.202890
    21  H    0.203952
    22  C    0.614344
    23  O   -0.529424
    24  N   -0.625060
    25  H    0.365506
    26  C   -0.193887
    27  H    0.203153
    28  H    0.200635
    29  C    0.614964
    30  O   -0.545074
    31  N   -0.587857
    32  H    0.351545
    33  C   -0.249500
    34  H    0.196246
    35  H    0.206083
    36  C    0.596766
    37  O   -0.491161
    38  N   -0.592225
    39  H    0.365234
    40  C   -0.233528
    41  H    0.231567
    42  H    0.187791
    43  C    0.578588
    44  O   -0.448902
    45  O   -0.556893
    46  H    0.417797
 Sum of Mulliken charges =   1.00000

 Dipole moment (field-independent basis, Debye):
    X=            -26.8897    Y=             17.9855    Z=             -4.9032  Tot=             32.7196
 Quadrupole moment (field-independent basis, Debye-Ang):
   XX=            105.7907   YY=            -98.9186   ZZ=           -127.0850
   XY=           -112.2919   XZ=             55.9390   YZ=            -25.1519

 Normal termination of Gaussian 16 at Fri Jul 15 04:10:42 2022.
