 Gaussian 16, Revision C.01,
 Gaussian 16:  ES64L-G16RevC.01  3-Jul-2019

 ----------------------------------------------------------------------
 # B3LYP/6-31G* empiricaldispersion=gd3bj guess=read geom=check nosymm
 integral(ultrafinegrid)
 ----------------------------------------------------------------------

 -----------------------------------------------------
 Candidate Structure: Conf:34 Charge calc in gas phase
 -----------------------------------------------------
 Structure from the checkpoint file:  "conf-34.chk"
 Charge =  1 Multiplicity = 1

                          Input orientation:
 ---------------------------------------------------------------------
 Center     Atomic      Atomic             Coordinates (Angstroms)
 Number     Number       Type             X           Y           Z
 ---------------------------------------------------------------------
      1          7           0       -0.603772    1.952902   -0.888076
      2          1           0       -0.200426    1.461381   -0.055809
      3          1           0       -0.195063    2.890046   -0.931545
      4          1           0       -0.328828    1.420761   -1.748430
      5          6           0       -2.102786    2.009232   -0.765549
      6          1           0       -2.488795    2.703687   -1.509775
      7          1           0       -2.338603    2.361699    0.241362
      8          6           0       -2.728831    0.635557   -1.054056
      9          8           0       -3.500927    0.497478   -1.996811
     10          7           0       -2.367549   -0.364757   -0.213964
     11          1           0       -1.635108   -0.200859    0.478958
     12          6           0       -2.755552   -1.745009   -0.505980
     13          1           0       -3.792404   -1.757825   -0.847674
     14          1           0       -2.656237   -2.344778    0.398367
     15          6           0       -1.782942   -2.261683   -1.566477
     16          8           0       -0.735372   -2.840643   -1.263211
     17          7           0       -2.079859   -1.901553   -2.842359
     18          1           0       -2.829636   -1.221423   -2.952897
     19          6           0       -0.992239   -1.850388   -3.809073
     20          1           0       -1.393617   -1.524143   -4.770686
     21          1           0       -0.551171   -2.842407   -3.927368
     22          6           0        0.025398   -0.822275   -3.310467
     23          8           0       -0.349994    0.322851   -3.021548
     24          7           0        1.297770   -1.222424   -3.130935
     25          1           0        1.538178   -2.189012   -3.305278
     26          6           0        2.250593   -0.349811   -2.466266
     27          1           0        2.228155    0.642021   -2.920151
     28          1           0        3.256025   -0.757992   -2.601101
     29          6           0        2.010823   -0.180229   -0.957384
     30          8           0        2.435665    0.809161   -0.364791
     31          7           0        1.363251   -1.188912   -0.324850
     32          1           0        0.865788   -1.913830   -0.837391
     33          6           0        1.353398   -1.267788    1.119541
     34          1           0        0.682635   -2.088149    1.394045
     35          1           0        2.353644   -1.509581    1.497706
     36          6           0        0.840047   -0.002561    1.799785
     37          8           0       -0.188438    0.597349    1.408474
     38          7           0        1.492068    0.378412    2.892690
     39          1           0        2.351079   -0.077623    3.189348
     40          6           0        1.103557    1.522859    3.692145
     41          1           0        0.084908    1.410182    4.077871
     42          1           0        1.127648    2.445422    3.100862
     43          6           0        2.088419    1.631784    4.843121
     44          8           0        3.027224    0.880965    4.990723
     45          8           0        1.781665    2.653479    5.648306
     46          1           0        2.445472    2.680422    6.364699
 ---------------------------------------------------------------------

 SCF Done:  E(RB3LYP) =  -1325.00209212     A.U. after    1 cycles

 Alpha  occ. eigenvalues --  -19.31234 -19.26640 -19.26439 -19.25989 -19.24657
 Alpha  occ. eigenvalues --  -19.24593 -19.24193 -14.56477 -14.50786 -14.50255
 Alpha  occ. eigenvalues --  -14.48775 -14.48330 -14.48098 -10.44282 -10.43518
 Alpha  occ. eigenvalues --  -10.43168 -10.42252 -10.41448 -10.41329 -10.38166
 Alpha  occ. eigenvalues --  -10.36216 -10.36051 -10.35931 -10.35607 -10.34847
 Alpha  occ. eigenvalues --   -1.22484  -1.18548  -1.18105  -1.16877  -1.15988
 Alpha  occ. eigenvalues --   -1.15937  -1.13800  -1.11652  -1.06967  -1.06549
 Alpha  occ. eigenvalues --   -1.05249  -1.04647  -1.04250  -0.90247  -0.89373
 Alpha  occ. eigenvalues --   -0.87894  -0.85435  -0.83474  -0.81483  -0.75318
 Alpha  occ. eigenvalues --   -0.73970  -0.73058  -0.72569  -0.71241  -0.70796
 Alpha  occ. eigenvalues --   -0.70502  -0.69816  -0.67153  -0.65879  -0.65397
 Alpha  occ. eigenvalues --   -0.64466  -0.63241  -0.62409  -0.61935  -0.61201
 Alpha  occ. eigenvalues --   -0.60898  -0.60061  -0.59615  -0.58906  -0.58584
 Alpha  occ. eigenvalues --   -0.57282  -0.57080  -0.56480  -0.55712  -0.55515
 Alpha  occ. eigenvalues --   -0.54613  -0.53972  -0.53502  -0.53181  -0.52966
 Alpha  occ. eigenvalues --   -0.51795  -0.51490  -0.50717  -0.50528  -0.50377
 Alpha  occ. eigenvalues --   -0.50059  -0.49268  -0.48151  -0.43488  -0.42074
 Alpha  occ. eigenvalues --   -0.41738  -0.41133  -0.40310  -0.40230  -0.39784
 Alpha  occ. eigenvalues --   -0.38813  -0.38513  -0.37909  -0.37256  -0.36461
 Alpha virt. eigenvalues --   -0.12995  -0.12688  -0.12407  -0.10737  -0.10598
 Alpha virt. eigenvalues --   -0.10390  -0.06314  -0.04571  -0.03031  -0.02426
 Alpha virt. eigenvalues --   -0.01183  -0.00612  -0.00013   0.00500   0.00892

 Mulliken charges:
               1
     1  N   -0.809856
     2  H    0.451229
     3  H    0.402362
     4  H    0.451352
     5  C   -0.268066
     6  H    0.237501
     7  H    0.227357
     8  C    0.606184
     9  O   -0.500743
    10  N   -0.604815
    11  H    0.385009
    12  C   -0.238976
    13  H    0.215415
    14  H    0.197541
    15  C    0.596819
    16  O   -0.546453
    17  N   -0.552561
    18  H    0.386505
    19  C   -0.231903
    20  H    0.216192
    21  H    0.195940
    22  C    0.618041
    23  O   -0.561647
    24  N   -0.573679
    25  H    0.365043
    26  C   -0.233312
    27  H    0.212084
    28  H    0.215906
    29  C    0.581693
    30  O   -0.529064
    31  N   -0.615370
    32  H    0.402890
    33  C   -0.230235
    34  H    0.210364
    35  H    0.192681
    36  C    0.672508
    37  O   -0.610593
    38  N   -0.583006
    39  H    0.380383
    40  C   -0.191084
    41  H    0.221703
    42  H    0.213157
    43  C    0.580512
    44  O   -0.445045
    45  O   -0.548846
    46  H    0.438883
 Sum of Mulliken charges =   1.00000

 Dipole moment (field-independent basis, Debye):
    X=              1.0852    Y=              1.4567    Z=             -0.3045  Tot=              1.8419
 Quadrupole moment (field-independent basis, Debye-Ang):
   XX=           -132.6114   YY=           -114.6436   ZZ=            -86.9756
   XY=             -1.5131   XZ=              1.8191   YZ=             20.8361

 Normal termination of Gaussian 16 at Fri Jul 15 04:14:03 2022.
