 Gaussian 16, Revision C.01,
 Gaussian 16:  ES64L-G16RevC.01  3-Jul-2019

 ----------------------------------------------------------------------
 # B3LYP/6-31G* empiricaldispersion=gd3bj guess=read geom=check nosymm
 integral(ultrafinegrid)
 ----------------------------------------------------------------------

 ------------------------------------------------------
 Candidate Structure: Conf:705 Charge calc in gas phase
 ------------------------------------------------------
 Structure from the checkpoint file:  "conf-705.chk"
 Charge =  1 Multiplicity = 1

                          Input orientation:
 ---------------------------------------------------------------------
 Center     Atomic      Atomic             Coordinates (Angstroms)
 Number     Number       Type             X           Y           Z
 ---------------------------------------------------------------------
      1          7           0       -3.832678    2.483936    1.966713
      2          1           0       -3.720412    3.419047    2.364827
      3          1           0       -3.420980    1.757262    2.614039
      4          1           0       -4.831547    2.253584    1.841304
      5          6           0       -3.182789    2.324819    0.624405
      6          1           0       -2.103559    2.240308    0.756636
      7          1           0       -3.439548    3.184776    0.001256
      8          6           0       -3.797228    1.035601    0.068745
      9          8           0       -4.957833    0.759273    0.400161
     10          7           0       -3.001049    0.270698   -0.692874
     11          1           0       -1.999761    0.473636   -0.643863
     12          6           0       -3.360057   -1.129805   -0.959130
     13          1           0       -2.797065   -1.490984   -1.818420
     14          1           0       -4.431021   -1.190553   -1.158299
     15          6           0       -2.933223   -1.899250    0.299165
     16          8           0       -1.861034   -2.489376    0.371638
     17          7           0       -3.758605   -1.701078    1.371716
     18          1           0       -4.554258   -1.086448    1.230032
     19          6           0       -3.212376   -1.778810    2.722890
     20          1           0       -2.760450   -2.760033    2.881758
     21          1           0       -4.020546   -1.639157    3.441250
     22          6           0       -2.186879   -0.650100    2.895501
     23          8           0       -2.517262    0.504983    3.217348
     24          7           0       -0.917585   -1.000040    2.620028
     25          1           0       -0.794462   -1.902897    2.169894
     26          6           0        0.169435   -0.042198    2.523113
     27          1           0        1.065528   -0.464939    2.985816
     28          1           0       -0.125959    0.848506    3.081504
     29          6           0        0.419523    0.357077    1.064137
     30          8           0       -0.472744    0.885461    0.379926
     31          7           0        1.641376    0.102835    0.594249
     32          1           0        2.372621   -0.335333    1.153475
     33          6           0        2.065510    0.413683   -0.753592
     34          1           0        1.473219   -0.149483   -1.486052
     35          1           0        1.930835    1.480082   -0.968020
     36          6           0        3.543319    0.011845   -0.847528
     37          8           0        4.104476   -0.515972    0.106990
     38          7           0        4.154791    0.303725   -2.020444
     39          1           0        3.579143    0.580716   -2.804784
     40          6           0        5.480353   -0.208735   -2.308765
     41          1           0        6.048858   -0.237481   -1.377176
     42          1           0        6.000005    0.467000   -2.993624
     43          6           0        5.519008   -1.609717   -2.911162
     44          8           0        6.543757   -2.185708   -3.176366
     45          8           0        4.283526   -2.120910   -3.124771
     46          1           0        4.421065   -3.010866   -3.502583
 ---------------------------------------------------------------------

 SCF Done:  E(RB3LYP) =  -1324.97878033     A.U. after    3 cycles

 Alpha  occ. eigenvalues --  -19.28310 -19.26984 -19.26111 -19.24905 -19.24253
 Alpha  occ. eigenvalues --  -19.23072 -19.21994 -14.58788 -14.50122 -14.49696
 Alpha  occ. eigenvalues --  -14.48878 -14.48126 -14.47204 -10.43984 -10.42793
 Alpha  occ. eigenvalues --  -10.42021 -10.41146 -10.40526 -10.40288 -10.39205
 Alpha  occ. eigenvalues --  -10.35631 -10.35292 -10.35231 -10.34867 -10.32796
 Alpha  occ. eigenvalues --   -1.19313  -1.18968  -1.17592  -1.16444  -1.15936
 Alpha  occ. eigenvalues --   -1.15012  -1.13174  -1.09977  -1.06811  -1.06031
 Alpha  occ. eigenvalues --   -1.05040  -1.04423  -1.03539  -0.90479  -0.89069
 Alpha  occ. eigenvalues --   -0.86842  -0.84838  -0.82648  -0.80676  -0.74068
 Alpha  occ. eigenvalues --   -0.73604  -0.72908  -0.71874  -0.71376  -0.70817
 Alpha  occ. eigenvalues --   -0.70091  -0.69395  -0.66955  -0.66650  -0.65140
 Alpha  occ. eigenvalues --   -0.63180  -0.62682  -0.61909  -0.61116  -0.60581
 Alpha  occ. eigenvalues --   -0.59682  -0.59548  -0.58704  -0.58206  -0.57980
 Alpha  occ. eigenvalues --   -0.56664  -0.56089  -0.55474  -0.54413  -0.54262
 Alpha  occ. eigenvalues --   -0.54094  -0.53716  -0.53099  -0.52197  -0.51736
 Alpha  occ. eigenvalues --   -0.50884  -0.50754  -0.50422  -0.50256  -0.49403
 Alpha  occ. eigenvalues --   -0.48424  -0.47969  -0.47222  -0.41994  -0.41505
 Alpha  occ. eigenvalues --   -0.41455  -0.40722  -0.39972  -0.39309  -0.38392
 Alpha  occ. eigenvalues --   -0.38109  -0.37574  -0.37019  -0.36570  -0.34458
 Alpha virt. eigenvalues --   -0.14256  -0.12994  -0.10808  -0.09697  -0.08763
 Alpha virt. eigenvalues --   -0.08461  -0.07130  -0.02963  -0.02756  -0.02625
 Alpha virt. eigenvalues --   -0.01471  -0.00354   0.00009   0.00282   0.00723

 Mulliken charges:
               1
     1  N   -0.757048
     2  H    0.408829
     3  H    0.454980
     4  H    0.415201
     5  C   -0.297339
     6  H    0.260338
     7  H    0.235982
     8  C    0.618116
     9  O   -0.538615
    10  N   -0.584585
    11  H    0.398860
    12  C   -0.247357
    13  H    0.208774
    14  H    0.217538
    15  C    0.586402
    16  O   -0.507812
    17  N   -0.574281
    18  H    0.371943
    19  C   -0.232974
    20  H    0.208007
    21  H    0.203276
    22  C    0.602523
    23  O   -0.582982
    24  N   -0.539396
    25  H    0.381410
    26  C   -0.244198
    27  H    0.194091
    28  H    0.214171
    29  C    0.630831
    30  O   -0.572598
    31  N   -0.589883
    32  H    0.377764
    33  C   -0.208192
    34  H    0.201475
    35  H    0.201313
    36  C    0.613294
    37  O   -0.509048
    38  N   -0.582676
    39  H    0.344946
    40  C   -0.247166
    41  H    0.240272
    42  H    0.211340
    43  C    0.589871
    44  O   -0.429205
    45  O   -0.571384
    46  H    0.425194
 Sum of Mulliken charges =   1.00000

 Dipole moment (field-independent basis, Debye):
    X=             -9.0233    Y=              6.4085    Z=              3.1493  Tot=             11.5068
 Quadrupole moment (field-independent basis, Debye-Ang):
   XX=           -102.5217   YY=           -113.3598   ZZ=           -108.8578
   XY=            -12.1117   XZ=            -28.4131   YZ=              7.2824

 Normal termination of Gaussian 16 at Fri Jul 15 04:10:59 2022.
