 Gaussian 16, Revision C.01,
 Gaussian 16:  ES64L-G16RevC.01  3-Jul-2019

 ----------------------------------------------------------------------
 # B3LYP/6-31G* empiricaldispersion=gd3bj guess=read geom=check nosymm
 integral(ultrafinegrid)
 ----------------------------------------------------------------------

 ------------------------------------------------------
 Candidate Structure: Conf:584 Charge calc in gas phase
 ------------------------------------------------------
 Structure from the checkpoint file:  "conf-584.chk"
 Charge =  1 Multiplicity = 1

                          Input orientation:
 ---------------------------------------------------------------------
 Center     Atomic      Atomic             Coordinates (Angstroms)
 Number     Number       Type             X           Y           Z
 ---------------------------------------------------------------------
      1          7           0       -2.033995    0.261668   -1.547076
      2          1           0       -1.753063    0.232102   -2.540318
      3          1           0       -2.961454   -0.154898   -1.438460
      4          1           0       -1.361538   -0.391890   -1.068928
      5          6           0       -1.957556    1.614879   -0.937353
      6          1           0       -2.792357    2.225348   -1.291921
      7          1           0       -1.017873    2.055077   -1.280681
      8          6           0       -1.988938    1.437710    0.581420
      9          8           0       -2.240919    0.345523    1.077953
     10          7           0       -1.725353    2.547734    1.318974
     11          1           0       -1.274789    3.328128    0.858211
     12          6           0       -1.420812    2.352972    2.725014
     13          1           0       -2.265466    1.860853    3.213215
     14          1           0       -1.276995    3.331793    3.191365
     15          6           0       -0.138475    1.517649    2.867352
     16          8           0        0.708470    1.494653    1.980504
     17          7           0       -0.002549    0.791804    4.007456
     18          1           0       -0.682184    0.880588    4.750681
     19          6           0        1.244675    0.076100    4.253667
     20          1           0        1.158696   -0.445672    5.210678
     21          1           0        2.094149    0.761794    4.301032
     22          6           0        1.569357   -0.935235    3.149550
     23          8           0        2.723772   -1.119231    2.776668
     24          7           0        0.513026   -1.642387    2.654703
     25          1           0       -0.420393   -1.282447    2.814818
     26          6           0        0.705859   -2.500214    1.490203
     27          1           0       -0.112974   -3.216165    1.424011
     28          1           0        1.655247   -3.026299    1.606865
     29          6           0        0.687194   -1.613197    0.248823
     30          8           0       -0.339250   -1.500548   -0.429103
     31          7           0        1.824805   -0.915474    0.000895
     32          1           0        2.525026   -0.966144    0.742050
     33          6           0        1.760787    0.345814   -0.732861
     34          1           0        1.168174    1.077189   -0.178358
     35          1           0        2.780518    0.736977   -0.806380
     36          6           0        1.197983    0.261066   -2.146876
     37          8           0        0.535956    1.192134   -2.610057
     38          7           0        1.529336   -0.828019   -2.877629
     39          1           0        2.002951   -1.594235   -2.418858
     40          6           0        1.188431   -0.935557   -4.276550
     41          1           0        1.835310   -1.671838   -4.756447
     42          1           0        1.364801    0.030591   -4.764835
     43          6           0       -0.266534   -1.295230   -4.554617
     44          8           0       -1.220669   -1.075352   -3.833054
     45          8           0       -0.378945   -1.862919   -5.760323
     46          1           0       -1.327075   -2.020277   -5.935574
 ---------------------------------------------------------------------

 SCF Done:  E(RB3LYP) =  -1324.99847971     A.U. after    2 cycles

 Alpha  occ. eigenvalues --  -19.31586 -19.26624 -19.25395 -19.25055 -19.24236
 Alpha  occ. eigenvalues --  -19.23517 -19.22718 -14.55030 -14.49305 -14.49082
 Alpha  occ. eigenvalues --  -14.48258 -14.47896 -14.47428 -10.44676 -10.42587
 Alpha  occ. eigenvalues --  -10.41316 -10.41302 -10.40865 -10.40072 -10.37436
 Alpha  occ. eigenvalues --  -10.35646 -10.35381 -10.34316 -10.33953 -10.33905
 Alpha  occ. eigenvalues --   -1.22892  -1.17927  -1.16731  -1.16281  -1.15399
 Alpha  occ. eigenvalues --   -1.14540  -1.13789  -1.10305  -1.05669  -1.05072
 Alpha  occ. eigenvalues --   -1.05023  -1.04013  -1.02947  -0.89326  -0.88519
 Alpha  occ. eigenvalues --   -0.86695  -0.84729  -0.82420  -0.80505  -0.74617
 Alpha  occ. eigenvalues --   -0.72837  -0.71379  -0.70952  -0.70541  -0.70211
 Alpha  occ. eigenvalues --   -0.69677  -0.68908  -0.66153  -0.65054  -0.64264
 Alpha  occ. eigenvalues --   -0.63055  -0.62448  -0.62013  -0.61660  -0.60388
 Alpha  occ. eigenvalues --   -0.60082  -0.59616  -0.58051  -0.57744  -0.57550
 Alpha  occ. eigenvalues --   -0.56714  -0.56227  -0.55509  -0.55306  -0.54222
 Alpha  occ. eigenvalues --   -0.53724  -0.52996  -0.52327  -0.52201  -0.52034
 Alpha  occ. eigenvalues --   -0.51722  -0.50878  -0.50617  -0.50022  -0.49365
 Alpha  occ. eigenvalues --   -0.49111  -0.47712  -0.47003  -0.44093  -0.41184
 Alpha  occ. eigenvalues --   -0.40381  -0.39911  -0.39449  -0.39114  -0.38876
 Alpha  occ. eigenvalues --   -0.37864  -0.37619  -0.36978  -0.36334  -0.35757
 Alpha virt. eigenvalues --   -0.11821  -0.11600  -0.11563  -0.10078  -0.09585
 Alpha virt. eigenvalues --   -0.08709  -0.05811  -0.04374  -0.03653  -0.03079
 Alpha virt. eigenvalues --   -0.02250   0.00234   0.00437   0.01044   0.01765

 Mulliken charges:
               1
     1  N   -0.774091
     2  H    0.440190
     3  H    0.398381
     4  H    0.467881
     5  C   -0.293453
     6  H    0.225410
     7  H    0.256930
     8  C    0.619669
     9  O   -0.514113
    10  N   -0.562940
    11  H    0.354819
    12  C   -0.256198
    13  H    0.204907
    14  H    0.210151
    15  C    0.625040
    16  O   -0.514075
    17  N   -0.613850
    18  H    0.353668
    19  C   -0.216714
    20  H    0.202441
    21  H    0.216253
    22  C    0.617087
    23  O   -0.521880
    24  N   -0.569131
    25  H    0.356275
    26  C   -0.233738
    27  H    0.199085
    28  H    0.211361
    29  C    0.597638
    30  O   -0.545098
    31  N   -0.595114
    32  H    0.390483
    33  C   -0.247216
    34  H    0.215319
    35  H    0.207651
    36  C    0.610321
    37  O   -0.555112
    38  N   -0.559464
    39  H    0.357994
    40  C   -0.230010
    41  H    0.211533
    42  H    0.233883
    43  C    0.609537
    44  O   -0.492617
    45  O   -0.530867
    46  H    0.431775
 Sum of Mulliken charges =   1.00000

 Dipole moment (field-independent basis, Debye):
    X=             -4.0329    Y=              1.2148    Z=             -0.8097  Tot=              4.2891
 Quadrupole moment (field-independent basis, Debye-Ang):
   XX=           -124.4276   YY=           -118.1898   ZZ=            -70.0826
   XY=            -10.8718   XZ=             -1.5381   YZ=             19.0414

 Normal termination of Gaussian 16 at Fri Jul 15 04:10:52 2022.
