 Gaussian 16, Revision C.01,
 Gaussian 16:  ES64L-G16RevC.01  3-Jul-2019

 ----------------------------------------------------------------------
 # B3LYP/6-31G* empiricaldispersion=gd3bj guess=read geom=check nosymm
 integral(ultrafinegrid)
 ----------------------------------------------------------------------

 -----------------------------------------------------
 Candidate Structure: Conf:95 Charge calc in gas phase
 -----------------------------------------------------
 Structure from the checkpoint file:  "conf-95.chk"
 Charge =  1 Multiplicity = 1

                          Input orientation:
 ---------------------------------------------------------------------
 Center     Atomic      Atomic             Coordinates (Angstroms)
 Number     Number       Type             X           Y           Z
 ---------------------------------------------------------------------
      1          7           0       -6.864024    6.413720   -0.042802
      2          1           0       -7.751644    6.401378   -0.551941
      3          1           0       -6.063288    6.711499   -0.699371
      4          1           0       -6.946199    7.073068    0.735482
      5          6           0       -6.387185    5.049563    0.370419
      6          1           0       -7.118627    4.296216    0.074168
      7          1           0       -6.253586    5.016264    1.452708
      8          6           0       -5.044348    4.893775   -0.390826
      9          8           0       -4.695647    5.846632   -1.105863
     10          7           0       -4.387970    3.763734   -0.214270
     11          1           0       -4.710709    2.995332    0.385732
     12          6           0       -3.119701    3.441051   -0.847002
     13          1           0       -2.347922    4.163387   -0.560041
     14          1           0       -3.213733    3.464142   -1.937980
     15          6           0       -2.773176    2.025982   -0.345650
     16          8           0       -3.539604    1.455077    0.436062
     17          7           0       -1.633996    1.511476   -0.810919
     18          1           0       -1.020371    1.998110   -1.465083
     19          6           0       -1.153637    0.191563   -0.459803
     20          1           0       -1.894444   -0.574219   -0.717884
     21          1           0       -0.968116    0.116482    0.618365
     22          6           0        0.147202   -0.015825   -1.249935
     23          8           0        0.579722    0.875287   -1.982677
     24          7           0        0.741985   -1.205187   -1.078922
     25          1           0        0.364201   -1.930790   -0.475849
     26          6           0        1.968737   -1.567723   -1.754567
     27          1           0        2.820103   -1.001917   -1.356670
     28          1           0        1.892084   -1.357277   -2.826733
     29          6           0        2.214611   -3.049175   -1.488817
     30          8           0        1.530280   -3.667502   -0.668213
     31          7           0        3.210253   -3.616425   -2.206800
     32          1           0        3.843296   -3.001619   -2.703459
     33          6           0        3.722595   -4.945814   -1.868136
     34          1           0        2.869452   -5.592949   -1.654669
     35          1           0        4.280347   -5.337164   -2.718613
     36          6           0        4.668218   -4.815747   -0.668672
     37          8           0        5.878923   -4.730905   -0.800804
     38          7           0        4.023518   -4.718759    0.539413
     39          1           0        3.020488   -4.561339    0.490997
     40          6           0        4.730449   -4.096975    1.631160
     41          1           0        5.750485   -4.486197    1.670259
     42          1           0        4.247920   -4.328630    2.585541
     43          6           0        4.799501   -2.582572    1.461933
     44          8           0        4.276540   -1.949785    0.568780
     45          8           0        5.518415   -2.017646    2.449215
     46          1           0        5.536931   -1.057176    2.277800
 ---------------------------------------------------------------------

 SCF Done:  E(RB3LYP) =  -1324.94765928     A.U. after    1 cycles

 Alpha  occ. eigenvalues --  -19.28914 -19.26428 -19.23097 -19.21111 -19.20609
 Alpha  occ. eigenvalues --  -19.20537 -19.17577 -14.62278 -14.51234 -14.46478
 Alpha  occ. eigenvalues --  -14.44667 -14.44438 -14.41487 -10.45686 -10.42769
 Alpha  occ. eigenvalues --  -10.40311 -10.38956 -10.37814 -10.37580 -10.35705
 Alpha  occ. eigenvalues --  -10.34612 -10.32493 -10.30831 -10.29608 -10.29526
 Alpha  occ. eigenvalues --   -1.21423  -1.17468  -1.15964  -1.15078  -1.12866
 Alpha  occ. eigenvalues --   -1.12131  -1.09582  -1.08406  -1.07825  -1.03067
 Alpha  occ. eigenvalues --   -1.01048  -1.00661  -0.98312  -0.92302  -0.87061
 Alpha  occ. eigenvalues --   -0.84520  -0.82366  -0.80140  -0.77007  -0.76249
 Alpha  occ. eigenvalues --   -0.76113  -0.73770  -0.70049  -0.69020  -0.68357
 Alpha  occ. eigenvalues --   -0.67515  -0.66318  -0.65109  -0.63805  -0.63012
 Alpha  occ. eigenvalues --   -0.62784  -0.60620  -0.59672  -0.59613  -0.58379
 Alpha  occ. eigenvalues --   -0.57179  -0.56936  -0.56741  -0.56065  -0.55496
 Alpha  occ. eigenvalues --   -0.54685  -0.54419  -0.54063  -0.53086  -0.52705
 Alpha  occ. eigenvalues --   -0.52374  -0.51746  -0.50443  -0.48944  -0.48366
 Alpha  occ. eigenvalues --   -0.47534  -0.47255  -0.46779  -0.46553  -0.45956
 Alpha  occ. eigenvalues --   -0.44559  -0.44030  -0.43885  -0.43158  -0.41200
 Alpha  occ. eigenvalues --   -0.38736  -0.37781  -0.36464  -0.35850  -0.35258
 Alpha  occ. eigenvalues --   -0.34941  -0.34220  -0.33707  -0.32102  -0.30305
 Alpha virt. eigenvalues --   -0.13932  -0.13501  -0.08640  -0.07908  -0.06753
 Alpha virt. eigenvalues --   -0.06438  -0.05742  -0.05585  -0.03798  -0.02936
 Alpha virt. eigenvalues --   -0.02043  -0.00050   0.00856   0.01178   0.01329

 Mulliken charges:
               1
     1  N   -0.750793
     2  H    0.423995
     3  H    0.441605
     4  H    0.423920
     5  C   -0.276983
     6  H    0.250179
     7  H    0.250064
     8  C    0.640630
     9  O   -0.524432
    10  N   -0.604840
    11  H    0.381942
    12  C   -0.211962
    13  H    0.216478
    14  H    0.216384
    15  C    0.621018
    16  O   -0.535238
    17  N   -0.621767
    18  H    0.370200
    19  C   -0.200551
    20  H    0.202001
    21  H    0.201182
    22  C    0.614751
    23  O   -0.532574
    24  N   -0.624415
    25  H    0.362566
    26  C   -0.199033
    27  H    0.224392
    28  H    0.195253
    29  C    0.627159
    30  O   -0.550752
    31  N   -0.582470
    32  H    0.352396
    33  C   -0.245052
    34  H    0.199405
    35  H    0.193782
    36  C    0.587071
    37  O   -0.494203
    38  N   -0.569662
    39  H    0.363997
    40  C   -0.241117
    41  H    0.230339
    42  H    0.196392
    43  C    0.589102
    44  O   -0.478686
    45  O   -0.549373
    46  H    0.417700
 Sum of Mulliken charges =   1.00000

 Dipole moment (field-independent basis, Debye):
    X=            -24.1470    Y=             20.4659    Z=              0.6810  Tot=             31.6606
 Quadrupole moment (field-independent basis, Debye-Ang):
   XX=             38.2205   YY=             -1.8581   ZZ=           -130.2902
   XY=           -156.7019   XZ=             -0.6302   YZ=             12.3078

 Normal termination of Gaussian 16 at Fri Jul 15 04:10:43 2022.
