 Gaussian 16, Revision C.01,
 Gaussian 16:  ES64L-G16RevC.01  3-Jul-2019

 ----------------------------------------------------------------------
 # B3LYP/6-31G* empiricaldispersion=gd3bj guess=read geom=check nosymm
 integral(ultrafinegrid)
 ----------------------------------------------------------------------

 ------------------------------------------------------
 Candidate Structure: Conf:112 Charge calc in gas phase
 ------------------------------------------------------
 Structure from the checkpoint file:  "conf-112.chk"
 Charge =  1 Multiplicity = 1

                          Input orientation:
 ---------------------------------------------------------------------
 Center     Atomic      Atomic             Coordinates (Angstroms)
 Number     Number       Type             X           Y           Z
 ---------------------------------------------------------------------
      1          7           0        0.310720    3.830899   -1.218993
      2          1           0        0.695257    4.563979   -1.818544
      3          1           0        1.032930    3.084437   -0.999470
      4          1           0       -0.007414    4.207390   -0.312059
      5          6           0       -0.856533    3.116378   -1.815702
      6          1           0       -0.487786    2.433285   -2.581729
      7          1           0       -1.542644    3.843546   -2.257385
      8          6           0       -1.506906    2.384525   -0.630679
      9          8           0       -1.246869    2.778936    0.511514
     10          7           0       -2.322091    1.376216   -0.940530
     11          1           0       -2.415557    1.039554   -1.895468
     12          6           0       -2.885447    0.481213    0.061110
     13          1           0       -3.956199    0.676773    0.191536
     14          1           0       -2.376562    0.654080    1.007329
     15          6           0       -2.708153   -0.939059   -0.483500
     16          8           0       -2.950966   -1.165980   -1.661384
     17          7           0       -2.307617   -1.859769    0.431080
     18          1           0       -1.866403   -1.503289    1.272289
     19          6           0       -1.992163   -3.224137    0.027684
     20          1           0       -2.584046   -3.457163   -0.857591
     21          1           0       -2.260234   -3.910884    0.836785
     22          6           0       -0.513757   -3.333649   -0.353568
     23          8           0       -0.113669   -3.042809   -1.480521
     24          7           0        0.326727   -3.712781    0.644219
     25          1           0       -0.037063   -3.887018    1.570027
     26          6           0        1.765902   -3.827207    0.432867
     27          1           0        1.939997   -4.371562   -0.500074
     28          1           0        2.199695   -4.383011    1.263491
     29          6           0        2.448884   -2.454927    0.385546
     30          8           0        3.101095   -2.018907    1.339824
     31          7           0        2.269078   -1.773268   -0.769981
     32          1           0        1.559507   -2.133087   -1.410785
     33          6           0        2.879268   -0.476187   -1.006626
     34          1           0        3.920622   -0.509839   -0.667994
     35          1           0        2.859603   -0.265987   -2.075586
     36          6           0        2.157978    0.669285   -0.289824
     37          8           0        1.613212    1.578578   -0.944944
     38          7           0        2.189167    0.593438    1.048211
     39          1           0        2.633035   -0.251703    1.430006
     40          6           0        1.420919    1.430337    1.932976
     41          1           0        1.095750    2.330649    1.408445
     42          1           0        2.022572    1.741378    2.791717
     43          6           0        0.162918    0.731844    2.430871
     44          8           0       -0.302055   -0.286171    1.956461
     45          8           0       -0.367981    1.400756    3.458596
     46          1           0       -1.183380    0.944252    3.739190
 ---------------------------------------------------------------------

 SCF Done:  E(RB3LYP) =  -1324.98627185     A.U. after    1 cycles

 Alpha  occ. eigenvalues --  -19.32128 -19.27127 -19.26501 -19.26143 -19.22992
 Alpha  occ. eigenvalues --  -19.22704 -19.22430 -14.58683 -14.50198 -14.48441
 Alpha  occ. eigenvalues --  -14.47972 -14.47150 -14.46731 -10.45118 -10.43970
 Alpha  occ. eigenvalues --  -10.42349 -10.40094 -10.39855 -10.39827 -10.39790
 Alpha  occ. eigenvalues --  -10.35817 -10.34592 -10.34354 -10.33554 -10.33305
 Alpha  occ. eigenvalues --   -1.23373  -1.18930  -1.17090  -1.15200  -1.14621
 Alpha  occ. eigenvalues --   -1.14475  -1.14086  -1.13190  -1.06462  -1.05582
 Alpha  occ. eigenvalues --   -1.03897  -1.03377  -1.02849  -0.90275  -0.89154
 Alpha  occ. eigenvalues --   -0.86965  -0.84934  -0.82580  -0.80068  -0.75262
 Alpha  occ. eigenvalues --   -0.74270  -0.73320  -0.72823  -0.71134  -0.70247
 Alpha  occ. eigenvalues --   -0.69639  -0.68605  -0.66659  -0.65063  -0.64573
 Alpha  occ. eigenvalues --   -0.63254  -0.63024  -0.62969  -0.61242  -0.60305
 Alpha  occ. eigenvalues --   -0.60052  -0.59670  -0.59425  -0.58864  -0.58238
 Alpha  occ. eigenvalues --   -0.57660  -0.57028  -0.55783  -0.54681  -0.53960
 Alpha  occ. eigenvalues --   -0.53416  -0.52971  -0.52541  -0.52070  -0.51627
 Alpha  occ. eigenvalues --   -0.51252  -0.50676  -0.50097  -0.49582  -0.49191
 Alpha  occ. eigenvalues --   -0.48695  -0.48161  -0.47559  -0.44538  -0.41322
 Alpha  occ. eigenvalues --   -0.41204  -0.41000  -0.39884  -0.39084  -0.38947
 Alpha  occ. eigenvalues --   -0.38663  -0.36515  -0.36216  -0.35327  -0.34602
 Alpha virt. eigenvalues --   -0.12746  -0.11653  -0.11450  -0.10105  -0.09339
 Alpha virt. eigenvalues --   -0.09092  -0.07585  -0.04912  -0.04174  -0.03084
 Alpha virt. eigenvalues --   -0.02882  -0.01183   0.00147   0.00601   0.01289

 Mulliken charges:
               1
     1  N   -0.752385
     2  H    0.407393
     3  H    0.450934
     4  H    0.413123
     5  C   -0.280242
     6  H    0.239117
     7  H    0.239778
     8  C    0.647533
     9  O   -0.539702
    10  N   -0.588048
    11  H    0.370108
    12  C   -0.223394
    13  H    0.213051
    14  H    0.191481
    15  C    0.603651
    16  O   -0.499509
    17  N   -0.597743
    18  H    0.363074
    19  C   -0.239753
    20  H    0.233990
    21  H    0.175104
    22  C    0.615519
    23  O   -0.514164
    24  N   -0.578297
    25  H    0.348395
    26  C   -0.234538
    27  H    0.208911
    28  H    0.202163
    29  C    0.604562
    30  O   -0.533196
    31  N   -0.583307
    32  H    0.393592
    33  C   -0.241420
    34  H    0.213839
    35  H    0.196259
    36  C    0.617289
    37  O   -0.592833
    38  N   -0.560298
    39  H    0.403793
    40  C   -0.240603
    41  H    0.201454
    42  H    0.220047
    43  C    0.620890
    44  O   -0.487598
    45  O   -0.535389
    46  H    0.427368
 Sum of Mulliken charges =   1.00000

 Dipole moment (field-independent basis, Debye):
    X=              0.0930    Y=              7.1479    Z=              0.3480  Tot=              7.1570
 Quadrupole moment (field-independent basis, Debye-Ang):
   XX=           -127.7264   YY=            -74.3092   ZZ=           -123.3480
   XY=              1.6418   XZ=            -10.7626   YZ=            -28.7064

 Normal termination of Gaussian 16 at Fri Jul 15 04:10:45 2022.
