 Gaussian 16, Revision C.01,
 Gaussian 16:  ES64L-G16RevC.01  3-Jul-2019

 ----------------------------------------------------------------------
 # B3LYP/6-31G* empiricaldispersion=gd3bj guess=read geom=check nosymm
 integral(ultrafinegrid)
 ----------------------------------------------------------------------

 ------------------------------------------------------
 Candidate Structure: Conf:727 Charge calc in gas phase
 ------------------------------------------------------
 Structure from the checkpoint file:  "conf-727.chk"
 Charge =  1 Multiplicity = 1

                          Input orientation:
 ---------------------------------------------------------------------
 Center     Atomic      Atomic             Coordinates (Angstroms)
 Number     Number       Type             X           Y           Z
 ---------------------------------------------------------------------
      1          7           0       -1.166678    7.553329    0.797537
      2          1           0       -1.701149    7.993230    1.551803
      3          1           0       -1.816635    7.316887   -0.022494
      4          1           0       -0.441049    8.207743    0.492197
      5          6           0       -0.638529    6.190539    1.150429
      6          1           0       -0.899606    5.949291    2.182035
      7          1           0        0.446961    6.176182    1.040637
      8          6           0       -1.341975    5.254400    0.134102
      9          8           0       -2.113613    5.785047   -0.677228
     10          7           0       -1.062302    3.964680    0.214292
     11          1           0       -0.425448    3.559271    0.905447
     12          6           0       -1.649132    2.957993   -0.654721
     13          1           0       -1.383709    3.149480   -1.700676
     14          1           0       -2.741730    2.973637   -0.577539
     15          6           0       -1.079065    1.612332   -0.180828
     16          8           0       -0.272351    1.592115    0.758122
     17          7           0       -1.512427    0.525452   -0.829111
     18          1           0       -2.138762    0.632231   -1.616431
     19          6           0       -1.108579   -0.833438   -0.454090
     20          1           0       -1.829729   -1.541338   -0.861534
     21          1           0       -1.116809   -0.921604    0.634361
     22          6           0        0.277253   -1.204527   -0.995348
     23          8           0        0.426543   -1.996439   -1.925164
     24          7           0        1.329217   -0.616121   -0.372835
     25          1           0        1.134206    0.063254    0.354202
     26          6           0        2.689119   -1.063956   -0.645780
     27          1           0        3.384273   -0.371728   -0.162418
     28          1           0        2.882260   -1.067956   -1.719306
     29          6           0        2.948390   -2.503784   -0.151257
     30          8           0        3.653575   -3.274059   -0.777049
     31          7           0        2.350391   -2.800214    1.049954
     32          1           0        1.617153   -2.160300    1.337468
     33          6           0        1.990597   -4.172596    1.361494
     34          1           0        2.529870   -4.832897    0.677880
     35          1           0        2.273281   -4.433093    2.388741
     36          6           0        0.469485   -4.277584    1.202351
     37          8           0       -0.240145   -3.283449    1.370709
     38          7           0       -0.055941   -5.478728    0.848536
     39          1           0        0.582770   -6.164068    0.466684
     40          6           0       -1.418032   -5.477846    0.320987
     41          1           0       -2.132010   -5.209376    1.099697
     42          1           0       -1.650084   -6.482250   -0.042890
     43          6           0       -1.552875   -4.454394   -0.812284
     44          8           0       -2.498775   -3.707683   -0.950827
     45          8           0       -0.472519   -4.482672   -1.601850
     46          1           0       -0.399533   -3.625517   -2.084545
 ---------------------------------------------------------------------

 SCF Done:  E(RB3LYP) =  -1324.94249601     A.U. after    3 cycles

 Alpha  occ. eigenvalues --  -19.30164 -19.25653 -19.23956 -19.21061 -19.19862
 Alpha  occ. eigenvalues --  -19.19655 -19.17860 -14.63452 -14.52777 -14.49317
 Alpha  occ. eigenvalues --  -14.44944 -14.43892 -14.41893 -10.47028 -10.43948
 Alpha  occ. eigenvalues --  -10.42651 -10.37990 -10.37908 -10.37568 -10.36531
 Alpha  occ. eigenvalues --  -10.35139 -10.31969 -10.30415 -10.30017 -10.29712
 Alpha  occ. eigenvalues --   -1.22693  -1.17601  -1.16971  -1.15713  -1.12783
 Alpha  occ. eigenvalues --   -1.11746  -1.09680  -1.09337  -1.06943  -1.05237
 Alpha  occ. eigenvalues --   -1.01305  -1.00024  -0.98401  -0.93613  -0.88324
 Alpha  occ. eigenvalues --   -0.84133  -0.82468  -0.80011  -0.77326  -0.77313
 Alpha  occ. eigenvalues --   -0.76654  -0.75299  -0.71845  -0.69754  -0.68847
 Alpha  occ. eigenvalues --   -0.67249  -0.66228  -0.65873  -0.64137  -0.64001
 Alpha  occ. eigenvalues --   -0.63638  -0.61952  -0.61598  -0.61196  -0.60401
 Alpha  occ. eigenvalues --   -0.58411  -0.57170  -0.56383  -0.56343  -0.55411
 Alpha  occ. eigenvalues --   -0.54904  -0.54260  -0.53673  -0.53019  -0.51924
 Alpha  occ. eigenvalues --   -0.51645  -0.51153  -0.50611  -0.49648  -0.49013
 Alpha  occ. eigenvalues --   -0.48840  -0.47684  -0.47120  -0.46184  -0.45345
 Alpha  occ. eigenvalues --   -0.45217  -0.43784  -0.43330  -0.42660  -0.42509
 Alpha  occ. eigenvalues --   -0.40297  -0.39328  -0.37260  -0.35962  -0.35702
 Alpha  occ. eigenvalues --   -0.34213  -0.34051  -0.32392  -0.31602  -0.30870
 Alpha virt. eigenvalues --   -0.15222  -0.14483  -0.11002  -0.09069  -0.08094
 Alpha virt. eigenvalues --   -0.07686  -0.06296  -0.04573  -0.04327  -0.04178
 Alpha virt. eigenvalues --   -0.03559  -0.02847  -0.00500  -0.00141   0.01245

 Mulliken charges:
               1
     1  N   -0.749399
     2  H    0.427010
     3  H    0.442708
     4  H    0.426880
     5  C   -0.277518
     6  H    0.252609
     7  H    0.251901
     8  C    0.642109
     9  O   -0.518442
    10  N   -0.606774
    11  H    0.382373
    12  C   -0.210578
    13  H    0.220394
    14  H    0.221447
    15  C    0.626033
    16  O   -0.549563
    17  N   -0.590067
    18  H    0.360490
    19  C   -0.273029
    20  H    0.237065
    21  H    0.223251
    22  C    0.627943
    23  O   -0.532488
    24  N   -0.613134
    25  H    0.366100
    26  C   -0.228826
    27  H    0.180144
    28  H    0.213035
    29  C    0.589265
    30  O   -0.483347
    31  N   -0.569245
    32  H    0.335936
    33  C   -0.242414
    34  H    0.203728
    35  H    0.192701
    36  C    0.612434
    37  O   -0.541095
    38  N   -0.564888
    39  H    0.347794
    40  C   -0.214143
    41  H    0.208830
    42  H    0.192060
    43  C    0.590558
    44  O   -0.477074
    45  O   -0.580144
    46  H    0.447370
 Sum of Mulliken charges =   1.00000

 Dipole moment (field-independent basis, Debye):
    X=             -4.8283    Y=             26.9883    Z=              5.3710  Tot=             27.9380
 Quadrupole moment (field-independent basis, Debye-Ang):
   XX=           -145.1217   YY=             92.7620   ZZ=           -138.0228
   XY=            -19.4102   XZ=              3.3619   YZ=             20.2832

 Normal termination of Gaussian 16 at Fri Jul 15 04:10:58 2022.
