 Gaussian 16, Revision C.01,
 Gaussian 16:  ES64L-G16RevC.01  3-Jul-2019

 ----------------------------------------------------------------------
 # B3LYP/6-31G* empiricaldispersion=gd3bj guess=read geom=check nosymm
 integral(ultrafinegrid)
 ----------------------------------------------------------------------

 ------------------------------------------------------
 Candidate Structure: Conf:879 Charge calc in gas phase
 ------------------------------------------------------
 Structure from the checkpoint file:  "conf-879.chk"
 Charge =  1 Multiplicity = 1

                          Input orientation:
 ---------------------------------------------------------------------
 Center     Atomic      Atomic             Coordinates (Angstroms)
 Number     Number       Type             X           Y           Z
 ---------------------------------------------------------------------
      1          7           0       -3.479551    1.651218   -1.689613
      2          1           0       -3.001082    0.670347   -1.688416
      3          1           0       -2.867878    2.284187   -2.224347
      4          1           0       -4.420338    1.620798   -2.086936
      5          6           0       -3.447030    2.100917   -0.270687
      6          1           0       -3.800183    1.280642    0.356290
      7          1           0       -4.090233    2.975169   -0.139216
      8          6           0       -1.977938    2.456823    0.000452
      9          8           0       -1.233246    2.663553   -0.953957
     10          7           0       -1.633885    2.582515    1.298201
     11          1           0       -2.251442    2.178216    1.990638
     12          6           0       -0.240008    2.719842    1.665672
     13          1           0       -0.165606    3.204947    2.643205
     14          1           0        0.245425    3.359657    0.923573
     15          6           0        0.467431    1.356250    1.663918
     16          8           0       -0.104214    0.333853    1.302976
     17          7           0        1.760951    1.389693    2.088337
     18          1           0        2.192775    2.305505    2.123175
     19          6           0        2.639477    0.311041    1.673646
     20          1           0        2.237670   -0.645269    2.011636
     21          1           0        3.619617    0.454199    2.137291
     22          6           0        2.778492    0.319661    0.144569
     23          8           0        2.518716    1.333776   -0.506117
     24          7           0        3.217012   -0.833289   -0.413742
     25          1           0        3.088739   -1.687722    0.117918
     26          6           0        3.272874   -0.962399   -1.868986
     27          1           0        3.931666   -1.789182   -2.133274
     28          1           0        3.661054   -0.028872   -2.280218
     29          6           0        1.870781   -1.279731   -2.390152
     30          8           0        1.525867   -2.427752   -2.674153
     31          7           0        1.001804   -0.232446   -2.398834
     32          1           0        1.298252    0.633519   -1.950446
     33          6           0       -0.408691   -0.449159   -2.658598
     34          1           0       -0.859406    0.504420   -2.935480
     35          1           0       -0.506142   -1.145738   -3.498179
     36          6           0       -1.186018   -1.012463   -1.463455
     37          8           0       -2.303041   -0.556095   -1.124681
     38          7           0       -0.615286   -2.026397   -0.815874
     39          1           0        0.234800   -2.428091   -1.211117
     40          6           0       -1.066778   -2.497010    0.471466
     41          1           0       -1.626057   -3.438216    0.394333
     42          1           0       -1.727177   -1.750018    0.912937
     43          6           0        0.123592   -2.715213    1.385742
     44          8           0        1.288509   -2.662767    1.046817
     45          8           0       -0.282403   -3.017063    2.625508
     46          1           0        0.511802   -3.198820    3.163191
 ---------------------------------------------------------------------

 SCF Done:  E(RB3LYP) =  -1324.99508373     A.U. after    2 cycles

 Alpha  occ. eigenvalues --  -19.30785 -19.26555 -19.25885 -19.25634 -19.23950
 Alpha  occ. eigenvalues --  -19.22680 -19.22064 -14.57330 -14.50388 -14.47897
 Alpha  occ. eigenvalues --  -14.47430 -14.46785 -14.46316 -10.43888 -10.43833
 Alpha  occ. eigenvalues --  -10.41873 -10.40742 -10.39704 -10.39537 -10.39081
 Alpha  occ. eigenvalues --  -10.35412 -10.34496 -10.34402 -10.33587 -10.32599
 Alpha  occ. eigenvalues --   -1.22034  -1.18979  -1.16869  -1.15922  -1.14613
 Alpha  occ. eigenvalues --   -1.13780  -1.13106  -1.12184  -1.06752  -1.04937
 Alpha  occ. eigenvalues --   -1.03975  -1.03165  -1.02363  -0.90107  -0.88263
 Alpha  occ. eigenvalues --   -0.86634  -0.84579  -0.82457  -0.79596  -0.74295
 Alpha  occ. eigenvalues --   -0.73322  -0.73012  -0.72534  -0.70651  -0.69371
 Alpha  occ. eigenvalues --   -0.69060  -0.68281  -0.66413  -0.64994  -0.64015
 Alpha  occ. eigenvalues --   -0.63197  -0.62324  -0.61862  -0.61130  -0.60200
 Alpha  occ. eigenvalues --   -0.59573  -0.59409  -0.58360  -0.57877  -0.57684
 Alpha  occ. eigenvalues --   -0.57508  -0.56073  -0.55079  -0.54495  -0.54369
 Alpha  occ. eigenvalues --   -0.53890  -0.53077  -0.52731  -0.51972  -0.51609
 Alpha  occ. eigenvalues --   -0.50939  -0.50520  -0.50303  -0.48877  -0.48836
 Alpha  occ. eigenvalues --   -0.48058  -0.47919  -0.46805  -0.43162  -0.41292
 Alpha  occ. eigenvalues --   -0.41003  -0.40249  -0.39700  -0.38545  -0.38310
 Alpha  occ. eigenvalues --   -0.38166  -0.37334  -0.36202  -0.35862  -0.34602
 Alpha virt. eigenvalues --   -0.12585  -0.11175  -0.10212  -0.09932  -0.08975
 Alpha virt. eigenvalues --   -0.08747  -0.07497  -0.05605  -0.03146  -0.03045
 Alpha virt. eigenvalues --   -0.02563  -0.00952  -0.00107   0.00549   0.01726

 Mulliken charges:
               1
     1  N   -0.759751
     2  H    0.454793
     3  H    0.408691
     4  H    0.401839
     5  C   -0.281373
     6  H    0.230424
     7  H    0.236223
     8  C    0.651011
     9  O   -0.517044
    10  N   -0.566442
    11  H    0.352735
    12  C   -0.272996
    13  H    0.204074
    14  H    0.236243
    15  C    0.619806
    16  O   -0.526501
    17  N   -0.554887
    18  H    0.349035
    19  C   -0.261733
    20  H    0.206922
    21  H    0.205455
    22  C    0.620321
    23  O   -0.541468
    24  N   -0.584506
    25  H    0.375289
    26  C   -0.235174
    27  H    0.204007
    28  H    0.207066
    29  C    0.579892
    30  O   -0.521067
    31  N   -0.573364
    32  H    0.387205
    33  C   -0.242398
    34  H    0.166666
    35  H    0.225505
    36  C    0.658252
    37  O   -0.610383
    38  N   -0.575787
    39  H    0.401061
    40  C   -0.202952
    41  H    0.214507
    42  H    0.223532
    43  C    0.613975
    44  O   -0.487363
    45  O   -0.547059
    46  H    0.427717
 Sum of Mulliken charges =   1.00000

 Dipole moment (field-independent basis, Debye):
    X=             -7.3883    Y=              4.9107    Z=              1.5645  Tot=              9.0083
 Quadrupole moment (field-independent basis, Debye-Ang):
   XX=            -81.6373   YY=           -118.7247   ZZ=           -113.9796
   XY=            -22.2406   XZ=             20.0409   YZ=             -4.8162

 Normal termination of Gaussian 16 at Fri Jul 15 04:10:57 2022.
