 Gaussian 16, Revision C.01,
 Gaussian 16:  ES64L-G16RevC.01  3-Jul-2019

 ----------------------------------------------------------------------
 # B3LYP/6-31G* empiricaldispersion=gd3bj guess=read geom=check nosymm
 integral(ultrafinegrid)
 ----------------------------------------------------------------------

 ------------------------------------------------------
 Candidate Structure: Conf:797 Charge calc in gas phase
 ------------------------------------------------------
 Structure from the checkpoint file:  "conf-797.chk"
 Charge =  1 Multiplicity = 1

                          Input orientation:
 ---------------------------------------------------------------------
 Center     Atomic      Atomic             Coordinates (Angstroms)
 Number     Number       Type             X           Y           Z
 ---------------------------------------------------------------------
      1          7           0       -1.052368    2.016438    3.979752
      2          1           0       -0.187275    2.177646    3.403474
      3          1           0       -0.845719    2.017616    4.980724
      4          1           0       -1.702460    2.781954    3.731569
      5          6           0       -1.689133    0.751024    3.493207
      6          1           0       -2.470826    0.451929    4.195579
      7          1           0       -0.930353   -0.027250    3.400431
      8          6           0       -2.288507    1.136136    2.136657
      9          8           0       -2.663553    2.301107    1.971886
     10          7           0       -2.334790    0.164366    1.211579
     11          1           0       -1.737080   -0.646615    1.369143
     12          6           0       -2.608906    0.504883   -0.189223
     13          1           0       -3.346187    1.308377   -0.214297
     14          1           0       -2.993390   -0.372568   -0.707819
     15          6           0       -1.256273    0.901020   -0.794611
     16          8           0       -0.570968    0.089706   -1.404194
     17          7           0       -0.835505    2.159893   -0.464930
     18          1           0       -1.426136    2.685557    0.172217
     19          6           0        0.593057    2.456042   -0.408532
     20          1           0        0.737610    3.538047   -0.412099
     21          1           0        1.080788    2.018558   -1.280350
     22          6           0        1.117208    1.868500    0.906510
     23          8           0        0.681495    2.300033    1.988046
     24          7           0        1.979608    0.843564    0.800499
     25          1           0        2.161828    0.457811   -0.132526
     26          6           0        2.200828   -0.092522    1.903811
     27          1           0        1.894107    0.379007    2.835076
     28          1           0        3.258097   -0.365114    1.964041
     29          6           0        1.293157   -1.273724    1.544874
     30          8           0        0.096544   -1.279151    1.843650
     31          7           0        1.877871   -2.189649    0.727760
     32          1           0        2.845349   -1.987352    0.501269
     33          6           0        1.155679   -2.720463   -0.415076
     34          1           0        1.423690   -3.766159   -0.597214
     35          1           0        0.085718   -2.667083   -0.203840
     36          6           0        1.503903   -1.839418   -1.632211
     37          8           0        2.260120   -0.868700   -1.518811
     38          7           0        0.957198   -2.190431   -2.804827
     39          1           0        0.368040   -3.008258   -2.866679
     40          6           0        1.116385   -1.330075   -3.963223
     41          1           0        0.760944   -0.324022   -3.730705
     42          1           0        0.507883   -1.733365   -4.777579
     43          6           0        2.550821   -1.205220   -4.462923
     44          8           0        2.959565   -0.240479   -5.060488
     45          8           0        3.283684   -2.311458   -4.214661
     46          1           0        4.166751   -2.143687   -4.595526
 ---------------------------------------------------------------------

 SCF Done:  E(RB3LYP) =  -1324.97930440     A.U. after    1 cycles

 Alpha  occ. eigenvalues --  -19.27732 -19.26737 -19.25997 -19.25813 -19.23769
 Alpha  occ. eigenvalues --  -19.23608 -19.21768 -14.58814 -14.50152 -14.49246
 Alpha  occ. eigenvalues --  -14.48840 -14.47769 -14.47645 -10.43837 -10.42663
 Alpha  occ. eigenvalues --  -10.42447 -10.40801 -10.40548 -10.40338 -10.39358
 Alpha  occ. eigenvalues --  -10.35941 -10.35006 -10.35006 -10.34615 -10.32952
 Alpha  occ. eigenvalues --   -1.19169  -1.18652  -1.17730  -1.16875  -1.15622
 Alpha  occ. eigenvalues --   -1.15231  -1.13247  -1.09641  -1.06746  -1.06253
 Alpha  occ. eigenvalues --   -1.05058  -1.04016  -1.03806  -0.90341  -0.88943
 Alpha  occ. eigenvalues --   -0.86574  -0.84823  -0.82434  -0.80561  -0.74389
 Alpha  occ. eigenvalues --   -0.73241  -0.72696  -0.72090  -0.71435  -0.70608
 Alpha  occ. eigenvalues --   -0.69906  -0.68905  -0.66942  -0.66509  -0.65006
 Alpha  occ. eigenvalues --   -0.63337  -0.62863  -0.62036  -0.61371  -0.60613
 Alpha  occ. eigenvalues --   -0.60015  -0.59019  -0.58744  -0.58341  -0.57516
 Alpha  occ. eigenvalues --   -0.56643  -0.55932  -0.55385  -0.54986  -0.53889
 Alpha  occ. eigenvalues --   -0.53631  -0.53241  -0.52916  -0.52661  -0.52255
 Alpha  occ. eigenvalues --   -0.51444  -0.50802  -0.49982  -0.49693  -0.49486
 Alpha  occ. eigenvalues --   -0.49252  -0.47425  -0.46798  -0.41874  -0.41677
 Alpha  occ. eigenvalues --   -0.40868  -0.40656  -0.39729  -0.39573  -0.38463
 Alpha  occ. eigenvalues --   -0.37833  -0.37666  -0.37377  -0.36171  -0.34769
 Alpha virt. eigenvalues --   -0.14032  -0.13663  -0.10578  -0.09055  -0.08958
 Alpha virt. eigenvalues --   -0.08840  -0.07171  -0.03752  -0.03006  -0.02641
 Alpha virt. eigenvalues --   -0.01595  -0.00764  -0.00293   0.00046   0.00586

 Mulliken charges:
               1
     1  N   -0.751960
     2  H    0.454560
     3  H    0.407758
     4  H    0.419381
     5  C   -0.299946
     6  H    0.239216
     7  H    0.250255
     8  C    0.631032
     9  O   -0.531814
    10  N   -0.587938
    11  H    0.393992
    12  C   -0.245010
    13  H    0.217675
    14  H    0.202287
    15  C    0.582677
    16  O   -0.507744
    17  N   -0.569083
    18  H    0.367947
    19  C   -0.238585
    20  H    0.206646
    21  H    0.216739
    22  C    0.612844
    23  O   -0.587709
    24  N   -0.579569
    25  H    0.414065
    26  C   -0.235515
    27  H    0.184840
    28  H    0.196821
    29  C    0.592207
    30  O   -0.533430
    31  N   -0.528600
    32  H    0.350466
    33  C   -0.269247
    34  H    0.206252
    35  H    0.213167
    36  C    0.669156
    37  O   -0.556981
    38  N   -0.573094
    39  H    0.349567
    40  C   -0.222760
    41  H    0.222091
    42  H    0.199495
    43  C    0.598919
    44  O   -0.442616
    45  O   -0.561678
    46  H    0.423223
 Sum of Mulliken charges =   1.00000

 Dipole moment (field-independent basis, Debye):
    X=             -0.9989    Y=             -0.6729    Z=              9.0901  Tot=              9.1696
 Quadrupole moment (field-independent basis, Debye-Ang):
   XX=           -120.4891   YY=           -115.0149   ZZ=            -83.0573
   XY=            -11.8020   XZ=             -7.2026   YZ=             33.4518

 Normal termination of Gaussian 16 at Fri Jul 15 04:10:50 2022.
