 Gaussian 16, Revision C.01,
 Gaussian 16:  ES64L-G16RevC.01  3-Jul-2019

 ----------------------------------------------------------------------
 # B3LYP/6-31G* empiricaldispersion=gd3bj guess=read geom=check nosymm
 integral(ultrafinegrid)
 ----------------------------------------------------------------------

 ------------------------------------------------------
 Candidate Structure: Conf:883 Charge calc in gas phase
 ------------------------------------------------------
 Structure from the checkpoint file:  "conf-883.chk"
 Charge =  1 Multiplicity = 1

                          Input orientation:
 ---------------------------------------------------------------------
 Center     Atomic      Atomic             Coordinates (Angstroms)
 Number     Number       Type             X           Y           Z
 ---------------------------------------------------------------------
      1          7           0        1.661454    3.168689   -1.683504
      2          1           0        2.642412    3.396075   -1.860030
      3          1           0        1.111349    3.141905   -2.561173
      4          1           0        1.548395    2.205180   -1.252817
      5          6           0        0.961672    4.153160   -0.800223
      6          1           0        1.230345    5.166774   -1.108526
      7          1           0        1.271670    3.982049    0.231370
      8          6           0       -0.527921    3.861457   -1.050677
      9          8           0       -0.837665    3.348552   -2.123112
     10          7           0       -1.397521    4.119516   -0.057896
     11          1           0       -1.082282    4.557023    0.797710
     12          6           0       -2.762858    3.594667   -0.154435
     13          1           0       -3.270205    3.999881   -1.030808
     14          1           0       -3.308874    3.895799    0.742644
     15          6           0       -2.766212    2.058871   -0.306610
     16          8           0       -3.597722    1.493846   -0.990076
     17          7           0       -1.785657    1.414965    0.403201
     18          1           0       -1.077851    1.977230    0.852672
     19          6           0       -1.363342    0.081085    0.051621
     20          1           0       -2.119247   -0.358883   -0.600781
     21          1           0       -1.261396   -0.552206    0.942789
     22          6           0        0.009520    0.107571   -0.612486
     23          8           0        0.822688    1.033056   -0.350562
     24          7           0        0.314698   -0.931264   -1.394337
     25          1           0       -0.342208   -1.712244   -1.376729
     26          6           0        1.691583   -1.275405   -1.757587
     27          1           0        2.267702   -0.357226   -1.883016
     28          1           0        1.692108   -1.843907   -2.686762
     29          6           0        2.235180   -2.158500   -0.625528
     30          8           0        2.326031   -3.372460   -0.737065
     31          7           0        2.465096   -1.484934    0.544291
     32          1           0        2.180072   -0.511939    0.576895
     33          6           0        2.345461   -2.225267    1.800434
     34          1           0        2.976664   -3.113412    1.748163
     35          1           0        2.679936   -1.590319    2.621313
     36          6           0        0.863559   -2.562734    2.008806
     37          8           0        0.073205   -1.733927    2.454409
     38          7           0        0.496987   -3.809467    1.602456
     39          1           0        1.146608   -4.316327    1.011708
     40          6           0       -0.882085   -4.221870    1.637610
     41          1           0       -1.358171   -3.783072    2.519716
     42          1           0       -0.950439   -5.309138    1.734365
     43          6           0       -1.691918   -3.791866    0.422046
     44          8           0       -1.303706   -3.080712   -0.484837
     45          8           0       -2.926761   -4.301637    0.477607
     46          1           0       -3.417347   -3.997974   -0.310338
 ---------------------------------------------------------------------

 SCF Done:  E(RB3LYP) =  -1324.96774635     A.U. after    1 cycles

 Alpha  occ. eigenvalues --  -19.30525 -19.27583 -19.27085 -19.25785 -19.23069
 Alpha  occ. eigenvalues --  -19.21941 -19.21849 -14.59849 -14.51783 -14.49503
 Alpha  occ. eigenvalues --  -14.46969 -14.46660 -14.46389 -10.44974 -10.43622
 Alpha  occ. eigenvalues --  -10.42973 -10.41490 -10.40048 -10.39573 -10.38959
 Alpha  occ. eigenvalues --  -10.35166 -10.35020 -10.33728 -10.33638 -10.32935
 Alpha  occ. eigenvalues --   -1.21908  -1.20351  -1.17885  -1.15079  -1.14479
 Alpha  occ. eigenvalues --   -1.13885  -1.13627  -1.12863  -1.07799  -1.06127
 Alpha  occ. eigenvalues --   -1.03311  -1.03078  -1.02668  -0.91163  -0.88463
 Alpha  occ. eigenvalues --   -0.86422  -0.85110  -0.82358  -0.80170  -0.75420
 Alpha  occ. eigenvalues --   -0.74599  -0.73999  -0.73280  -0.71286  -0.69632
 Alpha  occ. eigenvalues --   -0.69240  -0.68138  -0.67389  -0.66580  -0.64304
 Alpha  occ. eigenvalues --   -0.64002  -0.62644  -0.61529  -0.61390  -0.61294
 Alpha  occ. eigenvalues --   -0.60198  -0.59618  -0.59501  -0.58133  -0.57408
 Alpha  occ. eigenvalues --   -0.56843  -0.56257  -0.55678  -0.55598  -0.54887
 Alpha  occ. eigenvalues --   -0.53987  -0.53138  -0.52068  -0.51757  -0.51541
 Alpha  occ. eigenvalues --   -0.50683  -0.50580  -0.49870  -0.49411  -0.48647
 Alpha  occ. eigenvalues --   -0.48284  -0.47722  -0.46834  -0.43161  -0.42258
 Alpha  occ. eigenvalues --   -0.41681  -0.41496  -0.40628  -0.39711  -0.38378
 Alpha  occ. eigenvalues --   -0.36602  -0.36230  -0.35961  -0.35452  -0.34292
 Alpha virt. eigenvalues --   -0.14251  -0.12929  -0.10248  -0.10166  -0.09018
 Alpha virt. eigenvalues --   -0.08748  -0.08121  -0.06818  -0.04401  -0.02749
 Alpha virt. eigenvalues --   -0.02183  -0.01990  -0.01368   0.00189   0.00901

 Mulliken charges:
               1
     1  N   -0.757545
     2  H    0.407820
     3  H    0.421219
     4  H    0.449277
     5  C   -0.280354
     6  H    0.244500
     7  H    0.225167
     8  C    0.645042
     9  O   -0.498183
    10  N   -0.609541
    11  H    0.356698
    12  C   -0.233801
    13  H    0.233627
    14  H    0.208102
    15  C    0.600148
    16  O   -0.474518
    17  N   -0.567896
    18  H    0.321531
    19  C   -0.257907
    20  H    0.219525
    21  H    0.245909
    22  C    0.619955
    23  O   -0.631283
    24  N   -0.567185
    25  H    0.414515
    26  C   -0.243418
    27  H    0.167527
    28  H    0.214996
    29  C    0.589686
    30  O   -0.490411
    31  N   -0.572564
    32  H    0.347198
    33  C   -0.234722
    34  H    0.201255
    35  H    0.194166
    36  C    0.579607
    37  O   -0.521604
    38  N   -0.559015
    39  H    0.370924
    40  C   -0.236494
    41  H    0.235189
    42  H    0.215831
    43  C    0.600476
    44  O   -0.492642
    45  O   -0.531655
    46  H    0.430845
 Sum of Mulliken charges =   1.00000

 Dipole moment (field-independent basis, Debye):
    X=              5.0175    Y=              8.9765    Z=             -1.2396  Tot=             10.3580
 Quadrupole moment (field-independent basis, Debye-Ang):
   XX=           -125.2826   YY=            -56.4836   ZZ=           -133.7179
   XY=             22.9596   XZ=            -12.6895   YZ=            -10.1114

 Normal termination of Gaussian 16 at Fri Jul 15 04:10:49 2022.
