 Gaussian 16, Revision C.01,
 Gaussian 16:  ES64L-G16RevC.01  3-Jul-2019

 ----------------------------------------------------------------------
 # B3LYP/6-31G* empiricaldispersion=gd3 guess=read geom=check nosymm in
 tegral(ultrafinegrid)
 ----------------------------------------------------------------------

 ------------------------------------------------------
 Candidate Structure: Conf:472 Charge calc in gas phase
 ------------------------------------------------------
 Structure from the checkpoint file:  "conf-472.chk"
 Charge =  1 Multiplicity = 1

                          Input orientation:
 ---------------------------------------------------------------------
 Center     Atomic      Atomic             Coordinates (Angstroms)
 Number     Number       Type             X           Y           Z
 ---------------------------------------------------------------------
      1          7           0        0.389587   -4.685669    2.544170
      2          1           0        0.974344   -5.203784    3.198479
      3          1           0       -0.053610   -5.349827    1.911380
      4          1           0        1.440003   -3.927738    1.564035
      5          6           0       -0.639604   -3.904016    3.252813
      6          1           0       -1.312410   -4.563779    3.824008
      7          6           0       -1.481978   -3.205993    2.166341
      8          6           0        0.037324   -2.931529    4.263539
      9          1           0        0.843253   -3.520966    4.723330
     10          8           0       -1.183253   -3.308629    0.978257
     11          6           0        0.675333   -1.716973    3.578327
     12          1           0       -0.099313   -1.042681    3.193130
     13          1           0        1.278235   -1.163781    4.311436
     14          1           0        1.323275   -1.993492    2.746468
     15          6           0       -0.895077   -2.479343    5.400644
     16          1           0       -1.613911   -1.719322    5.071067
     17          1           0       -1.446981   -3.319080    5.839118
     18          1           0       -0.306343   -2.019941    6.202018
     19          7           0       -2.558531   -2.507731    2.609735
     20          1           0       -2.727753   -2.415533    3.602399
     21          6           0       -3.353104   -1.635645    1.751315
     22          1           0       -2.920409   -1.700913    0.754164
     23          6           0       -3.224589   -0.210959    2.306690
     24          6           0       -4.848969   -2.041946    1.713695
     25          1           0       -5.234211   -1.893942    2.732711
     26          8           0       -3.412513    0.008390    3.505944
     27          6           0       -5.044887   -3.531054    1.362325
     28          1           0       -6.123637   -3.732520    1.393748
     29          1           0       -4.597202   -4.143581    2.154732
     30          6           0       -5.628506   -1.107411    0.772038
     31          1           0       -5.182619   -1.071696   -0.227603
     32          1           0       -5.653692   -0.081896    1.157242
     33          1           0       -6.665349   -1.445731    0.673766
     34          6           0       -4.479648   -3.977861    0.008054
     35          1           0       -4.766311   -5.014292   -0.201609
     36          1           0       -4.857543   -3.361622   -0.815670
     37          1           0       -3.385986   -3.931558    0.000184
     38          7           0       -2.902973    0.751518    1.405715
     39          1           0       -2.877718    0.509343    0.419694
     40          6           0       -2.936776    2.162462    1.754822
     41          1           0       -3.921400    2.405066    2.175325
     42          6           0       -2.707782    2.989950    0.483402
     43          6           0       -1.852967    2.541003    2.822727
     44          1           0       -0.903474    2.748968    2.324540
     45          1           0       -1.704357    1.656362    3.443217
     46          8           0       -2.425335    2.472485   -0.610870
     47          6           0       -2.266696    3.703750    3.697083
     48          6           0       -1.655758    4.962134    3.591362
     49          1           0       -0.848654    5.119010    2.879050
     50          6           0       -3.309641    3.529303    4.621008
     51          1           0       -3.772683    2.548980    4.710836
     52          6           0       -2.089303    6.028979    4.385542
     53          1           0       -1.607869    6.998390    4.289947
     54          6           0       -3.736427    4.592265    5.415051
     55          1           0       -4.542018    4.443204    6.128811
     56          6           0       -3.129712    5.846979    5.296653
     57          1           0       -3.465740    6.675075    5.914355
     58          7           0       -2.752532    4.327028    0.642939
     59          1           0       -2.852233    4.697530    1.583580
     60          6           0       -2.205628    5.244037   -0.366310
     61          1           0       -2.501032    4.858322   -1.344029
     62          6           0       -0.668831    5.196520   -0.218278
     63          6           0       -2.737178    6.661934   -0.148905
     64          1           0       -2.326501    7.295605   -0.946357
     65          1           0       -2.316400    7.042426    0.789636
     66          8           0       -0.075485    5.861900    0.628038
     67          6           0       -4.272130    6.785663   -0.133600
     68          1           0       -4.655350    6.183546    0.703024
     69          6           0       -4.666477    8.247231    0.121513
     70          1           0       -4.321220    8.893154   -0.695873
     71          1           0       -4.228324    8.623067    1.053504
     72          1           0       -5.754515    8.353136    0.193011
     73          6           0       -4.913942    6.260221   -1.425439
     74          1           0       -4.514924    6.787249   -2.302088
     75          1           0       -5.998209    6.415664   -1.410572
     76          1           0       -4.739880    5.187224   -1.566324
     77          7           0       -0.025436    4.319831   -1.038017
     78          1           0       -0.552305    3.689074   -1.630619
     79          6           0        1.392138    4.073140   -0.870264
     80          1           0        1.881625    5.042056   -0.719035
     81          6           0        1.947550    3.403556   -2.132205
     82          6           0        1.691518    3.203020    0.377324
     83          1           0        1.275216    3.721906    1.244233
     84          1           0        2.776553    3.148026    0.533353
     85          8           0        1.230679    2.935948   -3.008460
     86          6           0        1.119303    1.776090    0.272854
     87          1           0        0.024268    1.801851    0.259476
     88          1           0        1.437232    1.280394   -0.645720
     89          6           0        1.591086    0.940866    1.434197
     90          8           0        2.340033   -0.016262    1.366734
     91          8           0        1.125774    1.396920    2.610577
     92          7           0        3.318853    3.334126   -2.172575
     93          1           0        3.821839    3.552586   -1.320305
     94          6           0        4.018088    2.407793   -3.059190
     95          1           0        3.380034    2.274266   -3.935628
     96          6           0        4.173551    1.086873   -2.260721
     97          6           0        5.375512    3.015744   -3.457468
     98          1           0        5.204814    4.038036   -3.812140
     99          1           0        6.022353    3.054573   -2.577427
    100          8           0        4.781517    1.092657   -1.191474
    101          6           0        6.085310    2.193826   -4.523026
    102          7           0        5.554955    2.248422   -5.765673
    103          1           0        6.027509    1.757779   -6.514626
    104          1           0        4.845877    2.922639   -6.017842
    105          8           0        7.057531    1.475788   -4.264068
    106          7           0        3.519596    0.001881   -2.748349
    107          1           0        3.000331    0.124445   -3.607364
    108          6           0        3.013063   -1.051047   -1.853894
    109          1           0        2.498726   -0.554947   -1.028650
    110          6           0        4.083717   -1.953711   -1.244144
    111          6           0        1.985337   -1.942521   -2.598821
    112          1           0        2.316617   -2.060852   -3.640059
    113          1           0        2.025964   -2.943930   -2.161533
    114          8           0        4.821076   -2.685954   -1.929610
    115          6           0        0.572436   -1.415015   -2.478481
    116          6           0       -0.415751   -2.215649   -1.894912
    117          1           0       -0.177438   -3.221615   -1.563694
    118          6           0        0.227066   -0.106524   -2.845781
    119          1           0        0.945303    0.559894   -3.310779
    120          6           0       -1.698541   -1.728619   -1.669153
    121          1           0       -2.450666   -2.358460   -1.214054
    122          6           0       -1.040850    0.408322   -2.588111
    123          1           0       -1.272844    1.436386   -2.846264
    124          8           0       -3.246270    0.063750   -1.631210
    125          1           0       -3.197332    1.039333   -1.575402
    126          6           0       -2.002739   -0.403132   -1.976874
    127          7           0        4.075117   -1.944437    0.097695
    128          1           0        3.429638   -1.295685    0.541663
    129          6           0        4.562300   -3.015512    0.954274
    130          1           0        5.051188   -3.759361    0.313998
    131          6           0        3.356829   -3.730747    1.625152
    132          6           0        5.533993   -2.509376    2.034694
    133          1           0        5.093988   -1.613726    2.494952
    134          1           0        5.564703   -3.276986    2.813060
    135          8           0        3.497197   -4.423978    2.617469
    136          6           0        6.980055   -2.212726    1.605931
    137          1           0        7.539956   -1.979805    2.518714
    138          1           0        7.447360   -3.116469    1.192019
    139          6           0        7.212206   -1.047181    0.629394
    140          1           0        6.510915   -0.225606    0.831338
    141          1           0        8.234613   -0.675636    0.770636
    142          7           0        7.074422   -1.478905   -0.762449
    143          1           0        6.488416   -2.289464   -0.956012
    144          7           0        7.935214    0.474379   -1.721733
    145          1           0        7.848234    1.116674   -2.507686
    146          1           0        8.112313    0.866811   -0.810691
    147          7           0        6.878919   -1.115913   -3.035378
    148          1           0        6.958853   -0.463356   -3.807261
    149          1           0        6.126762   -1.804558   -3.056095
    150          6           0        7.273177   -0.690944   -1.823766
    151          8           0        2.208389   -3.495010    1.009749
    152          1           0        1.459712    0.807079    3.312978
 ---------------------------------------------------------------------

 SCF Done:  E(RB3LYP) =  -3586.94784022     A.U. after    3 cycles

 Alpha  occ. eigenvalues --  -19.29214 -19.24626 -19.24190 -19.23505 -19.23464
 Alpha  occ. eigenvalues --  -19.23037 -19.23034 -19.21947 -19.21479 -19.19800
 Alpha  occ. eigenvalues --  -19.19721 -19.18780 -19.18676 -14.48244 -14.47357
 Alpha  occ. eigenvalues --  -14.47178 -14.46397 -14.46304 -14.45068 -14.45013
 Alpha  occ. eigenvalues --  -14.44516 -14.44467 -14.43188 -14.42984 -14.41737
 Alpha  occ. eigenvalues --  -10.42546 -10.42115 -10.42051 -10.39929 -10.39879
 Alpha  occ. eigenvalues --  -10.38530 -10.38130 -10.38126 -10.36876 -10.35873
 Alpha  occ. eigenvalues --  -10.35716 -10.35623 -10.33278 -10.32602 -10.32418
 Alpha  occ. eigenvalues --  -10.31792 -10.31763 -10.31756 -10.31284 -10.30719
 Alpha  occ. eigenvalues --  -10.30554 -10.29397 -10.29273 -10.29021 -10.28184
 Alpha  occ. eigenvalues --  -10.27665 -10.27464 -10.27136 -10.26193 -10.26117
 Alpha  occ. eigenvalues --  -10.25738 -10.25435 -10.25376 -10.25307 -10.25165
 Alpha  occ. eigenvalues --  -10.25094 -10.25003 -10.24969 -10.24958 -10.24949
 Alpha  occ. eigenvalues --  -10.24909 -10.24900 -10.24797 -10.24751 -10.24092
 Alpha  occ. eigenvalues --  -10.23426 -10.23306 -10.22920 -10.22841 -10.22101
 Alpha  occ. eigenvalues --   -1.20469  -1.16123  -1.15445  -1.15267  -1.14455
 Alpha  occ. eigenvalues --   -1.13620  -1.12924  -1.11725  -1.11358  -1.11353
 Alpha  occ. eigenvalues --   -1.11240  -1.10939  -1.10217  -1.06651  -1.04076
 Alpha  occ. eigenvalues --   -1.03314  -1.03002  -1.01751  -1.01709  -1.01109
 Alpha  occ. eigenvalues --   -1.00953  -0.99792  -0.99473  -0.99156  -0.97961
 Alpha  occ. eigenvalues --   -0.91932  -0.91827  -0.90986  -0.89357  -0.88900
 Alpha  occ. eigenvalues --   -0.88274  -0.87654  -0.86945  -0.86559  -0.85634
 Alpha  occ. eigenvalues --   -0.83966  -0.83722  -0.81969  -0.80911  -0.80851
 Alpha  occ. eigenvalues --   -0.80599  -0.80367  -0.78890  -0.78452  -0.77386
 Alpha  occ. eigenvalues --   -0.77047  -0.76031  -0.74672  -0.74593  -0.74116
 Alpha  occ. eigenvalues --   -0.73450  -0.73243  -0.72971  -0.72048  -0.71553
 Alpha  occ. eigenvalues --   -0.70411  -0.69962  -0.69671  -0.69634  -0.69089
 Alpha  occ. eigenvalues --   -0.68453  -0.68412  -0.67805  -0.67545  -0.66770
 Alpha  occ. eigenvalues --   -0.66567  -0.66389  -0.66259  -0.65809  -0.65750
 Alpha  occ. eigenvalues --   -0.65437  -0.65233  -0.64712  -0.64352  -0.63901
 Alpha  occ. eigenvalues --   -0.63312  -0.62073  -0.61590  -0.61213  -0.60810
 Alpha  occ. eigenvalues --   -0.60533  -0.60196  -0.59937  -0.59746  -0.59230
 Alpha  occ. eigenvalues --   -0.59067  -0.58411  -0.58136  -0.58088  -0.57972
 Alpha  occ. eigenvalues --   -0.57482  -0.57075  -0.56871  -0.56679  -0.56511
 Alpha  occ. eigenvalues --   -0.56016  -0.55850  -0.55636  -0.55189  -0.55021
 Alpha  occ. eigenvalues --   -0.54776  -0.54458  -0.54323  -0.54122  -0.53982
 Alpha  occ. eigenvalues --   -0.53710  -0.53508  -0.53133  -0.53076  -0.52618
 Alpha  occ. eigenvalues --   -0.52605  -0.52210  -0.52114  -0.51893  -0.51818
 Alpha  occ. eigenvalues --   -0.51605  -0.51489  -0.51279  -0.50992  -0.50858
 Alpha  occ. eigenvalues --   -0.50770  -0.50584  -0.50445  -0.50056  -0.49855
 Alpha  occ. eigenvalues --   -0.49546  -0.49487  -0.48904  -0.48870  -0.48812
 Alpha  occ. eigenvalues --   -0.48736  -0.48678  -0.48326  -0.48079  -0.47874
 Alpha  occ. eigenvalues --   -0.47751  -0.47677  -0.47324  -0.47125  -0.46950
 Alpha  occ. eigenvalues --   -0.46724  -0.46543  -0.46415  -0.46129  -0.46064
 Alpha  occ. eigenvalues --   -0.45990  -0.45796  -0.45671  -0.45440  -0.45263
 Alpha  occ. eigenvalues --   -0.45199  -0.45002  -0.44822  -0.44786  -0.44294
 Alpha  occ. eigenvalues --   -0.43903  -0.43859  -0.43671  -0.43437  -0.43246
 Alpha  occ. eigenvalues --   -0.43076  -0.42946  -0.42532  -0.42500  -0.42050
 Alpha  occ. eigenvalues --   -0.41859  -0.41614  -0.41579  -0.41066  -0.40923
 Alpha  occ. eigenvalues --   -0.40730  -0.40099  -0.39857  -0.39828  -0.39758
 Alpha  occ. eigenvalues --   -0.39226  -0.38934  -0.38845  -0.38822  -0.38685
 Alpha  occ. eigenvalues --   -0.38320  -0.38019  -0.37994  -0.37764  -0.37632
 Alpha  occ. eigenvalues --   -0.37555  -0.37286  -0.36940  -0.36858  -0.36592
 Alpha  occ. eigenvalues --   -0.36482  -0.35953  -0.35686  -0.35285  -0.34541
 Alpha  occ. eigenvalues --   -0.34345  -0.34052  -0.33688  -0.33074  -0.32453
 Alpha  occ. eigenvalues --   -0.32195  -0.32067  -0.31255  -0.31118  -0.30823
 Alpha  occ. eigenvalues --   -0.30482  -0.28181
 Alpha virt. eigenvalues --   -0.11042  -0.10451  -0.09237  -0.08612  -0.08447
 Alpha virt. eigenvalues --   -0.08193  -0.07087  -0.06798  -0.06446  -0.06376
 Alpha virt. eigenvalues --   -0.05885  -0.05551  -0.05338  -0.04860  -0.04285

 Mulliken charges:
               1
     1  N   -0.785737
     2  H    0.344495
     3  H    0.341602
     4  H    0.493217
     5  C   -0.066011
     6  H    0.154803
     7  C    0.612635
     8  C   -0.078857
     9  H    0.151853
    10  O   -0.526038
    11  C   -0.496757
    12  H    0.155940
    13  H    0.129685
    14  H    0.186806
    15  C   -0.487019
    16  H    0.170355
    17  H    0.154641
    18  H    0.162022
    19  N   -0.603305
    20  H    0.350694
    21  C   -0.070221
    22  H    0.189387
    23  C    0.629393
    24  C   -0.084460
    25  H    0.141519
    26  O   -0.555395
    27  C   -0.252894
    28  H    0.142946
    29  H    0.130256
    30  C   -0.484803
    31  H    0.175639
    32  H    0.144038
    33  H    0.156523
    34  C   -0.486040
    35  H    0.149610
    36  H    0.154219
    37  H    0.178275
    38  N   -0.660986
    39  H    0.388474
    40  C   -0.022556
    41  H    0.192482
    42  C    0.608373
    43  C   -0.378476
    44  H    0.167654
    45  H    0.199745
    46  O   -0.589999
    47  C    0.118303
    48  C   -0.241406
    49  H    0.169170
    50  C   -0.182223
    51  H    0.165636
    52  C   -0.133293
    53  H    0.145372
    54  C   -0.130196
    55  H    0.145652
    56  C   -0.127677
    57  H    0.144202
    58  N   -0.594123
    59  H    0.368517
    60  C   -0.063154
    61  H    0.174709
    62  C    0.628714
    63  C   -0.289342
    64  H    0.151426
    65  H    0.168643
    66  O   -0.531440
    67  C   -0.074998
    68  H    0.129798
    69  C   -0.444043
    70  H    0.146359
    71  H    0.147276
    72  H    0.153133
    73  C   -0.453415
    74  H    0.144318
    75  H    0.156842
    76  H    0.144381
    77  N   -0.611882
    78  H    0.374082
    79  C   -0.052631
    80  H    0.198014
    81  C    0.615263
    82  C   -0.307340
    83  H    0.212626
    84  H    0.148877
    85  O   -0.514107
    86  C   -0.376874
    87  H    0.206974
    88  H    0.193651
    89  C    0.608075
    90  O   -0.481372
    91  O   -0.555185
    92  N   -0.597653
    93  H    0.347996
    94  C   -0.066529
    95  H    0.179526
    96  C    0.628936
    97  C   -0.369307
    98  H    0.190531
    99  H    0.186187
   100  O   -0.547606
   101  C    0.598557
   102  N   -0.720464
   103  H    0.370041
   104  H    0.364034
   105  O   -0.533806
   106  N   -0.607659
   107  H    0.349446
   108  C   -0.059061
   109  H    0.196817
   110  C    0.648871
   111  C   -0.411243
   112  H    0.165626
   113  H    0.196446
   114  O   -0.596248
   115  C    0.172548
   116  C   -0.191934
   117  H    0.152074
   118  C   -0.216795
   119  H    0.117298
   120  C   -0.146971
   121  H    0.163516
   122  C   -0.181032
   123  H    0.142500
   124  O   -0.681143
   125  H    0.440011
   126  C    0.329888
   127  N   -0.603995
   128  H    0.422319
   129  C   -0.092153
   130  H    0.194762
   131  C    0.594563
   132  C   -0.268889
   133  H    0.147027
   134  H    0.196440
   135  O   -0.489668
   136  C   -0.316679
   137  H    0.169609
   138  H    0.167107
   139  C   -0.138676
   140  H    0.183588
   141  H    0.162441
   142  N   -0.616185
   143  H    0.382481
   144  N   -0.781116
   145  H    0.396725
   146  H    0.362727
   147  N   -0.794051
   148  H    0.381820
   149  H    0.395032
   150  C    0.793910
   151  O   -0.616408
   152  H    0.430832
 Sum of Mulliken charges =   1.00000

 Dipole moment (field-independent basis, Debye):
    X=             14.3440    Y=              6.7844    Z=             -3.4594  Tot=             16.2403
 Quadrupole moment (field-independent basis, Debye-Ang):
   XX=           -306.2961   YY=           -377.9514   ZZ=           -363.4443
   XY=             14.3582   XZ=            -53.9741   YZ=            -34.8919

 Normal termination of Gaussian 16 at Sat Aug 13 18:50:01 2022.
