 Gaussian 16, Revision C.01,
 Gaussian 16:  ES64L-G16RevC.01  3-Jul-2019

 ----------------------------------------------------------------------
 # B3LYP/6-31G* empiricaldispersion=gd3 guess=read geom=check nosymm in
 tegral(ultrafinegrid)
 ----------------------------------------------------------------------

 ------------------------------------------------------
 Candidate Structure: Conf:433 Charge calc in gas phase
 ------------------------------------------------------
 Structure from the checkpoint file:  "conf-433.chk"
 Charge =  1 Multiplicity = 1

                          Input orientation:
 ---------------------------------------------------------------------
 Center     Atomic      Atomic             Coordinates (Angstroms)
 Number     Number       Type             X           Y           Z
 ---------------------------------------------------------------------
      1          7           0      -10.759930    3.283736    6.026321
      2          1           0      -11.530570    3.529234    5.398288
      3          1           0      -10.634817    2.232710    6.002666
      4          1           0      -10.982448    3.621236    6.966000
      5          6           0       -9.408280    3.769753    5.527624
      6          1           0       -9.575396    4.629622    4.873120
      7          6           0       -8.904705    2.526034    4.744723
      8          6           0       -8.507980    4.164766    6.724899
      9          1           0       -8.366547    3.263591    7.336203
     10          8           0       -9.396134    1.430666    5.054390
     11          6           0       -7.125255    4.626151    6.238423
     12          1           0       -7.213928    5.474540    5.546674
     13          1           0       -6.538369    4.962751    7.096758
     14          1           0       -6.550532    3.833361    5.757355
     15          6           0       -9.161062    5.269432    7.574835
     16          1           0       -9.338428    6.173752    6.980697
     17          1           0      -10.111897    4.981314    8.045981
     18          1           0       -8.491843    5.538134    8.396986
     19          7           0       -8.009323    2.733907    3.778584
     20          1           0       -7.528070    3.628013    3.750310
     21          6           0       -7.248528    1.642232    3.155712
     22          1           0       -7.699771    0.708743    3.499268
     23          6           0       -5.813095    1.781712    3.694712
     24          6           0       -7.315343    1.705626    1.603637
     25          1           0       -8.386650    1.667903    1.358377
     26          8           0       -5.366893    2.895237    3.982138
     27          6           0       -6.646545    0.458640    0.984282
     28          1           0       -7.022669   -0.438941    1.496569
     29          1           0       -5.565739    0.485542    1.168076
     30          6           0       -6.735462    3.015902    1.050503
     31          1           0       -5.668287    3.107235    1.277658
     32          1           0       -7.242029    3.894712    1.465716
     33          1           0       -6.860240    3.062277   -0.034347
     34          6           0       -6.893942    0.300403   -0.519784
     35          1           0       -6.466944   -0.642743   -0.875708
     36          1           0       -7.965916    0.291890   -0.750636
     37          1           0       -6.430620    1.107413   -1.096769
     38          7           0       -5.127670    0.632409    3.807254
     39          1           0       -5.504131   -0.240143    3.451180
     40          6           0       -3.731542    0.562356    4.207784
     41          1           0       -3.325015    1.575413    4.162249
     42          6           0       -3.066049   -0.381509    3.193064
     43          6           0       -3.599769   -0.004361    5.646257
     44          1           0       -2.540467    0.017151    5.927785
     45          1           0       -3.905566   -1.056580    5.617085
     46          8           0       -3.692579   -1.368689    2.798397
     47          6           0       -4.438583    0.759463    6.645739
     48          6           0       -3.922857    1.873234    7.320386
     49          1           0       -2.895156    2.179396    7.139802
     50          6           0       -5.767245    0.384845    6.889688
     51          1           0       -6.180767   -0.480607    6.378579
     52          6           0       -4.704987    2.583467    8.231714
     53          1           0       -4.280171    3.432372    8.760399
     54          6           0       -6.556122    1.093785    7.797384
     55          1           0       -7.576575    0.769712    7.988043
     56          6           0       -6.023272    2.191642    8.477771
     57          1           0       -6.623110    2.727910    9.209423
     58          7           0       -1.831824   -0.041857    2.785866
     59          1           0       -1.315702    0.706772    3.238839
     60          6           0       -1.037764   -0.839593    1.863848
     61          1           0       -1.386253   -1.875083    1.922735
     62          6           0        0.422790   -0.725892    2.330635
     63          6           0       -1.131299   -0.312166    0.408971
     64          1           0       -0.475435   -0.924266   -0.225370
     65          1           0       -0.693578    0.692473    0.395640
     66          8           0        0.774656    0.163482    3.099054
     67          6           0       -2.542521   -0.286670   -0.203903
     68          1           0       -3.198941    0.276823    0.474634
     69          6           0       -2.501353    0.464920   -1.543686
     70          1           0       -1.873428   -0.073961   -2.267441
     71          1           0       -2.102828    1.480653   -1.425115
     72          1           0       -3.501687    0.546687   -1.984664
     73          6           0       -3.130979   -1.691491   -0.390580
     74          1           0       -2.481528   -2.300481   -1.033350
     75          1           0       -4.114546   -1.637118   -0.873215
     76          1           0       -3.262639   -2.200875    0.566874
     77          7           0        1.266554   -1.652543    1.794161
     78          1           0        0.904259   -2.201133    1.020461
     79          6           0        2.691011   -1.367839    1.657756
     80          1           0        2.877335   -0.432575    2.192389
     81          6           0        2.957930   -1.174434    0.157114
     82          6           0        3.582252   -2.476296    2.246783
     83          1           0        3.411276   -2.516141    3.327413
     84          1           0        4.634220   -2.204745    2.106028
     85          8           0        2.267082   -1.736745   -0.692413
     86          6           0        3.326586   -3.854650    1.634654
     87          1           0        2.310005   -4.203422    1.850679
     88          1           0        3.406792   -3.833651    0.540248
     89          6           0        4.302847   -4.888744    2.151422
     90          8           0        5.264744   -4.663564    2.851946
     91          8           0        3.976745   -6.130193    1.719025
     92          7           0        4.023568   -0.391865   -0.159559
     93          1           0        4.472161    0.156772    0.563265
     94          6           0        4.214172    0.071265   -1.517964
     95          1           0        3.829841   -0.709385   -2.178838
     96          6           0        5.692715    0.346777   -1.765442
     97          6           0        3.474425    1.415039   -1.801431
     98          1           0        3.907455    2.181639   -1.151382
     99          1           0        3.664624    1.714918   -2.837966
    100          8           0        6.367630    0.901229   -0.881360
    101          6           0        1.990715    1.337255   -1.452222
    102          7           0        1.140772    1.190822   -2.502657
    103          1           0        0.158329    1.047512   -2.312528
    104          1           0        1.465711    1.083948   -3.451629
    105          8           0        1.609495    1.403668   -0.287411
    106          7           0        6.161906    0.045353   -2.989781
    107          1           0        5.470815   -0.249948   -3.669207
    108          6           0        7.290126    0.782796   -3.565702
    109          1           0        8.112648    0.764152   -2.848941
    110          6           0        6.810230    2.235647   -3.821171
    111          6           0        7.766104    0.120575   -4.882743
    112          1           0        8.120191   -0.890984   -4.650083
    113          1           0        6.905291    0.029294   -5.558147
    114          8           0        5.658922    2.420942   -4.230236
    115          6           0        8.837864    0.984911   -5.502720
    116          6           0        8.485492    1.981433   -6.421573
    117          1           0        7.480584    1.994222   -6.838587
    118          6           0       10.139652    0.989018   -4.981685
    119          1           0       10.439823    0.210253   -4.281495
    120          6           0        9.370172    3.006213   -6.738607
    121          1           0        9.072539    3.815987   -7.395533
    122          6           0       11.033087    2.013012   -5.289998
    123          1           0       12.019170    2.059152   -4.839544
    124          8           0       11.439559    4.144176   -6.273220
    125          1           0       10.879766    4.939831   -6.082755
    126          6           0       10.628978    3.067431   -6.120238
    127          7           0        7.704361    3.208192   -3.560485
    128          1           0        8.664737    2.931428   -3.373008
    129          6           0        7.623838    4.567255   -4.118375
    130          1           0        7.129159    4.490109   -5.088330
    131          6           0        9.099249    5.040850   -4.337747
    132          6           0        6.862522    5.609046   -3.250235
    133          1           0        7.578813    6.176663   -2.645618
    134          1           0        6.454656    6.339248   -3.956275
    135          8           0        9.333517    5.699009   -5.366810
    136          6           0        5.719809    5.095672   -2.340518
    137          1           0        4.907463    5.834420   -2.355790
    138          1           0        5.299422    4.170178   -2.744036
    139          6           0        6.061686    4.915991   -0.848341
    140          1           0        6.518918    5.829693   -0.450480
    141          1           0        5.137553    4.778235   -0.278016
    142          7           0        6.907383    3.767475   -0.491549
    143          1           0        6.434085    2.875170   -0.376971
    144          7           0        9.021444    4.734595   -0.947496
    145          1           0        9.555936    4.696269   -1.872368
    146          1           0        8.578303    5.634983   -0.822592
    147          7           0        8.787963    2.455931   -0.735830
    148          1           0        9.793702    2.384131   -0.776901
    149          1           0        8.199534    1.627334   -0.779146
    150          6           0        8.223257    3.673565   -0.736416
    151          8           0        9.933681    4.676275   -3.444514
    152          1           0        4.653484   -6.735868    2.076386
 ---------------------------------------------------------------------

 SCF Done:  E(RB3LYP) =  -3586.83387518     A.U. after    2 cycles

 Alpha  occ. eigenvalues --  -19.27021 -19.24376 -19.21758 -19.21279 -19.19495
 Alpha  occ. eigenvalues --  -19.19116 -19.18859 -19.18797 -19.17978 -19.16908
 Alpha  occ. eigenvalues --  -19.15382 -19.12113 -19.11260 -14.60214 -14.49740
 Alpha  occ. eigenvalues --  -14.45456 -14.44636 -14.44112 -14.43740 -14.43602
 Alpha  occ. eigenvalues --  -14.43465 -14.42610 -14.42339 -14.40602 -14.40080
 Alpha  occ. eigenvalues --  -10.43809 -10.40699 -10.39470 -10.38524 -10.38084
 Alpha  occ. eigenvalues --  -10.37076 -10.36717 -10.36066 -10.35985 -10.35647
 Alpha  occ. eigenvalues --  -10.34071 -10.33984 -10.33766 -10.32148 -10.31997
 Alpha  occ. eigenvalues --  -10.31313 -10.30197 -10.29890 -10.29861 -10.29855
 Alpha  occ. eigenvalues --  -10.29789 -10.29323 -10.28738 -10.27779 -10.27621
 Alpha  occ. eigenvalues --  -10.27402 -10.27308 -10.27264 -10.27053 -10.27007
 Alpha  occ. eigenvalues --  -10.26942 -10.26840 -10.26385 -10.25635 -10.25607
 Alpha  occ. eigenvalues --  -10.25358 -10.25336 -10.25284 -10.25273 -10.24918
 Alpha  occ. eigenvalues --  -10.24663 -10.24176 -10.24136 -10.23282 -10.22623
 Alpha  occ. eigenvalues --  -10.21970 -10.21664 -10.21271 -10.20443 -10.20125
 Alpha  occ. eigenvalues --   -1.19496  -1.15270  -1.14193  -1.13372  -1.13164
 Alpha  occ. eigenvalues --   -1.11631  -1.11256  -1.10330  -1.09693  -1.08521
 Alpha  occ. eigenvalues --   -1.08224  -1.06360  -1.06270  -1.05213  -1.03882
 Alpha  occ. eigenvalues --   -1.02172  -1.01134  -1.00374  -1.00236  -0.99287
 Alpha  occ. eigenvalues --   -0.98043  -0.97234  -0.97104  -0.96093  -0.95149
 Alpha  occ. eigenvalues --   -0.95062  -0.93648  -0.91232  -0.88388  -0.88099
 Alpha  occ. eigenvalues --   -0.87218  -0.86857  -0.86651  -0.85616  -0.84547
 Alpha  occ. eigenvalues --   -0.83524  -0.83152  -0.82556  -0.82449  -0.81182
 Alpha  occ. eigenvalues --   -0.80976  -0.79530  -0.79004  -0.78879  -0.77116
 Alpha  occ. eigenvalues --   -0.76746  -0.75111  -0.74702  -0.74522  -0.74284
 Alpha  occ. eigenvalues --   -0.74277  -0.73392  -0.72970  -0.72379  -0.71096
 Alpha  occ. eigenvalues --   -0.70421  -0.70052  -0.69972  -0.68925  -0.68629
 Alpha  occ. eigenvalues --   -0.68299  -0.67565  -0.67127  -0.66759  -0.66288
 Alpha  occ. eigenvalues --   -0.66033  -0.65932  -0.65621  -0.65185  -0.65126
 Alpha  occ. eigenvalues --   -0.64982  -0.63775  -0.63571  -0.63449  -0.62977
 Alpha  occ. eigenvalues --   -0.62301  -0.62064  -0.61640  -0.61222  -0.60620
 Alpha  occ. eigenvalues --   -0.60486  -0.59371  -0.59144  -0.58672  -0.58489
 Alpha  occ. eigenvalues --   -0.57860  -0.57573  -0.56969  -0.56854  -0.56350
 Alpha  occ. eigenvalues --   -0.56165  -0.55876  -0.55809  -0.55436  -0.55299
 Alpha  occ. eigenvalues --   -0.55028  -0.54713  -0.54628  -0.54113  -0.53958
 Alpha  occ. eigenvalues --   -0.53823  -0.53674  -0.53445  -0.53342  -0.53143
 Alpha  occ. eigenvalues --   -0.52989  -0.52882  -0.52603  -0.52520  -0.52212
 Alpha  occ. eigenvalues --   -0.52023  -0.51808  -0.51604  -0.51005  -0.50704
 Alpha  occ. eigenvalues --   -0.50654  -0.50526  -0.50275  -0.50052  -0.50028
 Alpha  occ. eigenvalues --   -0.49913  -0.49614  -0.49252  -0.49151  -0.48879
 Alpha  occ. eigenvalues --   -0.48470  -0.48321  -0.48105  -0.48001  -0.47899
 Alpha  occ. eigenvalues --   -0.47562  -0.47502  -0.47107  -0.47045  -0.46851
 Alpha  occ. eigenvalues --   -0.46743  -0.46584  -0.46506  -0.46493  -0.46417
 Alpha  occ. eigenvalues --   -0.46057  -0.45907  -0.45661  -0.45395  -0.45351
 Alpha  occ. eigenvalues --   -0.45051  -0.44904  -0.44667  -0.44469  -0.44318
 Alpha  occ. eigenvalues --   -0.44254  -0.44204  -0.44098  -0.44054  -0.43466
 Alpha  occ. eigenvalues --   -0.43369  -0.42973  -0.42828  -0.42611  -0.42556
 Alpha  occ. eigenvalues --   -0.42071  -0.41988  -0.41963  -0.41921  -0.41863
 Alpha  occ. eigenvalues --   -0.41738  -0.41512  -0.41258  -0.40996  -0.40912
 Alpha  occ. eigenvalues --   -0.40827  -0.39522  -0.39252  -0.39239  -0.39114
 Alpha  occ. eigenvalues --   -0.38743  -0.38660  -0.38536  -0.37705  -0.37093
 Alpha  occ. eigenvalues --   -0.36693  -0.36519  -0.35637  -0.35459  -0.35128
 Alpha  occ. eigenvalues --   -0.34915  -0.34472  -0.34012  -0.33930  -0.33556
 Alpha  occ. eigenvalues --   -0.33420  -0.33266  -0.32918  -0.32872  -0.32486
 Alpha  occ. eigenvalues --   -0.32262  -0.32088  -0.31648  -0.31260  -0.30972
 Alpha  occ. eigenvalues --   -0.30788  -0.30275  -0.28202  -0.26706  -0.26447
 Alpha  occ. eigenvalues --   -0.25162  -0.23514
 Alpha virt. eigenvalues --   -0.12905  -0.11183  -0.08760  -0.08399  -0.08304
 Alpha virt. eigenvalues --   -0.07633  -0.06627  -0.05578  -0.05410  -0.05235
 Alpha virt. eigenvalues --   -0.04675  -0.04565  -0.03893  -0.03565  -0.03413

 Mulliken charges:
               1
     1  N   -0.756684
     2  H    0.415786
     3  H    0.430885
     4  H    0.408928
     5  C   -0.111706
     6  H    0.202433
     7  C    0.653210
     8  C   -0.106065
     9  H    0.169866
    10  O   -0.539901
    11  C   -0.492999
    12  H    0.148295
    13  H    0.181454
    14  H    0.224642
    15  C   -0.476888
    16  H    0.174958
    17  H    0.135999
    18  H    0.200910
    19  N   -0.586397
    20  H    0.370903
    21  C   -0.105389
    22  H    0.192405
    23  C    0.650544
    24  C   -0.067430
    25  H    0.141696
    26  O   -0.547935
    27  C   -0.288431
    28  H    0.139291
    29  H    0.167036
    30  C   -0.471541
    31  H    0.173937
    32  H    0.132720
    33  H    0.171002
    34  C   -0.460034
    35  H    0.169981
    36  H    0.150809
    37  H    0.156713
    38  N   -0.596629
    39  H    0.359123
    40  C   -0.064804
    41  H    0.187458
    42  C    0.635098
    43  C   -0.368895
    44  H    0.171531
    45  H    0.174456
    46  O   -0.547304
    47  C    0.182477
    48  C   -0.167980
    49  H    0.141299
    50  C   -0.182053
    51  H    0.132764
    52  C   -0.131136
    53  H    0.143819
    54  C   -0.140329
    55  H    0.126143
    56  C   -0.139204
    57  H    0.126312
    58  N   -0.600650
    59  H    0.355881
    60  C   -0.087606
    61  H    0.185389
    62  C    0.632800
    63  C   -0.277953
    64  H    0.153009
    65  H    0.174100
    66  O   -0.525989
    67  C   -0.072666
    68  H    0.128591
    69  C   -0.462956
    70  H    0.140685
    71  H    0.145985
    72  H    0.149058
    73  C   -0.470694
    74  H    0.138161
    75  H    0.140252
    76  H    0.184119
    77  N   -0.595193
    78  H    0.350796
    79  C   -0.098337
    80  H    0.191398
    81  C    0.658475
    82  C   -0.253467
    83  H    0.175182
    84  H    0.166511
    85  O   -0.553840
    86  C   -0.375062
    87  H    0.181935
    88  H    0.196752
    89  C    0.581761
    90  O   -0.457102
    91  O   -0.566894
    92  N   -0.591043
    93  H    0.345105
    94  C   -0.077158
    95  H    0.192231
    96  C    0.654196
    97  C   -0.379018
    98  H    0.170389
    99  H    0.200240
   100  O   -0.578672
   101  C    0.618019
   102  N   -0.752828
   103  H    0.358969
   104  H    0.346323
   105  O   -0.521883
   106  N   -0.565705
   107  H    0.346819
   108  C   -0.061258
   109  H    0.156444
   110  C    0.624028
   111  C   -0.370496
   112  H    0.163133
   113  H    0.152299
   114  O   -0.568785
   115  C    0.141575
   116  C   -0.190773
   117  H    0.128508
   118  C   -0.215971
   119  H    0.111602
   120  C   -0.168522
   121  H    0.148641
   122  C   -0.145846
   123  H    0.140782
   124  O   -0.687003
   125  H    0.441724
   126  C    0.365520
   127  N   -0.616583
   128  H    0.357652
   129  C   -0.005330
   130  H    0.171127
   131  C    0.594122
   132  C   -0.295795
   133  H    0.125621
   134  H    0.170866
   135  O   -0.576415
   136  C   -0.271502
   137  H    0.146242
   138  H    0.183831
   139  C   -0.177689
   140  H    0.162536
   141  H    0.166689
   142  N   -0.601985
   143  H    0.377197
   144  N   -0.763233
   145  H    0.417605
   146  H    0.339925
   147  N   -0.776753
   148  H    0.372798
   149  H    0.400199
   150  C    0.741465
   151  O   -0.616375
   152  H    0.414617
 Sum of Mulliken charges =   1.00000

 Dipole moment (field-independent basis, Debye):
    X=            -41.6524    Y=             10.8394    Z=             25.6108  Tot=             50.0832
 Quadrupole moment (field-independent basis, Debye-Ang):
   XX=           -116.1713   YY=           -390.3303   ZZ=           -339.1174
   XY=           -200.2479   XZ=           -152.2190   YZ=            128.3194

 Normal termination of Gaussian 16 at Sat Aug 13 18:47:29 2022.
