 Gaussian 16, Revision C.01,
 Gaussian 16:  ES64L-G16RevC.01  3-Jul-2019

 ----------------------------------------------------------------------
 # B3LYP/6-31G* empiricaldispersion=gd3 guess=read geom=check nosymm in
 tegral(ultrafinegrid)
 ----------------------------------------------------------------------

 ------------------------------------------------------
 Candidate Structure: Conf:727 Charge calc in gas phase
 ------------------------------------------------------
 Structure from the checkpoint file:  "conf-727.chk"
 Charge =  1 Multiplicity = 1

                          Input orientation:
 ---------------------------------------------------------------------
 Center     Atomic      Atomic             Coordinates (Angstroms)
 Number     Number       Type             X           Y           Z
 ---------------------------------------------------------------------
      1          7           0       -6.622087   -1.160110    9.362064
      2          1           0       -7.550225   -1.212144    9.790728
      3          1           0       -6.555994   -1.898051    8.598381
      4          1           0       -5.915425   -1.312276   10.086943
      5          6           0       -6.400663    0.119243    8.572837
      6          1           0       -7.154852    0.845226    8.885839
      7          6           0       -6.628231   -0.358694    7.113916
      8          6           0       -4.973779    0.668736    8.836608
      9          1           0       -4.883985    0.730052    9.932530
     10          8           0       -6.597295   -1.582905    6.906918
     11          6           0       -3.880108   -0.266372    8.296673
     12          1           0       -3.907893   -0.312886    7.202957
     13          1           0       -2.896506    0.111114    8.589357
     14          1           0       -3.960057   -1.293551    8.673640
     15          6           0       -4.808891    2.096448    8.290935
     16          1           0       -4.779996    2.126120    7.197215
     17          1           0       -5.609006    2.760707    8.638708
     18          1           0       -3.861962    2.509246    8.651062
     19          7           0       -6.812641    0.583443    6.198060
     20          1           0       -6.696447    1.564869    6.441870
     21          6           0       -6.752622    0.357645    4.748176
     22          1           0       -6.441666   -0.676981    4.585302
     23          6           0       -5.673311    1.347914    4.264296
     24          6           0       -8.127061    0.619548    4.075901
     25          1           0       -8.370950    1.672513    4.277654
     26          8           0       -5.525330    2.422755    4.859456
     27          6           0       -9.247270   -0.242174    4.699457
     28          1           0      -10.194455    0.090904    4.256895
     29          1           0       -9.320062   -0.011819    5.770581
     30          6           0       -8.038007    0.436155    2.551877
     31          1           0       -7.649922   -0.553342    2.282921
     32          1           0       -7.392397    1.185406    2.086227
     33          1           0       -9.033360    0.530684    2.106337
     34          6           0       -9.106658   -1.758552    4.512898
     35          1           0       -9.966743   -2.272999    4.954811
     36          1           0       -9.072867   -2.036348    3.454411
     37          1           0       -8.206893   -2.148751    5.000209
     38          7           0       -4.948493    0.970826    3.203798
     39          1           0       -5.086503    0.077617    2.738547
     40          6           0       -3.898300    1.796637    2.622557
     41          1           0       -4.250370    2.831349    2.585558
     42          6           0       -3.661872    1.246285    1.209205
     43          6           0       -2.609299    1.719982    3.490467
     44          1           0       -2.343318    0.662068    3.595737
     45          1           0       -2.891091    2.092925    4.482659
     46          8           0       -3.903311    0.057407    0.966261
     47          6           0       -1.438936    2.496675    2.929978
     48          6           0       -0.231157    1.853734    2.636533
     49          1           0       -0.103764    0.795579    2.849290
     50          6           0       -1.551196    3.872604    2.671127
     51          1           0       -2.467948    4.400502    2.929746
     52          6           0        0.837114    2.557856    2.077523
     53          1           0        1.761873    2.029822    1.867952
     54          6           0       -0.490528    4.574888    2.095454
     55          1           0       -0.594199    5.637621    1.893252
     56          6           0        0.703618    3.916262    1.791737
     57          1           0        1.526501    4.461608    1.339335
     58          7           0       -3.187611    2.123755    0.299144
     59          1           0       -2.816459    3.004308    0.642643
     60          6           0       -2.672794    1.669613   -1.002962
     61          1           0       -3.323421    0.851036   -1.317652
     62          6           0       -1.250410    1.146102   -0.754455
     63          6           0       -2.688817    2.797332   -2.035476
     64          1           0       -2.135108    3.651809   -1.625926
     65          1           0       -3.731267    3.113344   -2.176740
     66          8           0       -0.264441    1.872059   -0.864001
     67          6           0       -2.060587    2.412678   -3.392208
     68          1           0       -0.993509    2.234580   -3.228434
     69          6           0       -2.657835    1.131517   -3.992243
     70          1           0       -3.744254    1.218493   -4.129567
     71          1           0       -2.463496    0.253417   -3.362982
     72          1           0       -2.196581    0.941271   -4.966030
     73          6           0       -2.183537    3.578764   -4.380253
     74          1           0       -3.233246    3.773111   -4.638858
     75          1           0       -1.638931    3.347682   -5.301327
     76          1           0       -1.763813    4.501724   -3.961756
     77          7           0       -1.179419   -0.148350   -0.345196
     78          1           0       -2.034516   -0.665975   -0.181541
     79          6           0        0.107822   -0.701002    0.052810
     80          1           0        0.642157    0.112634    0.546000
     81          6           0        0.890164   -1.107341   -1.207892
     82          6           0       -0.029345   -1.859988    1.040383
     83          1           0       -0.625757   -2.661884    0.593124
     84          1           0       -0.562723   -1.483613    1.920203
     85          8           0        0.762478   -2.216722   -1.734500
     86          6           0        1.349239   -2.442202    1.453537
     87          1           0        1.258986   -2.941487    2.422948
     88          1           0        1.683795   -3.167151    0.710249
     89          6           0        2.373217   -1.323282    1.560712
     90          8           0        2.275287   -0.378344    2.321983
     91          8           0        3.330866   -1.444082    0.630261
     92          7           0        1.689368   -0.128877   -1.679394
     93          1           0        1.681312    0.765956   -1.204050
     94          6           0        2.682605   -0.331355   -2.707936
     95          1           0        2.694064   -1.402460   -2.933611
     96          6           0        4.067812    0.035348   -2.122272
     97          6           0        2.351564    0.480693   -3.974493
     98          1           0        2.425593    1.551443   -3.761262
     99          1           0        3.083477    0.263809   -4.762637
    100          8           0        4.180957    0.581151   -1.013979
    101          6           0        0.955947    0.265546   -4.576370
    102          7           0        0.385669   -0.962155   -4.417383
    103          1           0       -0.559334   -1.046006   -4.768744
    104          1           0        0.645863   -1.603075   -3.670856
    105          8           0        0.432537    1.158567   -5.236101
    106          7           0        5.101680   -0.297174   -2.900735
    107          1           0        4.974472   -0.735588   -3.811176
    108          6           0        6.503138   -0.157592   -2.540076
    109          1           0        6.703484    0.887026   -2.270762
    110          6           0        7.284731   -0.526655   -3.822600
    111          6           0        6.895969   -1.060921   -1.334638
    112          1           0        7.920358   -0.811894   -1.037054
    113          1           0        6.248546   -0.773241   -0.500904
    114          8           0        6.678712   -0.831758   -4.860282
    115          6           0        6.780823   -2.538064   -1.632225
    116          6           0        5.547150   -3.198971   -1.529483
    117          1           0        4.677490   -2.664881   -1.155502
    118          6           0        7.897428   -3.270186   -2.060400
    119          1           0        8.872980   -2.790862   -2.128695
    120          6           0        5.417798   -4.543975   -1.865615
    121          1           0        4.465527   -5.058589   -1.781380
    122          6           0        7.777511   -4.618190   -2.397461
    123          1           0        8.655753   -5.173640   -2.722920
    124          8           0        6.357316   -6.577356   -2.628649
    125          1           0        7.212579   -6.952661   -2.889634
    126          6           0        6.536663   -5.256826   -2.308476
    127          7           0        8.620142   -0.506720   -3.713487
    128          1           0        9.083834   -0.476846   -2.796730
    129          6           0        9.491769   -1.250712   -4.617408
    130          1           0        9.032230   -2.229116   -4.814191
    131          6           0       10.849244   -1.492001   -3.842348
    132          6           0        9.717351   -0.557031   -5.958734
    133          1           0       10.390628   -1.231116   -6.511171
    134          1           0        8.750483   -0.471185   -6.470930
    135          8           0       11.830080   -1.740168   -4.568979
    136          6           0       10.395232    0.807428   -5.819556
    137          1           0        9.772643    1.474379   -5.209702
    138          1           0       11.344881    0.665256   -5.292109
    139          6           0       10.710731    1.472831   -7.157826
    140          1           0       11.187043    2.448281   -7.020073
    141          1           0       11.395638    0.864537   -7.756748
    142          7           0        9.505386    1.723307   -7.986384
    143          1           0        8.913485    2.490000   -7.691068
    144          7           0        9.522954   -0.301292   -9.132741
    145          1           0        9.273937   -0.825048   -9.959252
    146          1           0        9.956343   -0.803507   -8.365743
    147          7           0        8.025385    1.357039   -9.737796
    148          1           0        7.382382    0.697435  -10.152747
    149          1           0        7.735095    2.324240   -9.718914
    150          6           0        9.013146    0.920288   -8.924606
    151          8           0       10.748463   -1.393568   -2.588324
    152          1           0        3.789881   -0.584534    0.476500
 ---------------------------------------------------------------------

 SCF Done:  E(RB3LYP) =  -3586.79536565     A.U. after    3 cycles

 Alpha  occ. eigenvalues --  -19.27210 -19.22737 -19.21797 -19.20343 -19.19299
 Alpha  occ. eigenvalues --  -19.17919 -19.17402 -19.16792 -19.16484 -19.14607
 Alpha  occ. eigenvalues --  -19.14533 -19.06686 -19.05973 -14.60338 -14.49877
 Alpha  occ. eigenvalues --  -14.49396 -14.49111 -14.48574 -14.45779 -14.43949
 Alpha  occ. eigenvalues --  -14.41908 -14.40557 -14.39958 -14.38301 -14.36453
 Alpha  occ. eigenvalues --  -10.45347 -10.43920 -10.40894 -10.38935 -10.37141
 Alpha  occ. eigenvalues --  -10.36151 -10.34734 -10.34277 -10.34226 -10.33611
 Alpha  occ. eigenvalues --  -10.33560 -10.32546 -10.32130 -10.31143 -10.31081
 Alpha  occ. eigenvalues --  -10.30538 -10.29648 -10.29214 -10.29152 -10.28468
 Alpha  occ. eigenvalues --  -10.28287 -10.27034 -10.27000 -10.26692 -10.26187
 Alpha  occ. eigenvalues --  -10.26136 -10.25717 -10.25363 -10.25275 -10.24741
 Alpha  occ. eigenvalues --  -10.24732 -10.24545 -10.24541 -10.24293 -10.23942
 Alpha  occ. eigenvalues --  -10.23866 -10.23594 -10.23355 -10.23343 -10.22176
 Alpha  occ. eigenvalues --  -10.22161 -10.21926 -10.21437 -10.20852 -10.20258
 Alpha  occ. eigenvalues --  -10.20240 -10.20185 -10.19946 -10.19769 -10.19519
 Alpha  occ. eigenvalues --   -1.19663  -1.14315  -1.13922  -1.13768  -1.13719
 Alpha  occ. eigenvalues --   -1.12011  -1.09542  -1.08596  -1.07869  -1.07217
 Alpha  occ. eigenvalues --   -1.06528  -1.06263  -1.05994  -1.05173  -1.02912
 Alpha  occ. eigenvalues --   -1.02271  -1.01949  -1.00338  -0.99807  -0.98340
 Alpha  occ. eigenvalues --   -0.97542  -0.96680  -0.95421  -0.93687  -0.93167
 Alpha  occ. eigenvalues --   -0.91510  -0.91084  -0.90981  -0.87104  -0.86578
 Alpha  occ. eigenvalues --   -0.86492  -0.85838  -0.85636  -0.85076  -0.83393
 Alpha  occ. eigenvalues --   -0.83070  -0.81337  -0.80984  -0.80686  -0.80012
 Alpha  occ. eigenvalues --   -0.79701  -0.79033  -0.78940  -0.77221  -0.75999
 Alpha  occ. eigenvalues --   -0.75751  -0.75745  -0.75193  -0.74204  -0.73804
 Alpha  occ. eigenvalues --   -0.72868  -0.72786  -0.72059  -0.71716  -0.71279
 Alpha  occ. eigenvalues --   -0.70735  -0.70401  -0.69513  -0.69384  -0.68615
 Alpha  occ. eigenvalues --   -0.67915  -0.67399  -0.67103  -0.66634  -0.65711
 Alpha  occ. eigenvalues --   -0.65008  -0.64900  -0.64415  -0.63812  -0.63558
 Alpha  occ. eigenvalues --   -0.63305  -0.63163  -0.62921  -0.62662  -0.62286
 Alpha  occ. eigenvalues --   -0.62038  -0.61959  -0.61845  -0.60495  -0.60034
 Alpha  occ. eigenvalues --   -0.59711  -0.59357  -0.59063  -0.58218  -0.57963
 Alpha  occ. eigenvalues --   -0.57498  -0.56826  -0.56608  -0.56409  -0.56208
 Alpha  occ. eigenvalues --   -0.56012  -0.55727  -0.55592  -0.55443  -0.54716
 Alpha  occ. eigenvalues --   -0.54588  -0.54428  -0.53835  -0.53355  -0.53123
 Alpha  occ. eigenvalues --   -0.52945  -0.52845  -0.52543  -0.52436  -0.51811
 Alpha  occ. eigenvalues --   -0.51676  -0.51473  -0.51244  -0.51087  -0.50831
 Alpha  occ. eigenvalues --   -0.50778  -0.50574  -0.50324  -0.50007  -0.49658
 Alpha  occ. eigenvalues --   -0.49630  -0.49246  -0.49208  -0.48515  -0.48342
 Alpha  occ. eigenvalues --   -0.48080  -0.47876  -0.47843  -0.47693  -0.47616
 Alpha  occ. eigenvalues --   -0.47331  -0.47253  -0.47195  -0.47181  -0.46954
 Alpha  occ. eigenvalues --   -0.46681  -0.46656  -0.46607  -0.46428  -0.46282
 Alpha  occ. eigenvalues --   -0.46138  -0.45719  -0.45375  -0.45272  -0.44933
 Alpha  occ. eigenvalues --   -0.44582  -0.44436  -0.44183  -0.43884  -0.43754
 Alpha  occ. eigenvalues --   -0.43334  -0.43180  -0.42802  -0.42633  -0.42541
 Alpha  occ. eigenvalues --   -0.42336  -0.42292  -0.41992  -0.41816  -0.41730
 Alpha  occ. eigenvalues --   -0.41616  -0.41437  -0.41302  -0.41062  -0.41049
 Alpha  occ. eigenvalues --   -0.40918  -0.40694  -0.40632  -0.40254  -0.40089
 Alpha  occ. eigenvalues --   -0.40052  -0.39888  -0.39718  -0.39538  -0.39273
 Alpha  occ. eigenvalues --   -0.39222  -0.39141  -0.38573  -0.38350  -0.37675
 Alpha  occ. eigenvalues --   -0.36829  -0.36821  -0.36394  -0.36176  -0.36048
 Alpha  occ. eigenvalues --   -0.35892  -0.35853  -0.35457  -0.35420  -0.34715
 Alpha  occ. eigenvalues --   -0.34555  -0.34082  -0.33916  -0.33892  -0.33085
 Alpha  occ. eigenvalues --   -0.31511  -0.31154  -0.30862  -0.30378  -0.30162
 Alpha  occ. eigenvalues --   -0.30005  -0.29950  -0.29720  -0.29066  -0.28630
 Alpha  occ. eigenvalues --   -0.27817  -0.27378  -0.26189  -0.23025  -0.22106
 Alpha  occ. eigenvalues --   -0.21318  -0.20355
 Alpha virt. eigenvalues --   -0.12699  -0.11506  -0.09883  -0.08207  -0.07087
 Alpha virt. eigenvalues --   -0.06568  -0.06087  -0.05535  -0.05441  -0.05017
 Alpha virt. eigenvalues --   -0.04441  -0.03413  -0.03161  -0.02423  -0.01986

 Mulliken charges:
               1
     1  N   -0.759681
     2  H    0.417665
     3  H    0.435815
     4  H    0.413159
     5  C   -0.110575
     6  H    0.210510
     7  C    0.652467
     8  C   -0.110924
     9  H    0.158608
    10  O   -0.544052
    11  C   -0.469011
    12  H    0.184388
    13  H    0.196799
    14  H    0.141934
    15  C   -0.493451
    16  H    0.203638
    17  H    0.161460
    18  H    0.190645
    19  N   -0.584977
    20  H    0.372494
    21  C   -0.088169
    22  H    0.189981
    23  C    0.636905
    24  C   -0.076789
    25  H    0.146567
    26  O   -0.554637
    27  C   -0.257187
    28  H    0.157400
    29  H    0.118165
    30  C   -0.476761
    31  H    0.156966
    32  H    0.167836
    33  H    0.171370
    34  C   -0.474536
    35  H    0.156863
    36  H    0.161538
    37  H    0.164195
    38  N   -0.610706
    39  H    0.362974
    40  C   -0.046773
    41  H    0.184759
    42  C    0.625041
    43  C   -0.348972
    44  H    0.152560
    45  H    0.173648
    46  O   -0.563585
    47  C    0.160609
    48  C   -0.206047
    49  H    0.149675
    50  C   -0.233289
    51  H    0.129796
    52  C   -0.116326
    53  H    0.174981
    54  C   -0.126236
    55  H    0.139648
    56  C   -0.117877
    57  H    0.145370
    58  N   -0.599488
    59  H    0.354970
    60  C   -0.075133
    61  H    0.179976
    62  C    0.651611
    63  C   -0.265479
    64  H    0.148028
    65  H    0.136141
    66  O   -0.539506
    67  C   -0.079211
    68  H    0.172520
    69  C   -0.467206
    70  H    0.130573
    71  H    0.124307
    72  H    0.173455
    73  C   -0.453370
    74  H    0.129672
    75  H    0.171978
    76  H    0.136072
    77  N   -0.629778
    78  H    0.357147
    79  C   -0.066049
    80  H    0.196662
    81  C    0.641248
    82  C   -0.287656
    83  H    0.170832
    84  H    0.149837
    85  O   -0.563257
    86  C   -0.351674
    87  H    0.170705
    88  H    0.199616
    89  C    0.569736
    90  O   -0.475112
    91  O   -0.568661
    92  N   -0.563655
    93  H    0.365595
    94  C   -0.113966
    95  H    0.198565
    96  C    0.651785
    97  C   -0.357723
    98  H    0.181278
    99  H    0.179562
   100  O   -0.583327
   101  C    0.601215
   102  N   -0.772623
   103  H    0.337943
   104  H    0.379627
   105  O   -0.525540
   106  N   -0.606163
   107  H    0.362923
   108  C   -0.027586
   109  H    0.172312
   110  C    0.606524
   111  C   -0.392900
   112  H    0.175514
   113  H    0.166514
   114  O   -0.572536
   115  C    0.147983
   116  C   -0.208205
   117  H    0.143282
   118  C   -0.209415
   119  H    0.192075
   120  C   -0.167246
   121  H    0.130663
   122  C   -0.209234
   123  H    0.126690
   124  O   -0.648334
   125  H    0.406518
   126  C    0.350708
   127  N   -0.620265
   128  H    0.361422
   129  C   -0.061172
   130  H    0.151963
   131  C    0.583436
   132  C   -0.299823
   133  H    0.149952
   134  H    0.127522
   135  O   -0.596694
   136  C   -0.257348
   137  H    0.146984
   138  H    0.210693
   139  C   -0.197658
   140  H    0.186252
   141  H    0.189395
   142  N   -0.570317
   143  H    0.360466
   144  N   -0.745724
   145  H    0.374999
   146  H    0.400032
   147  N   -0.761655
   148  H    0.379169
   149  H    0.375212
   150  C    0.803038
   151  O   -0.595451
   152  H    0.447375
 Sum of Mulliken charges =   1.00000

 Dipole moment (field-independent basis, Debye):
    X=            -25.2305    Y=              6.9073    Z=             14.2602  Tot=             29.7933
 Quadrupole moment (field-independent basis, Debye-Ang):
   XX=           -284.0067   YY=           -424.4429   ZZ=            122.9285
   XY=             83.1686   XZ=           -412.7772   YZ=            -58.5739

 Normal termination of Gaussian 16 at Sat Aug 13 18:48:22 2022.
