 Gaussian 16, Revision C.01,
 Gaussian 16:  ES64L-G16RevC.01  3-Jul-2019

 ----------------------------------------------------------------------
 # B3LYP/6-31G* empiricaldispersion=gd3 guess=read geom=check nosymm in
 tegral(ultrafinegrid)
 ----------------------------------------------------------------------

 ------------------------------------------------------
 Candidate Structure: Conf:831 Charge calc in gas phase
 ------------------------------------------------------
 Structure from the checkpoint file:  "conf-831.chk"
 Charge =  1 Multiplicity = 1

                          Input orientation:
 ---------------------------------------------------------------------
 Center     Atomic      Atomic             Coordinates (Angstroms)
 Number     Number       Type             X           Y           Z
 ---------------------------------------------------------------------
      1          7           0       -8.740597    1.262065    7.461637
      2          1           0       -9.452736    0.604742    7.790584
      3          1           0       -7.931681    0.706089    7.058959
      4          1           0       -8.431950    1.841612    8.246448
      5          6           0       -9.193380    2.084227    6.266161
      6          1           0      -10.284765    2.039565    6.218170
      7          6           0       -8.550972    1.315679    5.084512
      8          6           0       -8.725526    3.554684    6.437310
      9          1           0       -9.215781    3.896601    7.362441
     10          8           0       -7.690026    0.467446    5.347659
     11          6           0       -7.201871    3.679520    6.592824
     12          1           0       -6.682881    3.368461    5.682477
     13          1           0       -6.945818    4.725797    6.784670
     14          1           0       -6.793336    3.096347    7.425603
     15          6           0       -9.232053    4.444054    5.290348
     16          1           0       -8.650376    4.266909    4.380809
     17          1           0      -10.302142    4.298527    5.092098
     18          1           0       -9.094957    5.493978    5.564631
     19          7           0       -8.959343    1.609143    3.844562
     20          1           0       -9.551580    2.420458    3.721278
     21          6           0       -8.108214    1.249435    2.699410
     22          1           0       -7.962871    0.164670    2.722913
     23          6           0       -6.761607    1.978460    2.902719
     24          6           0       -8.792616    1.661448    1.374047
     25          1           0       -8.982040    2.744939    1.439464
     26          8           0       -6.740465    3.118571    3.368302
     27          6           0      -10.141241    0.927724    1.209382
     28          1           0      -10.719013    1.005585    2.139776
     29          1           0       -9.940505   -0.143725    1.068740
     30          6           0       -7.858376    1.413918    0.178346
     31          1           0       -7.594204    0.352277    0.096135
     32          1           0       -6.926436    1.980440    0.247328
     33          1           0       -8.348202    1.705127   -0.753842
     34          6           0      -11.000969    1.452981    0.054161
     35          1           0      -11.971575    0.946821    0.037170
     36          1           0      -11.186757    2.529168    0.157124
     37          1           0      -10.529453    1.286813   -0.919118
     38          7           0       -5.665467    1.281251    2.546140
     39          1           0       -5.770260    0.437363    1.990585
     40          6           0       -4.348355    1.884937    2.447009
     41          1           0       -4.459161    2.954214    2.645722
     42          6           0       -3.849561    1.629809    1.012326
     43          6           0       -3.354246    1.260506    3.461131
     44          1           0       -2.371426    1.718923    3.297746
     45          1           0       -3.250412    0.196605    3.216320
     46          8           0       -4.308802    0.693285    0.355995
     47          6           0       -3.769992    1.423689    4.906136
     48          6           0       -3.401040    2.565471    5.631779
     49          1           0       -2.822116    3.346111    5.143266
     50          6           0       -4.513929    0.430761    5.554029
     51          1           0       -4.820317   -0.453752    5.003663
     52          6           0       -3.738108    2.698446    6.978591
     53          1           0       -3.422900    3.579987    7.529847
     54          6           0       -4.848746    0.555984    6.904222
     55          1           0       -5.389337   -0.249582    7.396804
     56          6           0       -4.452930    1.684797    7.623980
     57          1           0       -4.678961    1.769787    8.684441
     58          7           0       -2.890598    2.471059    0.578388
     59          1           0       -2.456695    3.129604    1.218795
     60          6           0       -2.140002    2.267460   -0.652505
     61          1           0       -2.266248    1.222739   -0.951575
     62          6           0       -0.667899    2.552143   -0.310953
     63          6           0       -2.610828    3.207224   -1.785066
     64          1           0       -1.960052    3.051286   -2.656672
     65          1           0       -2.442832    4.239499   -1.449305
     66          8           0       -0.360864    3.225951    0.674358
     67          6           0       -4.080215    3.033213   -2.211594
     68          1           0       -4.704126    3.128234   -1.311076
     69          6           0       -4.470100    4.159008   -3.180964
     70          1           0       -3.868266    4.110971   -4.097536
     71          1           0       -4.319857    5.148632   -2.733093
     72          1           0       -5.523146    4.076710   -3.472930
     73          6           0       -4.346497    1.656072   -2.835938
     74          1           0       -3.700125    1.492439   -3.708450
     75          1           0       -5.385217    1.586218   -3.179325
     76          1           0       -4.185054    0.848064   -2.117369
     77          7           0        0.238045    2.057592   -1.181607
     78          1           0       -0.030217    1.443220   -1.942922
     79          6           0        1.668304    2.253433   -1.006869
     80          1           0        1.841446    3.289284   -0.703066
     81          6           0        2.323186    1.945389   -2.355276
     82          6           0        2.209603    1.289209    0.081669
     83          1           0        1.996639    0.264684   -0.242885
     84          1           0        1.634098    1.483453    0.991881
     85          8           0        1.842724    1.078827   -3.092603
     86          6           0        3.718007    1.396476    0.395454
     87          1           0        3.965863    0.654934    1.158673
     88          1           0        4.316352    1.183222   -0.494899
     89          6           0        4.080592    2.747645    0.968094
     90          8           0        4.102402    3.047236    2.134756
     91          8           0        4.354650    3.667569   -0.017779
     92          7           0        3.459823    2.623869   -2.637480
     93          1           0        3.864711    3.203692   -1.906653
     94          6           0        4.319574    2.230277   -3.754278
     95          1           0        3.652346    1.850531   -4.534240
     96          6           0        5.262880    1.075794   -3.336295
     97          6           0        5.110049    3.423594   -4.271152
     98          1           0        4.414138    4.208047   -4.591304
     99          1           0        5.731271    3.844647   -3.475575
    100          8           0        6.483274    1.225205   -3.266089
    101          6           0        6.051880    3.162851   -5.439775
    102          7           0        5.864416    2.082284   -6.222589
    103          1           0        6.535152    1.959487   -6.971827
    104          1           0        5.450834    1.200886   -5.900479
    105          8           0        6.942319    4.005708   -5.659677
    106          7           0        4.610985   -0.083905   -3.073265
    107          1           0        3.628854   -0.090489   -3.335424
    108          6           0        5.293945   -1.363247   -3.219675
    109          1           0        6.097302   -1.425508   -2.480406
    110          6           0        5.925726   -1.419208   -4.644527
    111          6           0        4.267706   -2.499226   -2.946394
    112          1           0        3.836934   -2.310469   -1.953664
    113          1           0        3.454085   -2.418123   -3.679486
    114          8           0        5.510135   -0.661034   -5.542527
    115          6           0        4.935465   -3.846708   -3.030105
    116          6           0        4.885378   -4.591987   -4.214414
    117          1           0        4.185858   -4.306607   -4.997773
    118          6           0        5.837212   -4.237484   -2.029734
    119          1           0        5.870510   -3.683869   -1.091852
    120          6           0        5.803015   -5.610699   -4.451945
    121          1           0        5.837081   -6.125987   -5.406485
    122          6           0        6.759517   -5.255017   -2.259822
    123          1           0        7.520834   -5.505547   -1.527794
    124          8           0        7.876505   -6.654539   -3.847154
    125          1           0        8.427065   -6.023883   -4.394472
    126          6           0        6.805359   -5.881278   -3.511753
    127          7           0        6.916394   -2.294446   -4.816375
    128          1           0        7.196242   -2.958045   -4.092789
    129          6           0        7.586654   -2.548676   -6.093642
    130          1           0        6.839055   -2.585495   -6.888975
    131          6           0        8.351263   -3.918871   -6.040883
    132          6           0        8.606816   -1.439524   -6.404279
    133          1           0        9.127382   -1.733557   -7.323708
    134          1           0        8.070060   -0.501099   -6.598937
    135          8           0        8.652980   -4.306208   -4.864364
    136          6           0        9.601037   -1.251876   -5.250658
    137          1           0        9.047657   -0.944462   -4.352966
    138          1           0       10.042316   -2.217938   -4.982854
    139          6           0       10.742132   -0.269933   -5.553258
    140          1           0       11.218406    0.086918   -4.633531
    141          1           0       11.514899   -0.762340   -6.148189
    142          7           0       10.348350    0.912240   -6.348469
    143          1           0       10.505509    0.850172   -7.345014
    144          7           0        8.940341    1.834922   -4.734288
    145          1           0        8.297829    2.577366   -4.486591
    146          1           0        8.737667    0.951611   -4.284207
    147          7           0        9.195822    2.879209   -6.782587
    148          1           0        8.415685    3.507487   -6.535187
    149          1           0        9.796790    3.098797   -7.563164
    150          6           0        9.490764    1.862222   -5.956917
    151          8           0        8.630112   -4.406773   -7.140489
    152          1           0        4.541293    4.513823    0.432562
 ---------------------------------------------------------------------

 SCF Done:  E(RB3LYP) =  -3586.82519935     A.U. after    3 cycles

 Alpha  occ. eigenvalues --  -19.27954 -19.27068 -19.21582 -19.21510 -19.20476
 Alpha  occ. eigenvalues --  -19.20313 -19.19729 -19.19567 -19.19251 -19.15485
 Alpha  occ. eigenvalues --  -19.12809 -19.07946 -19.06560 -14.59990 -14.49712
 Alpha  occ. eigenvalues --  -14.45981 -14.45522 -14.44806 -14.44678 -14.44605
 Alpha  occ. eigenvalues --  -14.44264 -14.44035 -14.42038 -14.41594 -14.38131
 Alpha  occ. eigenvalues --  -10.43573 -10.41723 -10.40548 -10.39643 -10.38672
 Alpha  occ. eigenvalues --  -10.37380 -10.37340 -10.37124 -10.36761 -10.35645
 Alpha  occ. eigenvalues --  -10.34316 -10.33951 -10.32355 -10.32252 -10.31647
 Alpha  occ. eigenvalues --  -10.31230 -10.31052 -10.29802 -10.29523 -10.29397
 Alpha  occ. eigenvalues --  -10.28573 -10.28154 -10.28087 -10.28015 -10.27593
 Alpha  occ. eigenvalues --  -10.27524 -10.27509 -10.27509 -10.27501 -10.27330
 Alpha  occ. eigenvalues --  -10.27260 -10.27134 -10.27110 -10.26289 -10.25831
 Alpha  occ. eigenvalues --  -10.25637 -10.25556 -10.25292 -10.24047 -10.23822
 Alpha  occ. eigenvalues --  -10.23259 -10.23043 -10.22699 -10.22673 -10.21808
 Alpha  occ. eigenvalues --  -10.20886 -10.20570 -10.20219 -10.19257 -10.18837
 Alpha  occ. eigenvalues --   -1.19609  -1.18048  -1.14130  -1.13454  -1.12653
 Alpha  occ. eigenvalues --   -1.12217  -1.11369  -1.11187  -1.10537  -1.10153
 Alpha  occ. eigenvalues --   -1.09218  -1.06606  -1.06326  -1.02283  -1.01905
 Alpha  occ. eigenvalues --   -1.01300  -1.00999  -1.00546  -1.00507  -0.99739
 Alpha  occ. eigenvalues --   -0.98544  -0.98015  -0.97265  -0.94787  -0.94665
 Alpha  occ. eigenvalues --   -0.93874  -0.91943  -0.91394  -0.89048  -0.88138
 Alpha  occ. eigenvalues --   -0.87164  -0.86976  -0.86185  -0.85982  -0.84199
 Alpha  occ. eigenvalues --   -0.83843  -0.83168  -0.82631  -0.81972  -0.81615
 Alpha  occ. eigenvalues --   -0.80456  -0.79903  -0.79364  -0.78248  -0.76374
 Alpha  occ. eigenvalues --   -0.75616  -0.75253  -0.75212  -0.74035  -0.73969
 Alpha  occ. eigenvalues --   -0.73763  -0.73339  -0.73119  -0.72678  -0.71838
 Alpha  occ. eigenvalues --   -0.71292  -0.70319  -0.69100  -0.68885  -0.68704
 Alpha  occ. eigenvalues --   -0.68260  -0.67871  -0.67761  -0.67319  -0.67195
 Alpha  occ. eigenvalues --   -0.66749  -0.66566  -0.66009  -0.65601  -0.65294
 Alpha  occ. eigenvalues --   -0.64887  -0.64254  -0.63732  -0.62652  -0.62477
 Alpha  occ. eigenvalues --   -0.62175  -0.62090  -0.61585  -0.60820  -0.60530
 Alpha  occ. eigenvalues --   -0.59527  -0.59497  -0.59225  -0.59095  -0.58776
 Alpha  occ. eigenvalues --   -0.58563  -0.58333  -0.57891  -0.57569  -0.56835
 Alpha  occ. eigenvalues --   -0.56648  -0.56143  -0.56035  -0.56028  -0.55503
 Alpha  occ. eigenvalues --   -0.55235  -0.55163  -0.54405  -0.54290  -0.54244
 Alpha  occ. eigenvalues --   -0.53975  -0.53932  -0.53759  -0.53298  -0.53121
 Alpha  occ. eigenvalues --   -0.53009  -0.52854  -0.52601  -0.52402  -0.52231
 Alpha  occ. eigenvalues --   -0.51623  -0.51440  -0.51375  -0.51249  -0.50987
 Alpha  occ. eigenvalues --   -0.50751  -0.50484  -0.50205  -0.49863  -0.49826
 Alpha  occ. eigenvalues --   -0.49593  -0.49311  -0.49211  -0.49084  -0.48971
 Alpha  occ. eigenvalues --   -0.48639  -0.48365  -0.48131  -0.48097  -0.47870
 Alpha  occ. eigenvalues --   -0.47804  -0.47447  -0.47282  -0.47209  -0.47122
 Alpha  occ. eigenvalues --   -0.47086  -0.46624  -0.46550  -0.46524  -0.46388
 Alpha  occ. eigenvalues --   -0.46216  -0.45878  -0.45750  -0.45629  -0.45310
 Alpha  occ. eigenvalues --   -0.45159  -0.44926  -0.44697  -0.44598  -0.44556
 Alpha  occ. eigenvalues --   -0.44129  -0.44022  -0.43532  -0.43510  -0.43369
 Alpha  occ. eigenvalues --   -0.43125  -0.43043  -0.42733  -0.42553  -0.42341
 Alpha  occ. eigenvalues --   -0.42226  -0.42146  -0.42093  -0.41908  -0.41736
 Alpha  occ. eigenvalues --   -0.41252  -0.41118  -0.40898  -0.40092  -0.39661
 Alpha  occ. eigenvalues --   -0.39649  -0.39269  -0.39031  -0.38744  -0.38653
 Alpha  occ. eigenvalues --   -0.38115  -0.37971  -0.37789  -0.37018  -0.36747
 Alpha  occ. eigenvalues --   -0.36162  -0.35831  -0.35759  -0.35541  -0.35083
 Alpha  occ. eigenvalues --   -0.34956  -0.34856  -0.34665  -0.34524  -0.34239
 Alpha  occ. eigenvalues --   -0.34110  -0.33931  -0.33550  -0.33187  -0.33105
 Alpha  occ. eigenvalues --   -0.32902  -0.32631  -0.32423  -0.31335  -0.29569
 Alpha  occ. eigenvalues --   -0.28697  -0.26922  -0.25985  -0.24063  -0.23017
 Alpha  occ. eigenvalues --   -0.21965  -0.20795
 Alpha virt. eigenvalues --   -0.12821  -0.11134  -0.09059  -0.08512  -0.07866
 Alpha virt. eigenvalues --   -0.07589  -0.06938  -0.06641  -0.06474  -0.05989
 Alpha virt. eigenvalues --   -0.05661  -0.05464  -0.05204  -0.04513  -0.02311

 Mulliken charges:
               1
     1  N   -0.762821
     2  H    0.414876
     3  H    0.440902
     4  H    0.413251
     5  C   -0.120970
     6  H    0.208095
     7  C    0.669585
     8  C   -0.101478
     9  H    0.153363
    10  O   -0.535396
    11  C   -0.493170
    12  H    0.233722
    13  H    0.181039
    14  H    0.127901
    15  C   -0.501313
    16  H    0.208937
    17  H    0.147149
    18  H    0.188987
    19  N   -0.592916
    20  H    0.355899
    21  C   -0.048090
    22  H    0.180133
    23  C    0.629809
    24  C   -0.112745
    25  H    0.140822
    26  O   -0.542067
    27  C   -0.258158
    28  H    0.128525
    29  H    0.148770
    30  C   -0.480621
    31  H    0.159762
    32  H    0.174845
    33  H    0.173257
    34  C   -0.452443
    35  H    0.163336
    36  H    0.147695
    37  H    0.164730
    38  N   -0.580426
    39  H    0.357409
    40  C   -0.082483
    41  H    0.191972
    42  C    0.633583
    43  C   -0.372053
    44  H    0.173209
    45  H    0.168509
    46  O   -0.539686
    47  C    0.182223
    48  C   -0.175864
    49  H    0.139495
    50  C   -0.154075
    51  H    0.136146
    52  C   -0.126765
    53  H    0.145536
    54  C   -0.144916
    55  H    0.120368
    56  C   -0.148160
    57  H    0.127623
    58  N   -0.596350
    59  H    0.353784
    60  C   -0.081381
    61  H    0.185179
    62  C    0.629815
    63  C   -0.250897
    64  H    0.143692
    65  H    0.144792
    66  O   -0.546574
    67  C   -0.070640
    68  H    0.127335
    69  C   -0.444374
    70  H    0.147645
    71  H    0.142294
    72  H    0.146645
    73  C   -0.465841
    74  H    0.138383
    75  H    0.143171
    76  H    0.177460
    77  N   -0.619847
    78  H    0.358535
    79  C   -0.036649
    80  H    0.182646
    81  C    0.615062
    82  C   -0.285861
    83  H    0.170558
    84  H    0.193917
    85  O   -0.553566
    86  C   -0.367055
    87  H    0.196239
    88  H    0.189122
    89  C    0.582677
    90  O   -0.430520
    91  O   -0.591893
    92  N   -0.631317
    93  H    0.382046
    94  C   -0.092027
    95  H    0.206369
    96  C    0.631019
    97  C   -0.353886
    98  H    0.194769
    99  H    0.182243
   100  O   -0.557210
   101  C    0.606161
   102  N   -0.763871
   103  H    0.341307
   104  H    0.422013
   105  O   -0.574297
   106  N   -0.615930
   107  H    0.370560
   108  C   -0.043998
   109  H    0.174967
   110  C    0.628253
   111  C   -0.377812
   112  H    0.145915
   113  H    0.154172
   114  O   -0.597827
   115  C    0.140670
   116  C   -0.184579
   117  H    0.121204
   118  C   -0.209399
   119  H    0.106329
   120  C   -0.162854
   121  H    0.149865
   122  C   -0.153880
   123  H    0.133581
   124  O   -0.700603
   125  H    0.442241
   126  C    0.368087
   127  N   -0.594191
   128  H    0.374462
   129  C   -0.032999
   130  H    0.157925
   131  C    0.583574
   132  C   -0.278131
   133  H    0.159788
   134  H    0.112751
   135  O   -0.641943
   136  C   -0.316715
   137  H    0.143435
   138  H    0.214628
   139  C   -0.167967
   140  H    0.183207
   141  H    0.186752
   142  N   -0.585509
   143  H    0.355733
   144  N   -0.760477
   145  H    0.385895
   146  H    0.398300
   147  N   -0.802805
   148  H    0.415606
   149  H    0.357943
   150  C    0.775868
   151  O   -0.562637
   152  H    0.422872
 Sum of Mulliken charges =   1.00000

 Dipole moment (field-independent basis, Debye):
    X=            -33.8688    Y=             25.7862    Z=             22.8971  Tot=             48.3352
 Quadrupole moment (field-independent basis, Debye-Ang):
   XX=            -37.2497   YY=           -483.5057   ZZ=           -237.9749
   XY=             77.4513   XZ=           -261.8504   YZ=            -57.1589

 Normal termination of Gaussian 16 at Sat Aug 13 18:48:10 2022.
