 Gaussian 16, Revision C.01,
 Gaussian 16:  ES64L-G16RevC.01  3-Jul-2019

 ----------------------------------------------------------------------
 # B3LYP/6-31G* empiricaldispersion=gd3 guess=read geom=check nosymm in
 tegral(ultrafinegrid)
 ----------------------------------------------------------------------

 ------------------------------------------------------
 Candidate Structure: Conf:876 Charge calc in gas phase
 ------------------------------------------------------
 Structure from the checkpoint file:  "conf-876.chk"
 Charge =  1 Multiplicity = 1

                          Input orientation:
 ---------------------------------------------------------------------
 Center     Atomic      Atomic             Coordinates (Angstroms)
 Number     Number       Type             X           Y           Z
 ---------------------------------------------------------------------
      1          7           0      -10.277721   -1.378674    7.017547
      2          1           0      -11.148528   -1.682813    6.573540
      3          1           0       -9.540479   -2.132281    6.875243
      4          1           0      -10.454742   -1.216897    8.012754
      5          6           0       -9.638756   -0.187836    6.323143
      6          1           0      -10.396325    0.284036    5.692818
      7          6           0       -8.526559   -0.864567    5.480988
      8          6           0       -9.101586    0.820248    7.372678
      9          1           0       -9.960571    1.043801    8.024620
     10          8           0       -8.211962   -2.028890    5.775378
     11          6           0       -7.967366    0.227017    8.222890
     12          1           0       -7.070044    0.059442    7.619510
     13          1           0       -7.699775    0.929648    9.016509
     14          1           0       -8.233923   -0.722399    8.703962
     15          6           0       -8.675847    2.144176    6.716779
     16          1           0       -7.750783    2.049490    6.141242
     17          1           0       -9.460070    2.546706    6.064568
     18          1           0       -8.484592    2.884611    7.498272
     19          7           0       -7.970471   -0.128740    4.528499
     20          1           0       -8.211311    0.854139    4.403891
     21          6           0       -6.740467   -0.497279    3.826170
     22          1           0       -6.179421   -1.181875    4.470136
     23          6           0       -5.994189    0.839057    3.663433
     24          6           0       -7.033948   -1.199747    2.467094
     25          1           0       -7.723912   -2.016301    2.723287
     26          8           0       -6.619452    1.902752    3.704973
     27          6           0       -5.761646   -1.839244    1.873501
     28          1           0       -5.243801   -2.403953    2.662702
     29          1           0       -5.068862   -1.056075    1.541411
     30          6           0       -7.732919   -0.253763    1.480720
     31          1           0       -7.055789    0.540626    1.146038
     32          1           0       -8.610821    0.223171    1.929417
     33          1           0       -8.071296   -0.799862    0.596470
     34          6           0       -6.041146   -2.782133    0.697435
     35          1           0       -5.117110   -3.269778    0.371638
     36          1           0       -6.753981   -3.566703    0.977603
     37          1           0       -6.449458   -2.245022   -0.164794
     38          7           0       -4.670996    0.747188    3.450345
     39          1           0       -4.213597   -0.155490    3.395834
     40          6           0       -3.829714    1.896264    3.139955
     41          1           0       -4.500608    2.728397    2.913613
     42          6           0       -3.000491    1.463905    1.926883
     43          6           0       -2.914489    2.258799    4.335172
     44          1           0       -2.356337    3.166869    4.075610
     45          1           0       -2.182214    1.452848    4.454840
     46          8           0       -2.419581    0.372710    1.955465
     47          6           0       -3.708781    2.453659    5.606873
     48          6           0       -4.420976    3.638330    5.832951
     49          1           0       -4.370915    4.441972    5.101892
     50          6           0       -3.791139    1.428277    6.557046
     51          1           0       -3.237086    0.506154    6.398089
     52          6           0       -5.187328    3.802003    6.986638
     53          1           0       -5.721460    4.733578    7.152086
     54          6           0       -4.555506    1.587099    7.715042
     55          1           0       -4.586550    0.790945    8.454399
     56          6           0       -5.254261    2.776341    7.932982
     57          1           0       -5.832587    2.911592    8.843357
     58          7           0       -2.971816    2.289883    0.863597
     59          1           0       -3.449194    3.180267    0.909789
     60          6           0       -2.358636    1.902968   -0.413748
     61          1           0       -2.412058    0.809642   -0.447170
     62          6           0       -0.857328    2.261616   -0.447871
     63          6           0       -3.129078    2.501271   -1.590270
     64          1           0       -2.661018    2.123125   -2.506463
     65          1           0       -2.973276    3.587697   -1.607162
     66          8           0       -0.372836    2.979049   -1.322206
     67          6           0       -4.637564    2.180739   -1.605557
     68          1           0       -5.104008    2.663017   -0.732337
     69          6           0       -5.279506    2.781514   -2.864044
     70          1           0       -4.872666    2.312548   -3.768642
     71          1           0       -5.092721    3.859470   -2.933637
     72          1           0       -6.364093    2.625744   -2.866585
     73          6           0       -4.924272    0.674138   -1.510739
     74          1           0       -4.430903    0.128821   -2.325098
     75          1           0       -6.000681    0.481219   -1.585980
     76          1           0       -4.578634    0.244821   -0.563012
     77          7           0       -0.134411    1.715365    0.561021
     78          1           0       -0.570137    0.971718    1.100114
     79          6           0        1.318506    1.779417    0.533713
     80          1           0        1.616502    2.834094    0.578599
     81          6           0        1.819069    1.159311   -0.785970
     82          6           0        1.889349    1.014068    1.735743
     83          1           0        1.637395   -0.047652    1.630738
     84          1           0        1.397327    1.366911    2.648754
     85          8           0        1.294596    0.163557   -1.262483
     86          6           0        3.403669    1.171879    1.889575
     87          1           0        3.962957    0.803273    1.021981
     88          1           0        3.687278    2.228955    1.986586
     89          6           0        3.906638    0.451224    3.123200
     90          8           0        3.208304   -0.104321    3.943803
     91          8           0        5.252717    0.509190    3.209810
     92          7           0        2.856203    1.832612   -1.367055
     93          1           0        3.393673    2.479711   -0.797201
     94          6           0        3.617924    1.271142   -2.465817
     95          1           0        3.126781    0.342226   -2.767653
     96          6           0        5.062668    1.020937   -1.986281
     97          6           0        3.705322    2.257347   -3.658241
     98          1           0        4.019168    3.234372   -3.268117
     99          1           0        4.490105    1.918676   -4.336649
    100          8           0        5.535654    1.712585   -1.085252
    101          6           0        2.424421    2.440116   -4.465930
    102          7           0        1.310418    2.767409   -3.791257
    103          1           0        0.447339    2.850901   -4.310949
    104          1           0        1.250814    2.814451   -2.779626
    105          8           0        2.421438    2.320367   -5.706004
    106          7           0        5.723720    0.060912   -2.670645
    107          1           0        5.245002   -0.334882   -3.472328
    108          6           0        7.173898    0.059012   -2.835424
    109          1           0        7.580181    0.795251   -2.136345
    110          6           0        7.462188    0.496043   -4.293006
    111          6           0        7.780520   -1.336620   -2.533048
    112          1           0        8.872170   -1.250466   -2.531565
    113          1           0        7.474589   -1.606860   -1.515822
    114          8           0        6.495228    0.661152   -5.072129
    115          6           0        7.350470   -2.387011   -3.533687
    116          6           0        6.100608   -3.016805   -3.435604
    117          1           0        5.457210   -2.799058   -2.585580
    118          6           0        8.175531   -2.705565   -4.621487
    119          1           0        9.154629   -2.238082   -4.712797
    120          6           0        5.670232   -3.925646   -4.399544
    121          1           0        4.707147   -4.420868   -4.322811
    122          6           0        7.754508   -3.614422   -5.590927
    123          1           0        8.409327   -3.850642   -6.428013
    124          8           0        6.030221   -5.119675   -6.408936
    125          1           0        6.712582   -5.257779   -7.084253
    126          6           0        6.499565   -4.223020   -5.486262
    127          7           0        8.735319    0.638418   -4.629228
    128          1           0        9.488110    0.215184   -4.051712
    129          6           0        9.243891    0.616067   -6.003157
    130          1           0        8.528150    0.073875   -6.631704
    131          6           0       10.580215   -0.243509   -5.952034
    132          6           0        9.522630    2.010776   -6.567974
    133          1           0       10.174422    2.542477   -5.864160
    134          1           0       10.102859    1.865326   -7.486402
    135          8           0       11.169580   -0.350117   -7.034339
    136          6           0        8.273543    2.866128   -6.832966
    137          1           0        7.615262    2.847238   -5.956088
    138          1           0        8.562921    3.914108   -6.995658
    139          6           0        7.489167    2.385687   -8.059998
    140          1           0        8.088157    2.494507   -8.969120
    141          1           0        7.231338    1.327077   -7.981487
    142          7           0        6.239727    3.139032   -8.274279
    143          1           0        6.346778    4.094795   -8.588897
    144          7           0        4.918973    1.748537   -6.945179
    145          1           0        4.002167    1.637402   -6.504447
    146          1           0        5.708370    1.300864   -6.456011
    147          7           0        4.025761    3.693713   -7.813229
    148          1           0        3.170042    3.460486   -7.317386
    149          1           0        3.953133    4.272374   -8.636884
    150          6           0        5.076568    2.849030   -7.667540
    151          8           0       10.850759   -0.705903   -4.801386
    152          1           0        5.505330    0.031426    4.022357
 ---------------------------------------------------------------------

 SCF Done:  E(RB3LYP) =  -3586.82123579     A.U. after    2 cycles

 Alpha  occ. eigenvalues --  -19.27675 -19.24448 -19.23211 -19.22156 -19.19868
 Alpha  occ. eigenvalues --  -19.19503 -19.19045 -19.19026 -19.17967 -19.17196
 Alpha  occ. eigenvalues --  -19.15751 -19.06223 -19.04991 -14.60897 -14.50269
 Alpha  occ. eigenvalues --  -14.47380 -14.46967 -14.44541 -14.43945 -14.42968
 Alpha  occ. eigenvalues --  -14.42445 -14.41850 -14.41423 -14.40422 -14.36671
 Alpha  occ. eigenvalues --  -10.44373 -10.41408 -10.40313 -10.39920 -10.39221
 Alpha  occ. eigenvalues --  -10.37301 -10.36501 -10.36397 -10.35270 -10.35243
 Alpha  occ. eigenvalues --  -10.35063 -10.34075 -10.34017 -10.31865 -10.31769
 Alpha  occ. eigenvalues --  -10.30993 -10.30331 -10.30214 -10.30141 -10.29859
 Alpha  occ. eigenvalues --  -10.28897 -10.28541 -10.27847 -10.27845 -10.27808
 Alpha  occ. eigenvalues --  -10.27781 -10.27689 -10.27675 -10.27590 -10.27219
 Alpha  occ. eigenvalues --  -10.27137 -10.26849 -10.26563 -10.26445 -10.26161
 Alpha  occ. eigenvalues --  -10.26084 -10.26018 -10.25836 -10.25196 -10.24557
 Alpha  occ. eigenvalues --  -10.23974 -10.22228 -10.21772 -10.21424 -10.20847
 Alpha  occ. eigenvalues --  -10.20568 -10.20254 -10.20130 -10.19651 -10.19588
 Alpha  occ. eigenvalues --   -1.20155  -1.15467  -1.15448  -1.14650  -1.14073
 Alpha  occ. eigenvalues --   -1.11615  -1.10220  -1.09951  -1.08814  -1.08572
 Alpha  occ. eigenvalues --   -1.07449  -1.07090  -1.06596  -1.06528  -1.04025
 Alpha  occ. eigenvalues --   -1.02997  -0.99787  -0.99254  -0.99180  -0.98347
 Alpha  occ. eigenvalues --   -0.97312  -0.96749  -0.95996  -0.95955  -0.94398
 Alpha  occ. eigenvalues --   -0.93837  -0.92119  -0.90383  -0.89638  -0.88417
 Alpha  occ. eigenvalues --   -0.87369  -0.87274  -0.86856  -0.84696  -0.84610
 Alpha  occ. eigenvalues --   -0.83757  -0.83088  -0.83035  -0.82077  -0.81881
 Alpha  occ. eigenvalues --   -0.81121  -0.80446  -0.79532  -0.76628  -0.76412
 Alpha  occ. eigenvalues --   -0.76098  -0.75985  -0.75665  -0.75644  -0.75073
 Alpha  occ. eigenvalues --   -0.74282  -0.73966  -0.73357  -0.72033  -0.71341
 Alpha  occ. eigenvalues --   -0.70690  -0.70098  -0.69993  -0.69551  -0.68849
 Alpha  occ. eigenvalues --   -0.68796  -0.68201  -0.67815  -0.66809  -0.66717
 Alpha  occ. eigenvalues --   -0.66449  -0.66157  -0.65486  -0.64969  -0.64695
 Alpha  occ. eigenvalues --   -0.63852  -0.63664  -0.63366  -0.63249  -0.62688
 Alpha  occ. eigenvalues --   -0.62503  -0.61835  -0.61357  -0.60957  -0.60116
 Alpha  occ. eigenvalues --   -0.59924  -0.59633  -0.59379  -0.58843  -0.58569
 Alpha  occ. eigenvalues --   -0.58435  -0.58043  -0.57725  -0.57674  -0.57330
 Alpha  occ. eigenvalues --   -0.57057  -0.56650  -0.56067  -0.55742  -0.55671
 Alpha  occ. eigenvalues --   -0.55455  -0.55084  -0.54914  -0.54685  -0.54427
 Alpha  occ. eigenvalues --   -0.53988  -0.53882  -0.53488  -0.53402  -0.53119
 Alpha  occ. eigenvalues --   -0.53004  -0.52811  -0.52606  -0.52313  -0.52181
 Alpha  occ. eigenvalues --   -0.51404  -0.51300  -0.51158  -0.50957  -0.50902
 Alpha  occ. eigenvalues --   -0.50744  -0.50445  -0.50371  -0.50149  -0.49888
 Alpha  occ. eigenvalues --   -0.49423  -0.49205  -0.49045  -0.48974  -0.48888
 Alpha  occ. eigenvalues --   -0.48648  -0.48520  -0.48267  -0.47961  -0.47851
 Alpha  occ. eigenvalues --   -0.47768  -0.47721  -0.47433  -0.47380  -0.47030
 Alpha  occ. eigenvalues --   -0.46980  -0.46640  -0.46427  -0.46288  -0.46181
 Alpha  occ. eigenvalues --   -0.46154  -0.45623  -0.45379  -0.45309  -0.45115
 Alpha  occ. eigenvalues --   -0.44761  -0.44688  -0.44631  -0.44269  -0.44162
 Alpha  occ. eigenvalues --   -0.44055  -0.43892  -0.43635  -0.43503  -0.43382
 Alpha  occ. eigenvalues --   -0.43185  -0.42803  -0.42741  -0.42643  -0.42482
 Alpha  occ. eigenvalues --   -0.42177  -0.42011  -0.41693  -0.41667  -0.41420
 Alpha  occ. eigenvalues --   -0.41351  -0.40933  -0.40625  -0.40482  -0.40386
 Alpha  occ. eigenvalues --   -0.40226  -0.39777  -0.39684  -0.38738  -0.37901
 Alpha  occ. eigenvalues --   -0.37803  -0.37337  -0.37323  -0.36782  -0.36764
 Alpha  occ. eigenvalues --   -0.36346  -0.36282  -0.35639  -0.35580  -0.35063
 Alpha  occ. eigenvalues --   -0.34813  -0.34343  -0.34173  -0.33784  -0.33616
 Alpha  occ. eigenvalues --   -0.33322  -0.33220  -0.33126  -0.32992  -0.32647
 Alpha  occ. eigenvalues --   -0.32443  -0.32410  -0.31540  -0.30645  -0.30327
 Alpha  occ. eigenvalues --   -0.29771  -0.28215  -0.26583  -0.23361  -0.21267
 Alpha  occ. eigenvalues --   -0.21023  -0.19193
 Alpha virt. eigenvalues --   -0.13206  -0.12046  -0.10118  -0.09058  -0.08783
 Alpha virt. eigenvalues --   -0.07740  -0.07580  -0.06238  -0.05528  -0.05349
 Alpha virt. eigenvalues --   -0.04739  -0.04144  -0.03876  -0.03064  -0.02919

 Mulliken charges:
               1
     1  N   -0.759778
     2  H    0.417845
     3  H    0.435292
     4  H    0.413277
     5  C   -0.111394
     6  H    0.209922
     7  C    0.652928
     8  C   -0.111860
     9  H    0.157742
    10  O   -0.545910
    11  C   -0.470786
    12  H    0.189887
    13  H    0.189791
    14  H    0.137635
    15  C   -0.483911
    16  H    0.204355
    17  H    0.158911
    18  H    0.184947
    19  N   -0.600178
    20  H    0.380038
    21  C   -0.085480
    22  H    0.187890
    23  C    0.649383
    24  C   -0.065031
    25  H    0.150291
    26  O   -0.551152
    27  C   -0.291006
    28  H    0.141294
    29  H    0.157041
    30  C   -0.469885
    31  H    0.163790
    32  H    0.141539
    33  H    0.172400
    34  C   -0.455228
    35  H    0.169986
    36  H    0.152595
    37  H    0.159487
    38  N   -0.602502
    39  H    0.361813
    40  C   -0.059878
    41  H    0.183520
    42  C    0.644407
    43  C   -0.371177
    44  H    0.169365
    45  H    0.180619
    46  O   -0.557420
    47  C    0.180046
    48  C   -0.159921
    49  H    0.133738
    50  C   -0.191798
    51  H    0.136523
    52  C   -0.132066
    53  H    0.143844
    54  C   -0.139972
    55  H    0.138829
    56  C   -0.139125
    57  H    0.132667
    58  N   -0.596011
    59  H    0.344085
    60  C   -0.097558
    61  H    0.206475
    62  C    0.659358
    63  C   -0.283412
    64  H    0.165609
    65  H    0.153794
    66  O   -0.547703
    67  C   -0.073977
    68  H    0.108713
    69  C   -0.443246
    70  H    0.152353
    71  H    0.148965
    72  H    0.148772
    73  C   -0.467884
    74  H    0.158106
    75  H    0.148370
    76  H    0.150818
    77  N   -0.630479
    78  H    0.374445
    79  C   -0.022475
    80  H    0.157555
    81  C    0.608190
    82  C   -0.297579
    83  H    0.181750
    84  H    0.166696
    85  O   -0.518734
    86  C   -0.384064
    87  H    0.209900
    88  H    0.181678
    89  C    0.585898
    90  O   -0.464769
    91  O   -0.557325
    92  N   -0.608174
    93  H    0.348518
    94  C   -0.095232
    95  H    0.199415
    96  C    0.617336
    97  C   -0.388045
    98  H    0.182793
    99  H    0.199976
   100  O   -0.534870
   101  C    0.610377
   102  N   -0.738204
   103  H    0.344295
   104  H    0.408434
   105  O   -0.572655
   106  N   -0.561346
   107  H    0.345696
   108  C   -0.094923
   109  H    0.195793
   110  C    0.627183
   111  C   -0.364341
   112  H    0.189711
   113  H    0.156372
   114  O   -0.606731
   115  C    0.131726
   116  C   -0.204407
   117  H    0.118790
   118  C   -0.210755
   119  H    0.207449
   120  C   -0.161357
   121  H    0.129807
   122  C   -0.208385
   123  H    0.137003
   124  O   -0.647574
   125  H    0.409188
   126  C    0.350106
   127  N   -0.580595
   128  H    0.367085
   129  C   -0.092138
   130  H    0.143847
   131  C    0.591750
   132  C   -0.260487
   133  H    0.145042
   134  H    0.172706
   135  O   -0.570766
   136  C   -0.264851
   137  H    0.149125
   138  H    0.126012
   139  C   -0.173609
   140  H    0.179260
   141  H    0.194738
   142  N   -0.591770
   143  H    0.343611
   144  N   -0.801127
   145  H    0.391924
   146  H    0.429970
   147  N   -0.790205
   148  H    0.395808
   149  H    0.352901
   150  C    0.770304
   151  O   -0.611903
   152  H    0.415904
 Sum of Mulliken charges =   1.00000

 Dipole moment (field-independent basis, Debye):
    X=            -55.8570    Y=             11.0134    Z=             25.1724  Tot=             62.2490
 Quadrupole moment (field-independent basis, Debye-Ang):
   XX=           -240.2728   YY=           -393.5148   ZZ=           -188.4603
   XY=             71.9726   XZ=           -203.0525   YZ=            -76.3095

 Normal termination of Gaussian 16 at Sat Aug 13 18:47:19 2022.
