 Gaussian 16, Revision C.01,
 Gaussian 16:  ES64L-G16RevC.01  3-Jul-2019

 ----------------------------------------------------------------------
 # B3LYP/6-31G* empiricaldispersion=gd3 guess=read geom=check nosymm in
 tegral(ultrafinegrid)
 ----------------------------------------------------------------------

 ------------------------------------------------------
 Candidate Structure: Conf:288 Charge calc in gas phase
 ------------------------------------------------------
 Structure from the checkpoint file:  "conf-288.chk"
 Charge =  1 Multiplicity = 1

                          Input orientation:
 ---------------------------------------------------------------------
 Center     Atomic      Atomic             Coordinates (Angstroms)
 Number     Number       Type             X           Y           Z
 ---------------------------------------------------------------------
      1          7           0        2.752203   -4.941216    4.233965
      2          1           0        3.172894   -5.585979    4.905523
      3          1           0        2.978144   -5.289720    3.264839
      4          1           0        3.274673   -4.037786    4.324295
      5          6           0        1.266015   -4.798808    4.459949
      6          1           0        0.898633   -5.821312    4.603823
      7          6           0        0.725688   -4.347279    3.075033
      8          6           0        0.936312   -3.959536    5.711809
      9          1           0        1.015702   -2.895945    5.449825
     10          8           0        1.179871   -4.930065    2.089306
     11          6           0       -0.504168   -4.259941    6.167009
     12          1           0       -0.574801   -5.284790    6.551321
     13          1           0       -0.795472   -3.578641    6.971510
     14          1           0       -1.238357   -4.159343    5.361979
     15          6           0        1.918607   -4.222904    6.866635
     16          1           0        1.959580   -5.290668    7.121122
     17          1           0        2.931822   -3.869267    6.644973
     18          1           0        1.585380   -3.690613    7.762347
     19          7           0       -0.171652   -3.357921    3.030653
     20          1           0       -0.487982   -2.869795    3.864209
     21          6           0       -0.654340   -2.721294    1.800656
     22          1           0        0.133508   -2.760648    1.041395
     23          6           0       -0.946694   -1.274592    2.228544
     24          6           0       -1.968732   -3.381463    1.275609
     25          1           0       -2.675970   -3.328637    2.115672
     26          8           0       -1.306737   -1.039871    3.388405
     27          6           0       -1.786016   -4.873852    0.921585
     28          1           0       -2.790398   -5.289229    0.763952
     29          1           0       -1.370428   -5.407570    1.783252
     30          6           0       -2.570516   -2.600698    0.093650
     31          1           0       -1.838703   -2.435746   -0.704784
     32          1           0       -2.954622   -1.621828    0.390670
     33          1           0       -3.403981   -3.167373   -0.334855
     34          6           0       -0.924118   -5.155382   -0.313681
     35          1           0       -0.832033   -6.235727   -0.470738
     36          1           0       -1.361799   -4.726042   -1.220893
     37          1           0        0.085548   -4.756627   -0.191240
     38          7           0       -0.836053   -0.322037    1.283633
     39          1           0       -0.608870   -0.562875    0.320876
     40          6           0       -1.466577    0.978268    1.471147
     41          1           0       -2.366268    0.824217    2.077535
     42          6           0       -1.900275    1.455364    0.071798
     43          6           0       -0.544391    1.963623    2.245550
     44          1           0        0.319461    2.237481    1.632334
     45          1           0       -0.170066    1.398715    3.106254
     46          8           0       -1.607725    0.793963   -0.930871
     47          6           0       -1.277925    3.200800    2.718424
     48          6           0       -0.975231    4.467214    2.199883
     49          1           0       -0.143974    4.571374    1.511578
     50          6           0       -2.330980    3.083110    3.640015
     51          1           0       -2.562250    2.108069    4.064395
     52          6           0       -1.725060    5.585824    2.570569
     53          1           0       -1.484100    6.556971    2.147753
     54          6           0       -3.077789    4.200400    4.014499
     55          1           0       -3.890580    4.092614    4.727565
     56          6           0       -2.782347    5.454512    3.472759
     57          1           0       -3.369404    6.323286    3.756943
     58          7           0       -2.625260    2.593707    0.022259
     59          1           0       -2.712281    3.151414    0.863947
     60          6           0       -3.043860    3.222142   -1.241910
     61          1           0       -3.326911    2.409656   -1.916163
     62          6           0       -1.811118    3.968437   -1.801948
     63          6           0       -4.218480    4.163336   -0.977965
     64          1           0       -3.884057    4.928799   -0.266078
     65          1           0       -5.015733    3.583805   -0.492716
     66          8           0       -1.615550    5.162323   -1.593770
     67          6           0       -4.778559    4.863087   -2.230734
     68          1           0       -3.968391    5.465614   -2.659857
     69          6           0       -5.262901    3.865326   -3.293409
     70          1           0       -6.026696    3.192510   -2.881222
     71          1           0       -4.447362    3.248130   -3.687805
     72          1           0       -5.709686    4.392968   -4.143531
     73          6           0       -5.912493    5.814154   -1.822869
     74          1           0       -6.752089    5.258452   -1.384746
     75          1           0       -6.294349    6.364471   -2.690114
     76          1           0       -5.571163    6.547070   -1.082500
     77          7           0       -0.928032    3.159688   -2.452816
     78          1           0       -1.081755    2.152234   -2.399309
     79          6           0        0.472452    3.533872   -2.571605
     80          1           0        0.561080    4.473739   -3.127803
     81          6           0        1.189065    2.379665   -3.272595
     82          6           0        1.074034    3.691525   -1.149319
     83          1           0        0.982037    2.721209   -0.652002
     84          1           0        0.426578    4.390424   -0.617482
     85          8           0        0.766279    1.228141   -3.186552
     86          6           0        2.512550    4.194115   -1.047363
     87          1           0        3.242344    3.535893   -1.533256
     88          1           0        2.630442    5.182071   -1.511658
     89          6           0        2.935947    4.304267    0.401871
     90          8           0        2.280495    3.948261    1.360336
     91          8           0        4.175117    4.826912    0.519595
     92          7           0        2.367360    2.678931   -3.888729
     93          1           0        2.723043    3.623420   -3.812560
     94          6           0        3.340533    1.612722   -4.157185
     95          1           0        2.794826    0.765690   -4.574116
     96          6           0        3.990167    1.211403   -2.813469
     97          6           0        4.400964    2.089583   -5.140271
     98          1           0        3.920890    2.505576   -6.034087
     99          1           0        5.005736    2.877711   -4.675198
    100          8           0        5.015122    1.759796   -2.406856
    101          6           0        5.318259    0.929836   -5.531721
    102          7           0        6.307242    1.253510   -6.409890
    103          1           0        6.963126    0.534935   -6.681524
    104          1           0        6.470851    2.198993   -6.721526
    105          8           0        5.161697   -0.204519   -5.097727
    106          7           0        3.304520    0.289137   -2.094339
    107          1           0        2.368619    0.016641   -2.383753
    108          6           0        3.749550   -0.103792   -0.772389
    109          1           0        4.841557   -0.163508   -0.800312
    110          6           0        3.144321   -1.475536   -0.446482
    111          6           0        3.354889    0.929796    0.331805
    112          1           0        3.946288    1.831223    0.152265
    113          1           0        2.295512    1.171427    0.215405
    114          8           0        1.936080   -1.680700   -0.584495
    115          6           0        3.623216    0.310341    1.677561
    116          6           0        2.598904   -0.368826    2.345762
    117          1           0        1.572478   -0.225992    2.028255
    118          6           0        4.941309    0.136647    2.122914
    119          1           0        5.746793    0.689539    1.644481
    120          6           0        2.889923   -1.325339    3.318150
    121          1           0        2.089891   -1.908447    3.761398
    122          6           0        5.242704   -0.810298    3.096862
    123          1           0        6.270611   -1.010812    3.381966
    124          8           0        4.535523   -2.742413    4.362656
    125          1           0        5.222513   -3.189348    3.814233
    126          6           0        4.218741   -1.599374    3.622117
    127          7           0        4.019758   -2.411876    0.008096
    128          1           0        4.919508   -2.103963    0.362755
    129          6           0        3.538439   -3.656642    0.596734
    130          1           0        2.655917   -3.422839    1.201503
    131          6           0        4.574674   -4.219835    1.584197
    132          6           0        3.055356   -4.674840   -0.451886
    133          1           0        2.647422   -5.528918    0.093803
    134          1           0        2.223249   -4.200275   -0.979857
    135          8           0        4.315563   -5.379662    2.064982
    136          6           0        4.067760   -5.150967   -1.501345
    137          1           0        3.517986   -5.737251   -2.246621
    138          1           0        4.479244   -4.291008   -2.049036
    139          6           0        5.214805   -6.043467   -0.997902
    140          1           0        4.883953   -6.661427   -0.163648
    141          1           0        5.558765   -6.707206   -1.800150
    142          7           0        6.381256   -5.249164   -0.561984
    143          1           0        6.613591   -4.460536   -1.152971
    144          7           0        6.824503   -6.297279    1.468710
    145          1           0        7.526712   -6.490722    2.170378
    146          1           0        5.850982   -6.172144    1.822960
    147          7           0        8.422033   -4.918747    0.483380
    148          1           0        8.824640   -4.649357    1.370596
    149          1           0        8.755589   -4.411332   -0.324551
    150          6           0        7.189375   -5.476822    0.473117
    151          8           0        5.587334   -3.542312    1.884276
    152          1           0        4.377760    4.858326    1.474016
 ---------------------------------------------------------------------

 SCF Done:  E(RB3LYP) =  -3586.90179397     A.U. after    1 cycles

 Alpha  occ. eigenvalues --  -19.26617 -19.26130 -19.21273 -19.20752 -19.19624
 Alpha  occ. eigenvalues --  -19.19581 -19.19422 -19.19057 -19.19036 -19.18898
 Alpha  occ. eigenvalues --  -19.17682 -19.17514 -19.16736 -14.53034 -14.49534
 Alpha  occ. eigenvalues --  -14.49400 -14.46848 -14.45522 -14.43826 -14.43050
 Alpha  occ. eigenvalues --  -14.42789 -14.42684 -14.41911 -14.41837 -14.40387
 Alpha  occ. eigenvalues --  -10.45047 -10.39066 -10.38841 -10.37178 -10.36312
 Alpha  occ. eigenvalues --  -10.36013 -10.35873 -10.35836 -10.35785 -10.35422
 Alpha  occ. eigenvalues --  -10.34757 -10.33581 -10.32509 -10.32435 -10.30877
 Alpha  occ. eigenvalues --  -10.30871 -10.30340 -10.30095 -10.30060 -10.29945
 Alpha  occ. eigenvalues --  -10.29362 -10.28631 -10.28070 -10.27316 -10.27292
 Alpha  occ. eigenvalues --  -10.26848 -10.26797 -10.26591 -10.26553 -10.26535
 Alpha  occ. eigenvalues --  -10.26484 -10.26297 -10.26117 -10.25913 -10.25496
 Alpha  occ. eigenvalues --  -10.25171 -10.25138 -10.25094 -10.24301 -10.24235
 Alpha  occ. eigenvalues --  -10.24107 -10.24051 -10.24024 -10.23815 -10.23383
 Alpha  occ. eigenvalues --  -10.23189 -10.22936 -10.22312 -10.21401 -10.21060
 Alpha  occ. eigenvalues --   -1.17139  -1.14240  -1.13874  -1.13673  -1.12480
 Alpha  occ. eigenvalues --   -1.11614  -1.11367  -1.10643  -1.10574  -1.09627
 Alpha  occ. eigenvalues --   -1.09064  -1.08445  -1.08108  -1.08089  -1.03669
 Alpha  occ. eigenvalues --   -1.03174  -1.01927  -1.01213  -1.00022  -0.99774
 Alpha  occ. eigenvalues --   -0.99246  -0.99107  -0.98532  -0.97602  -0.96616
 Alpha  occ. eigenvalues --   -0.93174  -0.91569  -0.90963  -0.88074  -0.87921
 Alpha  occ. eigenvalues --   -0.87258  -0.86152  -0.85907  -0.84785  -0.84622
 Alpha  occ. eigenvalues --   -0.82848  -0.82686  -0.82535  -0.81071  -0.80401
 Alpha  occ. eigenvalues --   -0.79800  -0.79542  -0.79068  -0.78524  -0.77766
 Alpha  occ. eigenvalues --   -0.76884  -0.76553  -0.74779  -0.74509  -0.72558
 Alpha  occ. eigenvalues --   -0.72282  -0.72160  -0.71589  -0.70989  -0.70246
 Alpha  occ. eigenvalues --   -0.69985  -0.69537  -0.69182  -0.68583  -0.68377
 Alpha  occ. eigenvalues --   -0.68053  -0.67174  -0.66804  -0.66498  -0.66221
 Alpha  occ. eigenvalues --   -0.65749  -0.65418  -0.64902  -0.64838  -0.64535
 Alpha  occ. eigenvalues --   -0.63985  -0.63890  -0.63446  -0.62988  -0.62845
 Alpha  occ. eigenvalues --   -0.62683  -0.62273  -0.61915  -0.61863  -0.61371
 Alpha  occ. eigenvalues --   -0.60858  -0.60205  -0.59795  -0.59530  -0.58498
 Alpha  occ. eigenvalues --   -0.58130  -0.57378  -0.56934  -0.56726  -0.56463
 Alpha  occ. eigenvalues --   -0.56329  -0.56196  -0.55967  -0.55942  -0.55424
 Alpha  occ. eigenvalues --   -0.55099  -0.54616  -0.54489  -0.54172  -0.54042
 Alpha  occ. eigenvalues --   -0.53987  -0.53853  -0.53507  -0.53301  -0.53132
 Alpha  occ. eigenvalues --   -0.52783  -0.52628  -0.52317  -0.52250  -0.51775
 Alpha  occ. eigenvalues --   -0.51403  -0.51058  -0.50852  -0.50701  -0.50595
 Alpha  occ. eigenvalues --   -0.50442  -0.50256  -0.50156  -0.49951  -0.49855
 Alpha  occ. eigenvalues --   -0.49708  -0.49583  -0.49478  -0.49354  -0.49057
 Alpha  occ. eigenvalues --   -0.48762  -0.48442  -0.48274  -0.48235  -0.47821
 Alpha  occ. eigenvalues --   -0.47600  -0.47435  -0.47305  -0.47200  -0.46881
 Alpha  occ. eigenvalues --   -0.46687  -0.46578  -0.46359  -0.46281  -0.46055
 Alpha  occ. eigenvalues --   -0.45855  -0.45530  -0.45313  -0.45060  -0.44999
 Alpha  occ. eigenvalues --   -0.44771  -0.44694  -0.44633  -0.44523  -0.44364
 Alpha  occ. eigenvalues --   -0.44176  -0.44055  -0.44011  -0.43898  -0.43702
 Alpha  occ. eigenvalues --   -0.43302  -0.43116  -0.42926  -0.42626  -0.42562
 Alpha  occ. eigenvalues --   -0.42389  -0.42252  -0.41931  -0.41701  -0.41547
 Alpha  occ. eigenvalues --   -0.41310  -0.41085  -0.40886  -0.40751  -0.40451
 Alpha  occ. eigenvalues --   -0.40413  -0.40232  -0.39715  -0.39386  -0.39117
 Alpha  occ. eigenvalues --   -0.38899  -0.38523  -0.38354  -0.38323  -0.37601
 Alpha  occ. eigenvalues --   -0.37200  -0.36690  -0.36481  -0.36047  -0.35591
 Alpha  occ. eigenvalues --   -0.35028  -0.34887  -0.34241  -0.34104  -0.34016
 Alpha  occ. eigenvalues --   -0.33752  -0.33338  -0.33187  -0.33068  -0.32956
 Alpha  occ. eigenvalues --   -0.32826  -0.32782  -0.32464  -0.32166  -0.31682
 Alpha  occ. eigenvalues --   -0.31365  -0.30876  -0.30475  -0.30212  -0.29608
 Alpha  occ. eigenvalues --   -0.29527  -0.29140
 Alpha virt. eigenvalues --   -0.10512  -0.09358  -0.08201  -0.07803  -0.06467
 Alpha virt. eigenvalues --   -0.06026  -0.05888  -0.05838  -0.05542  -0.05388
 Alpha virt. eigenvalues --   -0.05288  -0.05268  -0.04681  -0.03643  -0.03245

 Mulliken charges:
               1
     1  N   -0.832355
     2  H    0.385859
     3  H    0.459187
     4  H    0.444462
     5  C   -0.080591
     6  H    0.203267
     7  C    0.632649
     8  C   -0.125466
     9  H    0.174070
    10  O   -0.527092
    11  C   -0.468038
    12  H    0.161529
    13  H    0.182084
    14  H    0.168198
    15  C   -0.485796
    16  H    0.150347
    17  H    0.163829
    18  H    0.188692
    19  N   -0.626235
    20  H    0.373400
    21  C   -0.072838
    22  H    0.212511
    23  C    0.601953
    24  C   -0.068247
    25  H    0.136467
    26  O   -0.555524
    27  C   -0.257927
    28  H    0.141998
    29  H    0.131799
    30  C   -0.479638
    31  H    0.171690
    32  H    0.157369
    33  H    0.159240
    34  C   -0.467517
    35  H    0.143920
    36  H    0.150348
    37  H    0.177099
    38  N   -0.611997
    39  H    0.382917
    40  C   -0.064114
    41  H    0.189183
    42  C    0.620961
    43  C   -0.369855
    44  H    0.186875
    45  H    0.182349
    46  O   -0.548909
    47  C    0.106193
    48  C   -0.194376
    49  H    0.164852
    50  C   -0.190612
    51  H    0.146074
    52  C   -0.128343
    53  H    0.146723
    54  C   -0.128690
    55  H    0.140753
    56  C   -0.133119
    57  H    0.142618
    58  N   -0.617004
    59  H    0.365066
    60  C   -0.063816
    61  H    0.179409
    62  C    0.629106
    63  C   -0.275596
    64  H    0.156797
    65  H    0.137596
    66  O   -0.535057
    67  C   -0.083269
    68  H    0.155992
    69  C   -0.452925
    70  H    0.140570
    71  H    0.143142
    72  H    0.151264
    73  C   -0.445434
    74  H    0.138993
    75  H    0.147902
    76  H    0.146446
    77  N   -0.627162
    78  H    0.396637
    79  C   -0.048073
    80  H    0.170733
    81  C    0.621183
    82  C   -0.302264
    83  H    0.167902
    84  H    0.206301
    85  O   -0.529033
    86  C   -0.403057
    87  H    0.201218
    88  H    0.183908
    89  C    0.599570
    90  O   -0.460835
    91  O   -0.564842
    92  N   -0.614275
    93  H    0.337285
    94  C   -0.040584
    95  H    0.200964
    96  C    0.657288
    97  C   -0.404323
    98  H    0.180606
    99  H    0.185081
   100  O   -0.563188
   101  C    0.632195
   102  N   -0.756004
   103  H    0.347339
   104  H    0.344053
   105  O   -0.514054
   106  N   -0.624159
   107  H    0.380793
   108  C   -0.010510
   109  H    0.162842
   110  C    0.611017
   111  C   -0.379522
   112  H    0.176074
   113  H    0.172742
   114  O   -0.551389
   115  C    0.147936
   116  C   -0.192234
   117  H    0.176233
   118  C   -0.211195
   119  H    0.145028
   120  C   -0.180463
   121  H    0.118134
   122  C   -0.136045
   123  H    0.137979
   124  O   -0.721772
   125  H    0.434205
   126  C    0.341602
   127  N   -0.612683
   128  H    0.347610
   129  C   -0.038008
   130  H    0.188352
   131  C    0.592427
   132  C   -0.276994
   133  H    0.180396
   134  H    0.182637
   135  O   -0.655551
   136  C   -0.298211
   137  H    0.169030
   138  H    0.154185
   139  C   -0.145631
   140  H    0.202125
   141  H    0.180538
   142  N   -0.587390
   143  H    0.353807
   144  N   -0.748171
   145  H    0.349093
   146  H    0.412398
   147  N   -0.754629
   148  H    0.371679
   149  H    0.366559
   150  C    0.776331
   151  O   -0.611443
   152  H    0.416311
 Sum of Mulliken charges =   1.00000

 Dipole moment (field-independent basis, Debye):
    X=             22.6927    Y=            -14.5881    Z=              6.9956  Tot=             27.8695
 Quadrupole moment (field-independent basis, Debye-Ang):
   XX=           -239.9466   YY=           -309.9763   ZZ=           -341.9317
   XY=            -89.9271   XZ=             -9.8859   YZ=            -73.7217

 Normal termination of Gaussian 16 at Sat Aug 13 18:47:21 2022.
