 Gaussian 16, Revision C.01,
 Gaussian 16:  ES64L-G16RevC.01  3-Jul-2019

 ----------------------------------------------------------------------
 # B3LYP/6-31G* empiricaldispersion=gd3 guess=read geom=check nosymm in
 tegral(ultrafinegrid)
 ----------------------------------------------------------------------

 ------------------------------------------------------
 Candidate Structure: Conf:126 Charge calc in gas phase
 ------------------------------------------------------
 Structure from the checkpoint file:  "conf-126.chk"
 Charge =  1 Multiplicity = 1

                          Input orientation:
 ---------------------------------------------------------------------
 Center     Atomic      Atomic             Coordinates (Angstroms)
 Number     Number       Type             X           Y           Z
 ---------------------------------------------------------------------
      1          7           0       -4.777937   -5.030163    6.881895
      2          1           0       -5.265338   -5.812335    6.437169
      3          1           0       -3.759555   -5.024362    6.553126
      4          1           0       -4.843006   -5.134962    7.897658
      5          6           0       -5.248854   -3.674594    6.385945
      6          1           0       -6.204824   -3.812202    5.875070
      7          6           0       -4.117630   -3.291481    5.392979
      8          6           0       -5.405029   -2.690333    7.572879
      9          1           0       -6.072085   -3.195413    8.288706
     10          8           0       -3.058270   -3.941080    5.460876
     11          6           0       -4.064538   -2.392968    8.263337
     12          1           0       -3.386015   -1.857776    7.591061
     13          1           0       -4.233885   -1.762902    9.140955
     14          1           0       -3.543348   -3.294821    8.607963
     15          6           0       -6.110319   -1.395961    7.136394
     16          1           0       -5.481148   -0.780501    6.486350
     17          1           0       -7.051963   -1.600270    6.613654
     18          1           0       -6.347681   -0.798948    8.021731
     19          7           0       -4.357898   -2.282883    4.574940
     20          1           0       -5.231176   -1.753957    4.588329
     21          6           0       -3.369849   -1.698751    3.664657
     22          1           0       -2.399124   -1.709525    4.166878
     23          6           0       -3.873739   -0.256084    3.462385
     24          6           0       -3.288332   -2.521843    2.340824
     25          1           0       -3.319254   -3.568929    2.672883
     26          8           0       -5.044306    0.020280    3.758476
     27          6           0       -1.963570   -2.330635    1.581504
     28          1           0       -1.896348   -1.306191    1.203478
     29          1           0       -2.017654   -2.965867    0.688463
     30          6           0       -4.494959   -2.249959    1.432082
     31          1           0       -4.436760   -1.243935    1.001216
     32          1           0       -5.446196   -2.334336    1.969556
     33          1           0       -4.509560   -2.964106    0.602683
     34          6           0       -0.705964   -2.695813    2.377990
     35          1           0        0.164984   -2.733867    1.719190
     36          1           0       -0.474416   -1.955446    3.152811
     37          1           0       -0.816896   -3.671484    2.867100
     38          7           0       -2.999444    0.622430    2.945994
     39          1           0       -2.048549    0.336024    2.718753
     40          6           0       -3.408854    1.957765    2.533227
     41          1           0       -4.473953    2.034453    2.765204
     42          6           0       -3.241510    2.087490    1.002009
     43          6           0       -2.644960    3.043246    3.348465
     44          1           0       -1.574674    2.985121    3.125940
     45          1           0       -2.770322    2.766605    4.402434
     46          8           0       -2.670615    1.206591    0.333374
     47          6           0       -3.173410    4.442038    3.105649
     48          6           0       -2.400521    5.400715    2.439318
     49          1           0       -1.377044    5.169610    2.171620
     50          6           0       -4.494584    4.765812    3.457147
     51          1           0       -5.105259    4.035799    3.985551
     52          6           0       -2.942949    6.641271    2.098754
     53          1           0       -2.335289    7.356902    1.553745
     54          6           0       -5.036462    6.008081    3.124486
     55          1           0       -6.061090    6.242308    3.399986
     56          6           0       -4.263084    6.946262    2.434068
     57          1           0       -4.687994    7.908422    2.162611
     58          7           0       -3.747586    3.195030    0.437900
     59          1           0       -4.119310    3.921116    1.038857
     60          6           0       -3.515936    3.545813   -0.971373
     61          1           0       -3.688915    2.637447   -1.553585
     62          6           0       -2.046257    4.007838   -1.133818
     63          6           0       -4.491381    4.650930   -1.380731
     64          1           0       -4.339061    5.503176   -0.706116
     65          1           0       -5.512864    4.277504   -1.223479
     66          8           0       -1.706773    5.166940   -0.901943
     67          6           0       -4.335930    5.137831   -2.834009
     68          1           0       -3.346188    5.604431   -2.916418
     69          6           0       -4.418365    3.991101   -3.852912
     70          1           0       -5.357234    3.432152   -3.742785
     71          1           0       -3.587782    3.283468   -3.748045
     72          1           0       -4.383149    4.381188   -4.876171
     73          6           0       -5.392619    6.210820   -3.130701
     74          1           0       -6.405317    5.790351   -3.074258
     75          1           0       -5.259722    6.624540   -4.136538
     76          1           0       -5.331978    7.039362   -2.415202
     77          7           0       -1.195124    3.025029   -1.504016
     78          1           0       -1.543298    2.091003   -1.691694
     79          6           0        0.215580    3.224744   -1.782504
     80          1           0        0.335728    4.223470   -2.216819
     81          6           0        0.610377    2.124509   -2.786610
     82          6           0        1.131740    3.086164   -0.532071
     83          1           0        2.123271    3.489312   -0.759458
     84          1           0        1.296828    2.029848   -0.312593
     85          8           0       -0.132045    1.169062   -2.997521
     86          6           0        0.557304    3.775056    0.700096
     87          1           0        0.444752    4.854118    0.547797
     88          1           0       -0.448179    3.400602    0.907439
     89          6           0        1.376718    3.532300    1.941868
     90          8           0        2.447406    2.976589    2.015903
     91          8           0        0.742281    4.035836    3.042506
     92          7           0        1.839215    2.272097   -3.364103
     93          1           0        2.459923    2.924407   -2.894802
     94          6           0        2.542761    1.088804   -3.847416
     95          1           0        1.793890    0.321803   -4.047824
     96          6           0        3.486826    0.618909   -2.712085
     97          6           0        3.300908    1.381430   -5.150781
     98          1           0        2.651486    1.979279   -5.802705
     99          1           0        4.199211    1.982150   -4.957220
    100          8           0        3.818752    1.403830   -1.822269
    101          6           0        3.662029    0.093110   -5.895590
    102          7           0        4.540470    0.240449   -6.920983
    103          1           0        4.813480   -0.584325   -7.437424
    104          1           0        4.977304    1.121827   -7.144147
    105          8           0        3.164985   -0.992425   -5.610409
    106          7           0        3.884498   -0.668555   -2.783820
    107          1           0        3.656620   -1.223003   -3.607073
    108          6           0        4.688043   -1.295027   -1.753287
    109          1           0        5.114079   -0.496197   -1.140267
    110          6           0        5.780818   -2.138861   -2.424733
    111          6           0        3.818155   -2.224461   -0.853883
    112          1           0        3.432454   -3.029161   -1.491498
    113          1           0        4.477537   -2.689507   -0.111454
    114          8           0        5.584036   -2.672534   -3.516541
    115          6           0        2.686409   -1.489910   -0.177649
    116          6           0        2.853571   -0.915049    1.089899
    117          1           0        3.800940   -1.035708    1.610088
    118          6           0        1.464364   -1.292813   -0.833271
    119          1           0        1.311173   -1.710540   -1.824135
    120          6           0        1.841396   -0.172292    1.691991
    121          1           0        1.987648    0.302701    2.655621
    122          6           0        0.440566   -0.548444   -0.248562
    123          1           0       -0.486316   -0.377255   -0.787728
    124          8           0       -0.351869    0.755089    1.632346
    125          1           0       -1.083347    0.902287    0.988158
    126          6           0        0.633859    0.008548    1.018505
    127          7           0        6.906226   -2.301395   -1.696670
    128          1           0        7.075647   -1.781402   -0.842393
    129          6           0        8.013452   -3.151517   -2.111526
    130          1           0        7.616696   -4.095131   -2.493315
    131          6           0        8.916999   -3.436065   -0.897325
    132          6           0        8.830851   -2.453352   -3.234184
    133          1           0        8.179810   -2.405341   -4.111936
    134          1           0        8.995951   -1.413658   -2.917714
    135          8           0        9.535473   -4.515258   -0.879005
    136          6           0       10.179588   -3.125022   -3.590439
    137          1           0       10.208817   -4.142386   -3.186505
    138          1           0       10.286389   -3.200248   -4.679601
    139          6           0       11.405339   -2.341935   -3.085015
    140          1           0       12.336192   -2.790424   -3.448339
    141          1           0       11.392577   -1.323794   -3.488358
    142          7           0       11.477192   -2.198991   -1.623876
    143          1           0       10.705507   -1.674475   -1.210347
    144          7           0       12.904961   -4.004752   -1.163515
    145          1           0       12.976768   -4.858315   -0.627788
    146          1           0       13.083728   -4.118291   -2.149922
    147          7           0       11.605426   -3.023374    0.517706
    148          1           0       11.896963   -3.787667    1.113503
    149          1           0       10.586585   -2.766931    0.611918
    150          6           0       11.968214   -3.109915   -0.770200
    151          8           0        9.048863   -2.452493   -0.078789
    152          1           0        1.332089    3.862651    3.800026
 ---------------------------------------------------------------------

 SCF Done:  E(RB3LYP) =  -3586.86349892     A.U. after    1 cycles

 Alpha  occ. eigenvalues --  -19.26103 -19.24299 -19.22221 -19.21144 -19.20265
 Alpha  occ. eigenvalues --  -19.18443 -19.17290 -19.16422 -19.16415 -19.15088
 Alpha  occ. eigenvalues --  -19.14006 -19.12674 -19.11435 -14.59393 -14.48512
 Alpha  occ. eigenvalues --  -14.44653 -14.44373 -14.43784 -14.43123 -14.40841
 Alpha  occ. eigenvalues --  -14.40722 -14.40657 -14.40550 -14.38883 -14.38333
 Alpha  occ. eigenvalues --  -10.42718 -10.40057 -10.39341 -10.38167 -10.37056
 Alpha  occ. eigenvalues --  -10.36470 -10.34311 -10.34223 -10.34054 -10.33628
 Alpha  occ. eigenvalues --  -10.33042 -10.32229 -10.31495 -10.31235 -10.30148
 Alpha  occ. eigenvalues --  -10.29713 -10.29517 -10.29199 -10.29154 -10.28654
 Alpha  occ. eigenvalues --  -10.28481 -10.27604 -10.27529 -10.26510 -10.26414
 Alpha  occ. eigenvalues --  -10.25878 -10.25194 -10.25106 -10.25012 -10.24669
 Alpha  occ. eigenvalues --  -10.24659 -10.24577 -10.24479 -10.24463 -10.24253
 Alpha  occ. eigenvalues --  -10.24189 -10.23749 -10.23386 -10.23370 -10.23343
 Alpha  occ. eigenvalues --  -10.23064 -10.22972 -10.22864 -10.22758 -10.22685
 Alpha  occ. eigenvalues --  -10.22532 -10.22368 -10.22365 -10.21723 -10.21482
 Alpha  occ. eigenvalues --   -1.18601  -1.14850  -1.13448  -1.12915  -1.11934
 Alpha  occ. eigenvalues --   -1.09742  -1.09325  -1.08325  -1.08222  -1.08100
 Alpha  occ. eigenvalues --   -1.06982  -1.05945  -1.05939  -1.05313  -1.05013
 Alpha  occ. eigenvalues --   -1.01313  -1.00145  -0.97974  -0.97459  -0.97291
 Alpha  occ. eigenvalues --   -0.96578  -0.95827  -0.95646  -0.95451  -0.94807
 Alpha  occ. eigenvalues --   -0.94460  -0.91700  -0.89748  -0.89120  -0.86941
 Alpha  occ. eigenvalues --   -0.85713  -0.85470  -0.85016  -0.83941  -0.83318
 Alpha  occ. eigenvalues --   -0.81900  -0.81751  -0.81023  -0.80964  -0.80154
 Alpha  occ. eigenvalues --   -0.79419  -0.78632  -0.78556  -0.78427  -0.77916
 Alpha  occ. eigenvalues --   -0.76370  -0.75003  -0.73342  -0.72972  -0.72668
 Alpha  occ. eigenvalues --   -0.72469  -0.72002  -0.71892  -0.71061  -0.69961
 Alpha  occ. eigenvalues --   -0.69746  -0.69111  -0.68744  -0.68564  -0.67355
 Alpha  occ. eigenvalues --   -0.66756  -0.66038  -0.66000  -0.65621  -0.64952
 Alpha  occ. eigenvalues --   -0.64656  -0.64523  -0.64376  -0.63770  -0.63686
 Alpha  occ. eigenvalues --   -0.62997  -0.62726  -0.62274  -0.61755  -0.61500
 Alpha  occ. eigenvalues --   -0.61421  -0.60958  -0.60718  -0.60590  -0.59744
 Alpha  occ. eigenvalues --   -0.59275  -0.58774  -0.58314  -0.58008  -0.57206
 Alpha  occ. eigenvalues --   -0.57071  -0.56605  -0.56300  -0.56028  -0.55873
 Alpha  occ. eigenvalues --   -0.55374  -0.54932  -0.54658  -0.54331  -0.54226
 Alpha  occ. eigenvalues --   -0.53832  -0.53477  -0.53366  -0.52976  -0.52651
 Alpha  occ. eigenvalues --   -0.52639  -0.52395  -0.52054  -0.51981  -0.51446
 Alpha  occ. eigenvalues --   -0.51415  -0.51332  -0.51051  -0.50862  -0.50780
 Alpha  occ. eigenvalues --   -0.50270  -0.50207  -0.50110  -0.50046  -0.50022
 Alpha  occ. eigenvalues --   -0.49732  -0.49528  -0.49355  -0.49013  -0.48583
 Alpha  occ. eigenvalues --   -0.48459  -0.48159  -0.47925  -0.47887  -0.47618
 Alpha  occ. eigenvalues --   -0.47596  -0.47440  -0.47280  -0.46958  -0.46814
 Alpha  occ. eigenvalues --   -0.46754  -0.46616  -0.46469  -0.46375  -0.46281
 Alpha  occ. eigenvalues --   -0.46020  -0.45892  -0.45810  -0.45650  -0.45260
 Alpha  occ. eigenvalues --   -0.45107  -0.44676  -0.44320  -0.44262  -0.44122
 Alpha  occ. eigenvalues --   -0.43996  -0.43669  -0.43546  -0.43422  -0.43097
 Alpha  occ. eigenvalues --   -0.42992  -0.42921  -0.42816  -0.42664  -0.42051
 Alpha  occ. eigenvalues --   -0.41932  -0.41538  -0.41471  -0.41356  -0.41188
 Alpha  occ. eigenvalues --   -0.40852  -0.40755  -0.40610  -0.40352  -0.40026
 Alpha  occ. eigenvalues --   -0.39938  -0.39863  -0.39822  -0.39345  -0.39239
 Alpha  occ. eigenvalues --   -0.39207  -0.39100  -0.38822  -0.38634  -0.38273
 Alpha  occ. eigenvalues --   -0.37610  -0.37504  -0.37327  -0.37132  -0.37061
 Alpha  occ. eigenvalues --   -0.36808  -0.36404  -0.36248  -0.35297  -0.35019
 Alpha  occ. eigenvalues --   -0.34982  -0.34314  -0.33792  -0.32224  -0.32162
 Alpha  occ. eigenvalues --   -0.31980  -0.31874  -0.31199  -0.30956  -0.30288
 Alpha  occ. eigenvalues --   -0.30162  -0.29995  -0.29603  -0.29343  -0.28928
 Alpha  occ. eigenvalues --   -0.28666  -0.28591  -0.28037  -0.27743  -0.27049
 Alpha  occ. eigenvalues --   -0.25760  -0.24845
 Alpha virt. eigenvalues --   -0.11570  -0.10792  -0.07267  -0.06745  -0.06368
 Alpha virt. eigenvalues --   -0.06136  -0.05756  -0.04945  -0.04238  -0.04151
 Alpha virt. eigenvalues --   -0.03711  -0.03373  -0.03099  -0.02773  -0.02309

 Mulliken charges:
               1
     1  N   -0.762437
     2  H    0.415614
     3  H    0.435391
     4  H    0.410018
     5  C   -0.106524
     6  H    0.208854
     7  C    0.656525
     8  C   -0.109861
     9  H    0.157648
    10  O   -0.552487
    11  C   -0.469578
    12  H    0.186775
    13  H    0.192434
    14  H    0.141439
    15  C   -0.478403
    16  H    0.188357
    17  H    0.165766
    18  H    0.187481
    19  N   -0.604503
    20  H    0.380315
    21  C   -0.083640
    22  H    0.192044
    23  C    0.634136
    24  C   -0.076163
    25  H    0.141941
    26  O   -0.560995
    27  C   -0.274855
    28  H    0.153327
    29  H    0.152534
    30  C   -0.470487
    31  H    0.176544
    32  H    0.135612
    33  H    0.163237
    34  C   -0.465193
    35  H    0.186107
    36  H    0.140216
    37  H    0.142607
    38  N   -0.615306
    39  H    0.385792
    40  C   -0.112545
    41  H    0.207799
    42  C    0.650941
    43  C   -0.361631
    44  H    0.194634
    45  H    0.162479
    46  O   -0.578233
    47  C    0.104519
    48  C   -0.177456
    49  H    0.173868
    50  C   -0.201767
    51  H    0.132752
    52  C   -0.122548
    53  H    0.156120
    54  C   -0.127997
    55  H    0.141916
    56  C   -0.137239
    57  H    0.145646
    58  N   -0.600643
    59  H    0.368050
    60  C   -0.049153
    61  H    0.173962
    62  C    0.630685
    63  C   -0.286860
    64  H    0.161566
    65  H    0.137274
    66  O   -0.548438
    67  C   -0.084346
    68  H    0.156440
    69  C   -0.455329
    70  H    0.139896
    71  H    0.146841
    72  H    0.152708
    73  C   -0.445488
    74  H    0.139257
    75  H    0.149672
    76  H    0.145326
    77  N   -0.609216
    78  H    0.367637
    79  C   -0.058800
    80  H    0.179999
    81  C    0.614625
    82  C   -0.293094
    83  H    0.172474
    84  H    0.203667
    85  O   -0.527651
    86  C   -0.366199
    87  H    0.200917
    88  H    0.170397
    89  C    0.597696
    90  O   -0.454157
    91  O   -0.578695
    92  N   -0.590799
    93  H    0.343448
    94  C   -0.085285
    95  H    0.215689
    96  C    0.611332
    97  C   -0.381641
    98  H    0.193862
    99  H    0.165007
   100  O   -0.542744
   101  C    0.624839
   102  N   -0.747231
   103  H    0.355378
   104  H    0.343356
   105  O   -0.511983
   106  N   -0.615707
   107  H    0.386900
   108  C   -0.059729
   109  H    0.179501
   110  C    0.623573
   111  C   -0.361993
   112  H    0.162379
   113  H    0.154791
   114  O   -0.544074
   115  C    0.180898
   116  C   -0.181833
   117  H    0.130858
   118  C   -0.197600
   119  H    0.143752
   120  C   -0.142518
   121  H    0.135373
   122  C   -0.210172
   123  H    0.159349
   124  O   -0.750663
   125  H    0.467831
   126  C    0.342829
   127  N   -0.619263
   128  H    0.344088
   129  C   -0.001185
   130  H    0.169581
   131  C    0.575175
   132  C   -0.294407
   133  H    0.179050
   134  H    0.128683
   135  O   -0.584898
   136  C   -0.272962
   137  H    0.185078
   138  H    0.145285
   139  C   -0.179430
   140  H    0.146546
   141  H    0.177076
   142  N   -0.568302
   143  H    0.370359
   144  N   -0.750342
   145  H    0.365544
   146  H    0.363577
   147  N   -0.732992
   148  H    0.335239
   149  H    0.400634
   150  C    0.757447
   151  O   -0.647038
   152  H    0.407923
 Sum of Mulliken charges =   1.00000

 Dipole moment (field-independent basis, Debye):
    X=             -7.6420    Y=            -12.0579    Z=             20.4933  Tot=             24.9754
 Quadrupole moment (field-independent basis, Debye-Ang):
   XX=           -120.6633   YY=           -335.5293   ZZ=           -206.6484
   XY=             26.2757   XZ=           -193.8514   YZ=           -120.0712

 Normal termination of Gaussian 16 at Sat Aug 13 18:47:31 2022.
