 Gaussian 16, Revision C.01,
 Gaussian 16:  ES64L-G16RevC.01  3-Jul-2019

 ----------------------------------------------------------------------
 # B3LYP/6-31G* empiricaldispersion=gd3 guess=read geom=check nosymm in
 tegral(ultrafinegrid)
 ----------------------------------------------------------------------

 ------------------------------------------------------
 Candidate Structure: Conf:156 Charge calc in gas phase
 ------------------------------------------------------
 Structure from the checkpoint file:  "conf-156.chk"
 Charge =  1 Multiplicity = 1

                          Input orientation:
 ---------------------------------------------------------------------
 Center     Atomic      Atomic             Coordinates (Angstroms)
 Number     Number       Type             X           Y           Z
 ---------------------------------------------------------------------
      1          7           0      -10.309532    4.137759    4.258857
      2          1           0      -10.947448    4.716045    3.704452
      3          1           0      -10.390151    3.133323    3.929955
      4          1           0      -10.563339    4.222694    5.247255
      5          6           0       -8.844947    4.444276    3.994576
      6          1           0       -8.783407    5.432172    3.531664
      7          6           0       -8.443863    3.310571    3.018692
      8          6           0       -8.046622    4.410706    5.326527
      9          1           0       -8.593690    5.081345    6.007706
     10          8           0       -9.185924    2.320714    2.957302
     11          6           0       -7.993523    3.002778    5.939437
     12          1           0       -7.421117    2.308961    5.315850
     13          1           0       -7.498787    3.040328    6.912829
     14          1           0       -8.983881    2.558223    6.097116
     15          6           0       -6.636439    4.998362    5.154977
     16          1           0       -5.971704    4.331201    4.597579
     17          1           0       -6.656940    5.976397    4.659154
     18          1           0       -6.189499    5.143557    6.142841
     19          7           0       -7.302673    3.468668    2.346030
     20          1           0       -6.711822    4.266991    2.554185
     21          6           0       -6.594493    2.346650    1.714538
     22          1           0       -7.247866    1.476122    1.806430
     23          6           0       -5.317179    2.163054    2.546161
     24          6           0       -6.290980    2.596114    0.211766
     25          1           0       -7.274104    2.632354   -0.278629
     26          8           0       -4.662026    3.153003    2.899403
     27          6           0       -5.510425    1.395356   -0.366159
     28          1           0       -5.979594    0.461934   -0.020783
     29          1           0       -4.489891    1.396221    0.039913
     30          6           0       -5.576733    3.932535   -0.036623
     31          1           0       -4.608185    3.968910    0.470313
     32          1           0       -6.175103    4.782296    0.311372
     33          1           0       -5.410105    4.080884   -1.106419
     34          6           0       -5.452406    1.372736   -1.896812
     35          1           0       -4.928193    0.478235   -2.246842
     36          1           0       -6.459170    1.365430   -2.330601
     37          1           0       -4.917074    2.238637   -2.297645
     38          7           0       -4.980934    0.900097    2.860403
     39          1           0       -5.529239    0.133155    2.493333
     40          6           0       -3.757303    0.567862    3.597817
     41          1           0       -3.545018    1.433033    4.233285
     42          6           0       -2.613875    0.383047    2.577801
     43          6           0       -3.975458   -0.679801    4.463230
     44          1           0       -3.031639   -0.896185    4.974166
     45          1           0       -4.163770   -1.536802    3.807132
     46          8           0       -2.184706   -0.732204    2.283482
     47          6           0       -5.099191   -0.483937    5.456878
     48          6           0       -4.877906    0.216804    6.650584
     49          1           0       -3.879979    0.586811    6.876128
     50          6           0       -6.388734   -0.962230    5.191439
     51          1           0       -6.574182   -1.528368    4.280561
     52          6           0       -5.914289    0.422668    7.561619
     53          1           0       -5.717755    0.947030    8.493015
     54          6           0       -7.431433   -0.755060    6.097338
     55          1           0       -8.420193   -1.150799    5.881561
     56          6           0       -7.195256   -0.064961    7.287898
     57          1           0       -7.998349    0.076844    8.006085
     58          7           0       -2.191797    1.534626    2.003263
     59          1           0       -2.591551    2.414006    2.313618
     60          6           0       -1.261276    1.544028    0.870201
     61          1           0       -1.486517    0.654280    0.272550
     62          6           0        0.198917    1.406305    1.360630
     63          6           0       -1.422218    2.803253    0.018185
     64          1           0       -1.006857    3.648621    0.578365
     65          1           0       -2.492438    2.998817   -0.135382
     66          8           0        0.990411    2.348768    1.344170
     67          6           0       -0.718977    2.675548   -1.352981
     68          1           0        0.219196    2.127675   -1.214071
     69          6           0       -1.563197    1.869355   -2.349142
     70          1           0       -2.491426    2.401970   -2.596806
     71          1           0       -1.834787    0.882819   -1.954444
     72          1           0       -1.006781    1.706382   -3.277647
     73          6           0       -0.373540    4.055985   -1.923617
     74          1           0       -1.279787    4.649848   -2.102937
     75          1           0        0.165820    3.947711   -2.869213
     76          1           0        0.263538    4.622678   -1.232450
     77          7           0        0.539490    0.165497    1.791611
     78          1           0       -0.161239   -0.557655    1.659172
     79          6           0        1.933675   -0.241609    1.753519
     80          1           0        2.516940    0.463750    2.356077
     81          6           0        2.410649   -0.165198    0.280711
     82          6           0        2.090910   -1.665448    2.304235
     83          1           0        3.145114   -1.956444    2.260447
     84          1           0        1.557587   -2.368768    1.653197
     85          8           0        1.611274   -0.171498   -0.650933
     86          6           0        1.577768   -1.799044    3.739147
     87          1           0        2.089347   -1.098470    4.412078
     88          1           0        0.511389   -1.552722    3.808276
     89          6           0        1.774470   -3.199065    4.279615
     90          8           0        2.289550   -4.118445    3.685011
     91          8           0        1.292874   -3.308939    5.542270
     92          7           0        3.749669   -0.069658    0.091948
     93          1           0        4.422902   -0.124182    0.851634
     94          6           0        4.327897   -0.109630   -1.238961
     95          1           0        3.762960   -0.821561   -1.847496
     96          6           0        5.814204   -0.478297   -1.084245
     97          6           0        4.357782    1.272952   -1.983504
     98          1           0        5.223931    1.839614   -1.618183
     99          1           0        4.513593    1.088849   -3.046708
    100          8           0        6.385267   -0.230561   -0.025337
    101          6           0        3.138637    2.172982   -1.841025
    102          7           0        3.022418    2.803765   -0.607095
    103          1           0        2.069740    3.019573   -0.320958
    104          1           0        3.521510    2.361902    0.157248
    105          8           0        2.389288    2.445862   -2.768195
    106          7           0        6.440474   -0.910764   -2.215700
    107          1           0        5.850142   -1.013354   -3.039161
    108          6           0        7.718099   -0.276989   -2.593920
    109          1           0        8.104210    0.213859   -1.699100
    110          6           0        7.307440    0.762939   -3.671878
    111          6           0        8.804099   -1.226921   -3.150636
    112          1           0        9.134753   -1.899225   -2.350790
    113          1           0        8.379347   -1.833528   -3.957646
    114          8           0        6.542081    0.391033   -4.570605
    115          6           0        9.893265   -0.306636   -3.663325
    116          6           0        9.930014    0.060707   -5.014064
    117          1           0        9.380749   -0.530752   -5.742469
    118          6           0       10.611420    0.475504   -2.743702
    119          1           0       10.625914    0.189181   -1.693148
    120          6           0       10.539256    1.248884   -5.419705
    121          1           0       10.496873    1.578757   -6.453147
    122          6           0       11.210914    1.667550   -3.136179
    123          1           0       11.698759    2.314739   -2.413987
    124          8           0       11.469713    3.367672   -4.823151
    125          1           0       10.922316    3.958874   -4.258587
    126          6           0       11.096307    2.102627   -4.464872
    127          7           0        7.721718    2.031488   -3.480208
    128          1           0        8.543383    2.192529   -2.902886
    129          6           0        7.411675    3.162282   -4.370662
    130          1           0        7.884232    2.981043   -5.347704
    131          6           0        8.126649    4.410658   -3.726226
    132          6           0        5.891002    3.288651   -4.544006
    133          1           0        5.500743    2.307936   -4.814028
    134          1           0        5.474682    3.528862   -3.559173
    135          8           0        7.485751    5.506685   -3.664445
    136          6           0        5.419164    4.314621   -5.595051
    137          1           0        6.245205    4.964023   -5.906064
    138          1           0        5.058251    3.808437   -6.497781
    139          6           0        4.286838    5.195003   -5.043631
    140          1           0        3.901727    5.881517   -5.804170
    141          1           0        3.457360    4.566220   -4.700534
    142          7           0        4.825263    5.981588   -3.918333
    143          1           0        5.837845    6.137899   -4.047459
    144          7           0        3.336746    5.376481   -2.186767
    145          1           0        3.309485    4.723884   -1.401940
    146          1           0        2.635924    5.165801   -2.884972
    147          7           0        5.561882    5.888961   -1.748963
    148          1           0        5.382771    5.885924   -0.756693
    149          1           0        6.523259    5.871857   -2.122071
    150          6           0        4.566438    5.728094   -2.630110
    151          8           0        9.279223    4.205831   -3.294097
    152          1           0        1.464252   -4.227631    5.824008
 ---------------------------------------------------------------------

 SCF Done:  E(RB3LYP) =  -3586.81988812     A.U. after    1 cycles

 Alpha  occ. eigenvalues --  -19.28748 -19.25159 -19.24397 -19.21524 -19.19604
 Alpha  occ. eigenvalues --  -19.19481 -19.18275 -19.18256 -19.17811 -19.15379
 Alpha  occ. eigenvalues --  -19.14734 -19.12234 -19.11436 -14.61799 -14.51724
 Alpha  occ. eigenvalues --  -14.48973 -14.45459 -14.42927 -14.42681 -14.42470
 Alpha  occ. eigenvalues --  -14.42427 -14.41763 -14.41095 -14.40261 -14.38491
 Alpha  occ. eigenvalues --  -10.45542 -10.42277 -10.41399 -10.39072 -10.38403
 Alpha  occ. eigenvalues --  -10.37815 -10.36247 -10.36063 -10.35890 -10.35468
 Alpha  occ. eigenvalues --  -10.35282 -10.34545 -10.34146 -10.31674 -10.31208
 Alpha  occ. eigenvalues --  -10.31071 -10.30970 -10.30858 -10.30485 -10.30261
 Alpha  occ. eigenvalues --  -10.30166 -10.29133 -10.28947 -10.28551 -10.28341
 Alpha  occ. eigenvalues --  -10.28287 -10.28241 -10.28147 -10.28097 -10.28003
 Alpha  occ. eigenvalues --  -10.27672 -10.26869 -10.26634 -10.26378 -10.26223
 Alpha  occ. eigenvalues --  -10.25775 -10.25534 -10.25075 -10.24865 -10.24767
 Alpha  occ. eigenvalues --  -10.23163 -10.23154 -10.22771 -10.22135 -10.21166
 Alpha  occ. eigenvalues --  -10.20922 -10.20656 -10.20489 -10.19873 -10.19733
 Alpha  occ. eigenvalues --   -1.21242  -1.16433  -1.16016  -1.15609  -1.13240
 Alpha  occ. eigenvalues --   -1.11459  -1.10249  -1.09644  -1.09341  -1.08301
 Alpha  occ. eigenvalues --   -1.07852  -1.07140  -1.06534  -1.05175  -1.05045
 Alpha  occ. eigenvalues --   -1.03895  -1.01701  -0.99619  -0.99060  -0.97365
 Alpha  occ. eigenvalues --   -0.97143  -0.96710  -0.96447  -0.96124  -0.95682
 Alpha  occ. eigenvalues --   -0.94915  -0.94524  -0.92909  -0.89434  -0.88097
 Alpha  occ. eigenvalues --   -0.87921  -0.87242  -0.87072  -0.84958  -0.84436
 Alpha  occ. eigenvalues --   -0.83641  -0.83505  -0.83203  -0.82407  -0.81937
 Alpha  occ. eigenvalues --   -0.81107  -0.80937  -0.79656  -0.77560  -0.77130
 Alpha  occ. eigenvalues --   -0.76054  -0.75933  -0.75565  -0.75347  -0.75013
 Alpha  occ. eigenvalues --   -0.74097  -0.73359  -0.73285  -0.72553  -0.71725
 Alpha  occ. eigenvalues --   -0.71205  -0.70684  -0.70182  -0.69651  -0.69049
 Alpha  occ. eigenvalues --   -0.68905  -0.68249  -0.67757  -0.67065  -0.66757
 Alpha  occ. eigenvalues --   -0.65801  -0.65287  -0.64936  -0.64714  -0.64212
 Alpha  occ. eigenvalues --   -0.63787  -0.63676  -0.63478  -0.63071  -0.62368
 Alpha  occ. eigenvalues --   -0.62286  -0.61914  -0.61847  -0.60890  -0.60735
 Alpha  occ. eigenvalues --   -0.60403  -0.60084  -0.59956  -0.59359  -0.59284
 Alpha  occ. eigenvalues --   -0.58410  -0.58002  -0.57786  -0.57658  -0.57297
 Alpha  occ. eigenvalues --   -0.56610  -0.56418  -0.55783  -0.55697  -0.55617
 Alpha  occ. eigenvalues --   -0.55474  -0.55367  -0.54784  -0.54712  -0.54535
 Alpha  occ. eigenvalues --   -0.54290  -0.54066  -0.53775  -0.53275  -0.53219
 Alpha  occ. eigenvalues --   -0.53112  -0.52880  -0.52343  -0.52236  -0.52052
 Alpha  occ. eigenvalues --   -0.51832  -0.51588  -0.51476  -0.51247  -0.51220
 Alpha  occ. eigenvalues --   -0.51145  -0.50915  -0.50676  -0.50563  -0.50087
 Alpha  occ. eigenvalues --   -0.49639  -0.49517  -0.49148  -0.49021  -0.48926
 Alpha  occ. eigenvalues --   -0.48664  -0.48557  -0.48429  -0.48357  -0.48188
 Alpha  occ. eigenvalues --   -0.47942  -0.47876  -0.47779  -0.47501  -0.47464
 Alpha  occ. eigenvalues --   -0.47261  -0.46768  -0.46652  -0.46534  -0.46344
 Alpha  occ. eigenvalues --   -0.46102  -0.45911  -0.45706  -0.45473  -0.45352
 Alpha  occ. eigenvalues --   -0.44907  -0.44752  -0.44646  -0.44623  -0.44283
 Alpha  occ. eigenvalues --   -0.44023  -0.43953  -0.43632  -0.43428  -0.43393
 Alpha  occ. eigenvalues --   -0.43312  -0.43162  -0.43150  -0.43126  -0.42972
 Alpha  occ. eigenvalues --   -0.42909  -0.42610  -0.42481  -0.42288  -0.42088
 Alpha  occ. eigenvalues --   -0.41655  -0.41122  -0.41019  -0.40965  -0.40373
 Alpha  occ. eigenvalues --   -0.39886  -0.39513  -0.39320  -0.39150  -0.38753
 Alpha  occ. eigenvalues --   -0.38523  -0.38364  -0.37969  -0.37816  -0.37758
 Alpha  occ. eigenvalues --   -0.37446  -0.36907  -0.36505  -0.36212  -0.34807
 Alpha  occ. eigenvalues --   -0.34767  -0.34674  -0.34438  -0.34194  -0.33837
 Alpha  occ. eigenvalues --   -0.33505  -0.33163  -0.32755  -0.32362  -0.32157
 Alpha  occ. eigenvalues --   -0.31939  -0.31539  -0.31335  -0.30520  -0.29974
 Alpha  occ. eigenvalues --   -0.28655  -0.28081  -0.27945  -0.26772  -0.26085
 Alpha  occ. eigenvalues --   -0.25518  -0.23212
 Alpha virt. eigenvalues --   -0.14417  -0.12749  -0.11068  -0.09591  -0.09487
 Alpha virt. eigenvalues --   -0.08356  -0.07658  -0.06677  -0.06294  -0.05986
 Alpha virt. eigenvalues --   -0.04799  -0.04635  -0.04617  -0.04098  -0.03698

 Mulliken charges:
               1
     1  N   -0.757221
     2  H    0.420087
     3  H    0.435955
     4  H    0.415262
     5  C   -0.113999
     6  H    0.211109
     7  C    0.655571
     8  C   -0.113976
     9  H    0.158883
    10  O   -0.536374
    11  C   -0.470270
    12  H    0.195031
    13  H    0.192691
    14  H    0.136737
    15  C   -0.495555
    16  H    0.201788
    17  H    0.160039
    18  H    0.191257
    19  N   -0.590950
    20  H    0.372056
    21  C   -0.091777
    22  H    0.190975
    23  C    0.646389
    24  C   -0.071912
    25  H    0.150645
    26  O   -0.561765
    27  C   -0.287002
    28  H    0.128815
    29  H    0.160853
    30  C   -0.480921
    31  H    0.180522
    32  H    0.134751
    33  H    0.177083
    34  C   -0.456443
    35  H    0.171537
    36  H    0.154228
    37  H    0.165760
    38  N   -0.582825
    39  H    0.349410
    40  C   -0.073381
    41  H    0.191815
    42  C    0.645983
    43  C   -0.392626
    44  H    0.187996
    45  H    0.180096
    46  O   -0.534424
    47  C    0.185014
    48  C   -0.183191
    49  H    0.139948
    50  C   -0.197066
    51  H    0.127170
    52  C   -0.135228
    53  H    0.145538
    54  C   -0.133344
    55  H    0.142241
    56  C   -0.136781
    57  H    0.139467
    58  N   -0.627949
    59  H    0.361422
    60  C   -0.062316
    61  H    0.188245
    62  C    0.650708
    63  C   -0.301381
    64  H    0.157344
    65  H    0.132059
    66  O   -0.556804
    67  C   -0.092468
    68  H    0.179762
    69  C   -0.458998
    70  H    0.129077
    71  H    0.142514
    72  H    0.173630
    73  C   -0.460034
    74  H    0.129467
    75  H    0.168152
    76  H    0.134266
    77  N   -0.598043
    78  H    0.369677
    79  C   -0.055350
    80  H    0.168189
    81  C    0.627008
    82  C   -0.295977
    83  H    0.179176
    84  H    0.177301
    85  O   -0.532012
    86  C   -0.358349
    87  H    0.181829
    88  H    0.187843
    89  C    0.585695
    90  O   -0.451181
    91  O   -0.572793
    92  N   -0.640699
    93  H    0.355252
    94  C   -0.021326
    95  H    0.191833
    96  C    0.575547
    97  C   -0.395634
    98  H    0.181506
    99  H    0.213363
   100  O   -0.516430
   101  C    0.595251
   102  N   -0.793756
   103  H    0.389978
   104  H    0.338950
   105  O   -0.513595
   106  N   -0.581796
   107  H    0.345141
   108  C   -0.058614
   109  H    0.177374
   110  C    0.623599
   111  C   -0.339166
   112  H    0.158019
   113  H    0.156504
   114  O   -0.571571
   115  C    0.122105
   116  C   -0.183121
   117  H    0.134926
   118  C   -0.213333
   119  H    0.127213
   120  C   -0.158189
   121  H    0.137048
   122  C   -0.161591
   123  H    0.138716
   124  O   -0.690932
   125  H    0.442362
   126  C    0.355482
   127  N   -0.623746
   128  H    0.369228
   129  C   -0.023982
   130  H    0.169325
   131  C    0.573702
   132  C   -0.291586
   133  H    0.195662
   134  H    0.119049
   135  O   -0.624978
   136  C   -0.290489
   137  H    0.171642
   138  H    0.155410
   139  C   -0.180772
   140  H    0.168939
   141  H    0.165672
   142  N   -0.567991
   143  H    0.398564
   144  N   -0.757686
   145  H    0.382048
   146  H    0.365742
   147  N   -0.766287
   148  H    0.350462
   149  H    0.414464
   150  C    0.714921
   151  O   -0.568564
   152  H    0.415453
 Sum of Mulliken charges =   1.00000

 Dipole moment (field-independent basis, Debye):
    X=            -50.6047    Y=             18.5090    Z=             24.5856  Tot=             59.2273
 Quadrupole moment (field-independent basis, Debye-Ang):
   XX=           -166.4471   YY=           -361.1375   ZZ=           -341.0051
   XY=           -197.1108   XZ=           -123.9393   YZ=             76.7732

 Normal termination of Gaussian 16 at Sat Aug 13 18:47:15 2022.
