 Gaussian 16, Revision C.01,
 Gaussian 16:  ES64L-G16RevC.01  3-Jul-2019

 ----------------------------------------------------------------------
 # B3LYP/6-31G* empiricaldispersion=gd3 guess=read geom=check nosymm in
 tegral(ultrafinegrid)
 ----------------------------------------------------------------------

 ------------------------------------------------------
 Candidate Structure: Conf:981 Charge calc in gas phase
 ------------------------------------------------------
 Structure from the checkpoint file:  "conf-981.chk"
 Charge =  1 Multiplicity = 1

                          Input orientation:
 ---------------------------------------------------------------------
 Center     Atomic      Atomic             Coordinates (Angstroms)
 Number     Number       Type             X           Y           Z
 ---------------------------------------------------------------------
      1          7           0      -10.981869    3.743347    5.254164
      2          1           0      -11.182794    4.737627    5.127423
      3          1           0      -11.118438    3.218644    4.329252
      4          1           0      -11.609864    3.371776    5.971345
      5          6           0       -9.520272    3.451423    5.537873
      6          1           0       -8.997691    4.409829    5.597272
      7          6           0       -9.085071    2.676417    4.262845
      8          6           0       -9.329270    2.656760    6.847660
      9          1           0       -8.247790    2.481676    6.912842
     10          8           0       -9.966094    2.398936    3.429506
     11          6           0       -9.744794    3.487598    8.070948
     12          1           0      -10.826450    3.679450    8.094671
     13          1           0       -9.503469    2.946916    8.990577
     14          1           0       -9.227558    4.452889    8.102820
     15          6           0      -10.027358    1.288068    6.811222
     16          1           0      -11.122026    1.376185    6.774363
     17          1           0       -9.708262    0.685137    5.955527
     18          1           0       -9.792063    0.730394    7.721859
     19          7           0       -7.806751    2.354305    4.178178
     20          1           0       -7.121865    2.586228    4.900654
     21          6           0       -7.208165    1.588563    3.082381
     22          1           0       -7.883467    0.765795    2.832899
     23          6           0       -5.885589    1.067670    3.676029
     24          6           0       -6.993687    2.491036    1.825558
     25          1           0       -7.976862    2.951946    1.656419
     26          8           0       -5.404105    1.624539    4.667643
     27          6           0       -6.633230    1.708162    0.546628
     28          1           0       -5.618324    1.302586    0.613786
     29          1           0       -6.598003    2.443423   -0.267164
     30          6           0       -5.964631    3.598327    2.093856
     31          1           0       -4.960437    3.184766    2.238430
     32          1           0       -6.212990    4.186749    2.983994
     33          1           0       -5.917629    4.282366    1.240699
     34          6           0       -7.613755    0.595024    0.159751
     35          1           0       -7.365878    0.197389   -0.828829
     36          1           0       -7.588676   -0.255052    0.854111
     37          1           0       -8.646776    0.962578    0.130532
     38          7           0       -5.317487    0.030313    3.032845
     39          1           0       -5.717425   -0.286125    2.154442
     40          6           0       -3.898178   -0.294562    3.163291
     41          1           0       -3.469011    0.394083    3.894085
     42          6           0       -3.292819   -0.088815    1.765337
     43          6           0       -3.668630   -1.756222    3.620406
     44          1           0       -4.225505   -2.416348    2.946036
     45          1           0       -4.092802   -1.868498    4.624504
     46          8           0       -3.933215   -0.453547    0.773928
     47          6           0       -2.193217   -2.091776    3.596456
     48          6           0       -1.625770   -2.721696    2.480842
     49          1           0       -2.269164   -3.041203    1.664409
     50          6           0       -1.351017   -1.664920    4.631281
     51          1           0       -1.779716   -1.177954    5.505341
     52          6           0       -0.246387   -2.914171    2.396622
     53          1           0        0.179310   -3.395459    1.520760
     54          6           0        0.029358   -1.854947    4.548877
     55          1           0        0.670478   -1.516688    5.358230
     56          6           0        0.584702   -2.475584    3.428727
     57          1           0        1.659513   -2.615781    3.359978
     58          7           0       -2.080885    0.488353    1.727825
     59          1           0       -1.550744    0.604115    2.585859
     60          6           0       -1.291100    0.598591    0.509737
     61          1           0       -1.686267   -0.120006   -0.213687
     62          6           0        0.158211    0.286928    0.880114
     63          6           0       -1.306702    2.038362   -0.064480
     64          1           0       -0.659231    2.067203   -0.951773
     65          1           0       -0.834430    2.696925    0.673620
     66          8           0        0.596534    0.570811    1.996451
     67          6           0       -2.699192    2.586847   -0.419607
     68          1           0       -3.338185    2.475281    0.469088
     69          6           0       -2.585181    4.086822   -0.730988
     70          1           0       -1.972694    4.250662   -1.626479
     71          1           0       -2.113961    4.632502    0.093916
     72          1           0       -3.573947    4.523269   -0.919995
     73          6           0       -3.356795    1.828970   -1.580523
     74          1           0       -2.728964    1.879753   -2.479717
     75          1           0       -4.327484    2.274625   -1.831444
     76          1           0       -3.532463    0.778961   -1.330068
     77          7           0        0.932654   -0.223912   -0.120690
     78          1           0        0.526795   -0.202566   -1.050526
     79          6           0        2.371090    0.062958   -0.101676
     80          1           0        2.723219   -0.154759    0.910372
     81          6           0        2.505246    1.557495   -0.436414
     82          6           0        3.148707   -0.753621   -1.140187
     83          1           0        2.819634   -0.466660   -2.144250
     84          1           0        2.930424   -1.818864   -1.012127
     85          8           0        2.032578    1.999637   -1.482772
     86          6           0        4.651463   -0.488377   -1.014108
     87          1           0        4.851818    0.585021   -0.913318
     88          1           0        5.068485   -0.955820   -0.112910
     89          6           0        5.462046   -0.952432   -2.214962
     90          8           0        4.988174   -1.493909   -3.194069
     91          8           0        6.751045   -0.648579   -2.047599
     92          7           0        3.148805    2.330962    0.468860
     93          1           0        3.551808    1.894750    1.286415
     94          6           0        3.331211    3.768969    0.276723
     95          1           0        2.573978    4.060677   -0.457580
     96          6           0        4.737904    4.042221   -0.304610
     97          6           0        3.053555    4.510736    1.590094
     98          1           0        3.835195    4.292578    2.326538
     99          1           0        3.069766    5.586922    1.404733
    100          8           0        5.544069    4.794362    0.235641
    101          6           0        1.657649    4.081444    2.042298
    102          7           0        1.603768    3.256393    3.134186
    103          1           0        0.786917    2.659191    3.192912
    104          1           0        2.455661    2.840881    3.483461
    105          8           0        0.656780    4.413119    1.418525
    106          7           0        4.980071    3.319538   -1.425996
    107          1           0        4.224139    2.816399   -1.888769
    108          6           0        6.265958    3.216610   -2.088460
    109          1           0        6.585661    4.208042   -2.438130
    110          6           0        6.017044    2.313958   -3.320995
    111          6           0        7.376019    2.656707   -1.137462
    112          1           0        7.231368    3.152824   -0.174260
    113          1           0        7.220328    1.581826   -1.004894
    114          8           0        4.895674    1.885480   -3.571641
    115          6           0        8.769938    2.938047   -1.654088
    116          6           0        9.594012    1.915336   -2.147526
    117          1           0        9.266279    0.880221   -2.095342
    118          6           0        9.225877    4.262028   -1.751914
    119          1           0        8.615952    5.066634   -1.346859
    120          6           0       10.801620    2.202531   -2.783737
    121          1           0       11.389211    1.408203   -3.229115
    122          6           0       10.431588    4.562154   -2.381271
    123          1           0       10.757677    5.596730   -2.475183
    124          8           0       12.331313    3.776084   -3.680857
    125          1           0       12.612205    4.693318   -3.535757
    126          6           0       11.203355    3.529902   -2.926416
    127          7           0        7.103804    2.042756   -4.114977
    128          1           0        8.002315    2.221967   -3.670630
    129          6           0        7.095530    0.831168   -4.987779
    130          1           0        6.275393    0.201049   -4.643380
    131          6           0        8.466230    0.146070   -4.693897
    132          6           0        6.904683    1.117666   -6.497816
    133          1           0        7.891380    1.263042   -6.951768
    134          1           0        6.505243    0.195793   -6.933153
    135          8           0        8.468360   -0.870275   -3.961539
    136          6           0        5.979228    2.305172   -6.853170
    137          1           0        5.327490    2.047845   -7.695703
    138          1           0        5.313883    2.529712   -6.012415
    139          6           0        6.760120    3.572950   -7.258021
    140          1           0        7.228441    3.433936   -8.238876
    141          1           0        6.089644    4.437667   -7.323287
    142          7           0        7.829162    3.829885   -6.274644
    143          1           0        7.630479    3.408765   -5.362782
    144          7           0        9.532468    4.707830   -7.588993
    145          1           0       10.435499    4.581832   -8.020926
    146          1           0        8.891390    5.369930   -7.999789
    147          7           0       10.016323    3.253549   -5.826279
    148          1           0       10.992619    3.522176   -5.788473
    149          1           0        9.754003    2.290261   -5.463302
    150          6           0        9.138835    3.918130   -6.565379
    151          8           0        9.486151    0.731346   -5.160096
    152          1           0        7.316126   -0.892935   -2.864279
 ---------------------------------------------------------------------

 SCF Done:  E(RB3LYP) =  -3586.84490638     A.U. after    3 cycles

 Alpha  occ. eigenvalues --  -19.26740 -19.22822 -19.21555 -19.18740 -19.18679
 Alpha  occ. eigenvalues --  -19.18409 -19.17450 -19.17083 -19.16131 -19.16101
 Alpha  occ. eigenvalues --  -19.14481 -19.12439 -19.12170 -14.59597 -14.49098
 Alpha  occ. eigenvalues --  -14.45665 -14.45045 -14.43056 -14.42729 -14.42394
 Alpha  occ. eigenvalues --  -14.42193 -14.41921 -14.40635 -14.40192 -14.39668
 Alpha  occ. eigenvalues --  -10.43272 -10.40449 -10.40189 -10.38530 -10.35681
 Alpha  occ. eigenvalues --  -10.35244 -10.34625 -10.34095 -10.34078 -10.33761
 Alpha  occ. eigenvalues --  -10.33690 -10.33168 -10.32928 -10.31057 -10.31030
 Alpha  occ. eigenvalues --  -10.30828 -10.30271 -10.29134 -10.29090 -10.29074
 Alpha  occ. eigenvalues --  -10.28817 -10.28679 -10.28425 -10.28408 -10.26309
 Alpha  occ. eigenvalues --  -10.25508 -10.25484 -10.25464 -10.25141 -10.24801
 Alpha  occ. eigenvalues --  -10.24672 -10.24625 -10.24503 -10.24378 -10.24312
 Alpha  occ. eigenvalues --  -10.24241 -10.23694 -10.23590 -10.23396 -10.23344
 Alpha  occ. eigenvalues --  -10.23287 -10.23286 -10.22999 -10.22941 -10.22790
 Alpha  occ. eigenvalues --  -10.22582 -10.22304 -10.22270 -10.21077 -10.21072
 Alpha  occ. eigenvalues --   -1.19127  -1.13790  -1.13262  -1.10912  -1.10427
 Alpha  occ. eigenvalues --   -1.10235  -1.10008  -1.09413  -1.09122  -1.08733
 Alpha  occ. eigenvalues --   -1.07847  -1.07573  -1.05862  -1.05633  -1.01643
 Alpha  occ. eigenvalues --   -1.01490  -0.99380  -0.98890  -0.98723  -0.98569
 Alpha  occ. eigenvalues --   -0.97186  -0.96735  -0.96430  -0.95953  -0.95440
 Alpha  occ. eigenvalues --   -0.94975  -0.91436  -0.90389  -0.89632  -0.86708
 Alpha  occ. eigenvalues --   -0.86552  -0.85534  -0.84860  -0.84136  -0.83278
 Alpha  occ. eigenvalues --   -0.82447  -0.82327  -0.82011  -0.80965  -0.80018
 Alpha  occ. eigenvalues --   -0.79877  -0.78958  -0.78756  -0.78629  -0.77223
 Alpha  occ. eigenvalues --   -0.76398  -0.74207  -0.73857  -0.73190  -0.72859
 Alpha  occ. eigenvalues --   -0.72645  -0.72270  -0.72065  -0.71079  -0.70673
 Alpha  occ. eigenvalues --   -0.70642  -0.69705  -0.69607  -0.68248  -0.67517
 Alpha  occ. eigenvalues --   -0.66595  -0.66430  -0.65976  -0.65914  -0.65599
 Alpha  occ. eigenvalues --   -0.65261  -0.64769  -0.64702  -0.64098  -0.63743
 Alpha  occ. eigenvalues --   -0.63656  -0.63007  -0.62723  -0.62155  -0.61869
 Alpha  occ. eigenvalues --   -0.61761  -0.61054  -0.60414  -0.60097  -0.59757
 Alpha  occ. eigenvalues --   -0.59717  -0.58799  -0.58578  -0.58356  -0.58205
 Alpha  occ. eigenvalues --   -0.57937  -0.57365  -0.57126  -0.56913  -0.56723
 Alpha  occ. eigenvalues --   -0.55730  -0.55330  -0.55062  -0.54793  -0.54518
 Alpha  occ. eigenvalues --   -0.54325  -0.53884  -0.53702  -0.53436  -0.52986
 Alpha  occ. eigenvalues --   -0.52499  -0.52387  -0.52303  -0.52157  -0.51619
 Alpha  occ. eigenvalues --   -0.51404  -0.51159  -0.51140  -0.51108  -0.51024
 Alpha  occ. eigenvalues --   -0.50793  -0.50505  -0.50314  -0.50245  -0.49865
 Alpha  occ. eigenvalues --   -0.49635  -0.49473  -0.49125  -0.48801  -0.48596
 Alpha  occ. eigenvalues --   -0.48369  -0.48284  -0.48137  -0.47871  -0.47847
 Alpha  occ. eigenvalues --   -0.47644  -0.47522  -0.47495  -0.47403  -0.47384
 Alpha  occ. eigenvalues --   -0.47089  -0.46704  -0.46595  -0.46388  -0.46358
 Alpha  occ. eigenvalues --   -0.46059  -0.45877  -0.45721  -0.45677  -0.45431
 Alpha  occ. eigenvalues --   -0.45163  -0.44727  -0.44573  -0.44461  -0.44148
 Alpha  occ. eigenvalues --   -0.44028  -0.43707  -0.43627  -0.43513  -0.43196
 Alpha  occ. eigenvalues --   -0.43048  -0.42625  -0.42514  -0.42367  -0.42298
 Alpha  occ. eigenvalues --   -0.42024  -0.42008  -0.41658  -0.41552  -0.41454
 Alpha  occ. eigenvalues --   -0.41341  -0.41102  -0.40876  -0.40729  -0.40275
 Alpha  occ. eigenvalues --   -0.40085  -0.40017  -0.39681  -0.39628  -0.39483
 Alpha  occ. eigenvalues --   -0.39437  -0.38941  -0.38586  -0.38534  -0.38037
 Alpha  occ. eigenvalues --   -0.37951  -0.37753  -0.37082  -0.37061  -0.36729
 Alpha  occ. eigenvalues --   -0.36570  -0.36545  -0.35639  -0.35563  -0.35239
 Alpha  occ. eigenvalues --   -0.33908  -0.33476  -0.33438  -0.32473  -0.32330
 Alpha  occ. eigenvalues --   -0.32264  -0.31875  -0.31784  -0.31428  -0.30948
 Alpha  occ. eigenvalues --   -0.30558  -0.30159  -0.29838  -0.29664  -0.29631
 Alpha  occ. eigenvalues --   -0.29392  -0.28566  -0.28271  -0.27755  -0.26929
 Alpha  occ. eigenvalues --   -0.26104  -0.25913
 Alpha virt. eigenvalues --   -0.12127  -0.11207  -0.07513  -0.06769  -0.06350
 Alpha virt. eigenvalues --   -0.06214  -0.05815  -0.05335  -0.04910  -0.04456
 Alpha virt. eigenvalues --   -0.04250  -0.04151  -0.03770  -0.02782  -0.02450

 Mulliken charges:
               1
     1  N   -0.764701
     2  H    0.415458
     3  H    0.436098
     4  H    0.408935
     5  C   -0.099935
     6  H    0.214761
     7  C    0.657019
     8  C   -0.124806
     9  H    0.190736
    10  O   -0.553294
    11  C   -0.462103
    12  H    0.138809
    13  H    0.199629
    14  H    0.172785
    15  C   -0.476304
    16  H    0.141722
    17  H    0.188149
    18  H    0.199052
    19  N   -0.609640
    20  H    0.375962
    21  C   -0.073450
    22  H    0.189880
    23  C    0.624540
    24  C   -0.084749
    25  H    0.150536
    26  O   -0.549137
    27  C   -0.299547
    28  H    0.186645
    29  H    0.155969
    30  C   -0.466028
    31  H    0.175839
    32  H    0.131313
    33  H    0.168798
    34  C   -0.462372
    35  H    0.176465
    36  H    0.133091
    37  H    0.153135
    38  N   -0.606195
    39  H    0.367674
    40  C   -0.069520
    41  H    0.184844
    42  C    0.632262
    43  C   -0.347382
    44  H    0.163713
    45  H    0.163640
    46  O   -0.554241
    47  C    0.144261
    48  C   -0.182210
    49  H    0.142969
    50  C   -0.196813
    51  H    0.127847
    52  C   -0.131918
    53  H    0.144530
    54  C   -0.118279
    55  H    0.136635
    56  C   -0.112977
    57  H    0.138034
    58  N   -0.582794
    59  H    0.354391
    60  C   -0.076320
    61  H    0.178551
    62  C    0.639617
    63  C   -0.292356
    64  H    0.163037
    65  H    0.186391
    66  O   -0.556551
    67  C   -0.079269
    68  H    0.118853
    69  C   -0.448326
    70  H    0.150482
    71  H    0.166615
    72  H    0.125810
    73  C   -0.465567
    74  H    0.140221
    75  H    0.132304
    76  H    0.173094
    77  N   -0.593443
    78  H    0.347001
    79  C   -0.053335
    80  H    0.157204
    81  C    0.624656
    82  C   -0.279206
    83  H    0.192735
    84  H    0.160993
    85  O   -0.541490
    86  C   -0.378924
    87  H    0.168997
    88  H    0.163986
    89  C    0.621524
    90  O   -0.485902
    91  O   -0.637675
    92  N   -0.592296
    93  H    0.330115
    94  C   -0.083764
    95  H    0.223697
    96  C    0.628644
    97  C   -0.360758
    98  H    0.153902
    99  H    0.196879
   100  O   -0.533199
   101  C    0.590686
   102  N   -0.724770
   103  H    0.351326
   104  H    0.324361
   105  O   -0.509195
   106  N   -0.652974
   107  H    0.391538
   108  C   -0.023900
   109  H    0.171665
   110  C    0.608877
   111  C   -0.391686
   112  H    0.192144
   113  H    0.194172
   114  O   -0.515094
   115  C    0.114442
   116  C   -0.242870
   117  H    0.186156
   118  C   -0.188775
   119  H    0.152965
   120  C   -0.146795
   121  H    0.175429
   122  C   -0.190179
   123  H    0.122369
   124  O   -0.660559
   125  H    0.409082
   126  C    0.341652
   127  N   -0.707003
   128  H    0.377477
   129  C   -0.031544
   130  H    0.208386
   131  C    0.581067
   132  C   -0.307999
   133  H    0.151475
   134  H    0.170238
   135  O   -0.571432
   136  C   -0.305893
   137  H    0.158323
   138  H    0.186841
   139  C   -0.156632
   140  H    0.159615
   141  H    0.163440
   142  N   -0.597513
   143  H    0.390156
   144  N   -0.744567
   145  H    0.366792
   146  H    0.368649
   147  N   -0.787482
   148  H    0.353203
   149  H    0.449030
   150  C    0.731465
   151  O   -0.594717
   152  H    0.463904
 Sum of Mulliken charges =   1.00000

 Dipole moment (field-independent basis, Debye):
    X=            -29.2049    Y=             23.1805    Z=             14.7320  Tot=             40.0911
 Quadrupole moment (field-independent basis, Debye-Ang):
   XX=             75.9408   YY=           -353.3176   ZZ=           -204.5837
   XY=            -16.9937   XZ=           -320.0105   YZ=            -15.5629

 Normal termination of Gaussian 16 at Sat Aug 13 18:48:37 2022.
