 Gaussian 16, Revision C.01,
 Gaussian 16:  ES64L-G16RevC.01  3-Jul-2019

 ----------------------------------------------------------------------
 # B3LYP/6-31G* empiricaldispersion=gd3 guess=read geom=check nosymm in
 tegral(ultrafinegrid)
 ----------------------------------------------------------------------

 ------------------------------------------------------
 Candidate Structure: Conf:535 Charge calc in gas phase
 ------------------------------------------------------
 Structure from the checkpoint file:  "conf-535.chk"
 Charge =  1 Multiplicity = 1

                          Input orientation:
 ---------------------------------------------------------------------
 Center     Atomic      Atomic             Coordinates (Angstroms)
 Number     Number       Type             X           Y           Z
 ---------------------------------------------------------------------
      1          7           0       -3.665026   -5.572038    6.952862
      2          1           0       -3.542580   -6.587451    6.914303
      3          1           0       -2.800129   -5.109220    6.539835
      4          1           0       -3.813020   -5.297057    7.926698
      5          6           0       -4.751254   -5.062891    6.019947
      6          1           0       -5.406337   -5.902500    5.769722
      7          6           0       -3.912666   -4.598888    4.795798
      8          6           0       -5.565246   -3.935537    6.705047
      9          1           0       -4.862413   -3.123319    6.936289
     10          8           0       -2.702375   -4.412974    4.982706
     11          6           0       -6.636245   -3.377329    5.753054
     12          1           0       -7.283230   -4.178246    5.368926
     13          1           0       -7.278819   -2.682173    6.301036
     14          1           0       -6.182726   -2.823476    4.929447
     15          6           0       -6.223366   -4.441664    8.001598
     16          1           0       -6.917087   -5.265624    7.795526
     17          1           0       -5.514447   -4.782591    8.769174
     18          1           0       -6.795504   -3.631121    8.461441
     19          7           0       -4.537812   -4.486157    3.621450
     20          1           0       -5.547527   -4.556215    3.621572
     21          6           0       -3.937381   -3.736623    2.513431
     22          1           0       -2.871281   -3.981595    2.525870
     23          6           0       -4.019594   -2.224691    2.869634
     24          6           0       -4.562245   -4.205238    1.172924
     25          1           0       -4.550411   -5.302308    1.241408
     26          8           0       -4.357543   -1.853180    3.995183
     27          6           0       -3.740825   -3.844216   -0.089453
     28          1           0       -3.920517   -2.802730   -0.385139
     29          1           0       -4.160182   -4.443326   -0.907257
     30          6           0       -6.018287   -3.737792    1.020536
     31          1           0       -6.071509   -2.644841    0.971698
     32          1           0       -6.664711   -4.067918    1.845056
     33          1           0       -6.452331   -4.137953    0.098846
     34          6           0       -2.232573   -4.108817    0.004773
     35          1           0       -1.765683   -3.980036   -0.976450
     36          1           0       -1.719378   -3.424408    0.689721
     37          1           0       -2.027155   -5.132813    0.340157
     38          7           0       -3.627827   -1.389586    1.893117
     39          1           0       -3.269084   -1.751784    1.016328
     40          6           0       -3.205884   -0.017679    2.124637
     41          1           0       -4.033664    0.563547    2.544777
     42          6           0       -2.815684    0.529380    0.738464
     43          6           0       -1.992909    0.037182    3.109070
     44          1           0       -2.376511   -0.172272    4.109993
     45          1           0       -1.588083    1.054866    3.130749
     46          8           0       -2.676781   -0.230260   -0.222343
     47          6           0       -0.925257   -0.969464    2.744515
     48          6           0       -0.786919   -2.149272    3.485613
     49          1           0       -1.425696   -2.315947    4.347494
     50          6           0       -0.098292   -0.782195    1.629349
     51          1           0       -0.174636    0.127158    1.042062
     52          6           0        0.154378   -3.117189    3.125399
     53          1           0        0.239670   -4.025641    3.716042
     54          6           0        0.841628   -1.745844    1.269435
     55          1           0        1.476020   -1.582014    0.407257
     56          6           0        0.977561   -2.919197    2.014233
     57          1           0        1.717421   -3.659410    1.723940
     58          7           0       -2.577040    1.860171    0.688705
     59          1           0       -2.619421    2.401781    1.545668
     60          6           0       -1.773350    2.484501   -0.369819
     61          1           0       -1.532434    1.693733   -1.082338
     62          6           0       -0.513360    2.997848    0.348334
     63          6           0       -2.514596    3.636917   -1.061398
     64          1           0       -1.853185    4.039843   -1.842145
     65          1           0       -2.654218    4.438724   -0.325453
     66          8           0       -0.628154    3.731657    1.330826
     67          6           0       -3.868190    3.250615   -1.684185
     68          1           0       -4.514722    2.889297   -0.871747
     69          6           0       -4.525919    4.493361   -2.300704
     70          1           0       -3.921586    4.884293   -3.129448
     71          1           0       -4.640502    5.296314   -1.562917
     72          1           0       -5.519183    4.255316   -2.697751
     73          6           0       -3.735956    2.124916   -2.721324
     74          1           0       -3.029528    2.407318   -3.513757
     75          1           0       -4.702707    1.926717   -3.198327
     76          1           0       -3.391999    1.188787   -2.269020
     77          7           0        0.670463    2.531678   -0.110039
     78          1           0        0.729682    2.004882   -0.975848
     79          6           0        1.958172    2.884137    0.471257
     80          1           0        1.893871    3.900514    0.874126
     81          6           0        3.004137    2.796596   -0.652567
     82          6           0        2.383257    1.889564    1.581606
     83          1           0        3.436449    2.053647    1.833289
     84          1           0        2.316204    0.882038    1.162656
     85          8           0        2.775556    2.153177   -1.685404
     86          6           0        1.537595    1.975860    2.854268
     87          1           0        1.755224    2.898872    3.405842
     88          1           0        0.472318    2.028381    2.626808
     89          6           0        1.705142    0.818145    3.817508
     90          8           0        0.980908    0.614789    4.767665
     91          8           0        2.750205    0.013555    3.506592
     92          7           0        4.178292    3.388616   -0.368721
     93          1           0        4.334222    3.835650    0.538762
     94          6           0        5.411736    3.166140   -1.129981
     95          1           0        5.178823    3.260875   -2.195910
     96          6           0        5.940728    1.741840   -0.829640
     97          6           0        6.461996    4.212185   -0.727913
     98          1           0        7.384103    4.018221   -1.281802
     99          1           0        6.099270    5.205077   -1.016002
    100          8           0        6.829679    1.550988   -0.001651
    101          6           0        6.706633    4.255167    0.783081
    102          7           0        8.000574    4.182992    1.191033
    103          1           0        8.134569    4.097075    2.191593
    104          1           0        8.653463    3.666704    0.617290
    105          8           0        5.776314    4.444709    1.571161
    106          7           0        5.314280    0.759536   -1.521772
    107          1           0        4.503153    1.012499   -2.081082
    108          6           0        5.372864   -0.631051   -1.103652
    109          1           0        6.320233   -0.787853   -0.583415
    110          6           0        5.269757   -1.520803   -2.345556
    111          6           0        4.189670   -0.934643   -0.128117
    112          1           0        4.337144   -0.315584    0.763245
    113          1           0        3.272049   -0.594234   -0.622974
    114          8           0        4.513999   -1.170532   -3.274276
    115          6           0        4.131659   -2.399311    0.207748
    116          6           0        3.386597   -3.280128   -0.588163
    117          1           0        2.705043   -2.873378   -1.333921
    118          6           0        4.999338   -2.938853    1.166261
    119          1           0        5.568913   -2.268041    1.806882
    120          6           0        3.575957   -4.656072   -0.506434
    121          1           0        3.078053   -5.337100   -1.187959
    122          6           0        5.209428   -4.314811    1.245135
    123          1           0        5.943154   -4.736618    1.924839
    124          8           0        4.936067   -6.480481    0.259657
    125          1           0        5.443999   -6.513122   -0.590605
    126          6           0        4.556060   -5.171355    0.352357
    127          7           0        5.978914   -2.664867   -2.349045
    128          1           0        6.440520   -2.991503   -1.505256
    129          6           0        5.781131   -3.663608   -3.398065
    130          1           0        4.851388   -3.382045   -3.856354
    131          6           0        5.588962   -5.087422   -2.800478
    132          6           0        6.911143   -3.607328   -4.446808
    133          1           0        7.123296   -2.554345   -4.676028
    134          1           0        7.815576   -4.025779   -3.991076
    135          8           0        4.674687   -5.800989   -3.320193
    136          6           0        6.584970   -4.375358   -5.740572
    137          1           0        7.515995   -4.631572   -6.260664
    138          1           0        6.113458   -5.327949   -5.479506
    139          6           0        5.740973   -3.605802   -6.780832
    140          1           0        6.324452   -2.771275   -7.178806
    141          1           0        5.512946   -4.256599   -7.633724
    142          7           0        4.485005   -2.991966   -6.295476
    143          1           0        4.456592   -1.980928   -6.244991
    144          7           0        3.454926   -4.974252   -5.540327
    145          1           0        3.737917   -5.379455   -4.585481
    146          1           0        3.955244   -5.447224   -6.284468
    147          7           0        2.765916   -2.904057   -4.754304
    148          1           0        2.078732   -3.436584   -4.235876
    149          1           0        3.193237   -2.111689   -4.257214
    150          6           0        3.572702   -3.632873   -5.552394
    151          8           0        6.352030   -5.402898   -1.864350
    152          1           0        2.727553   -0.728497    4.139424
 ---------------------------------------------------------------------

 SCF Done:  E(RB3LYP) =  -3586.84549639     A.U. after    2 cycles

 Alpha  occ. eigenvalues --  -19.26408 -19.24579 -19.20599 -19.19909 -19.19208
 Alpha  occ. eigenvalues --  -19.18452 -19.18378 -19.18118 -19.17796 -19.17547
 Alpha  occ. eigenvalues --  -19.16602 -19.13733 -19.13024 -14.59309 -14.49140
 Alpha  occ. eigenvalues --  -14.46357 -14.44273 -14.43843 -14.43696 -14.42986
 Alpha  occ. eigenvalues --  -14.42419 -14.42149 -14.41839 -14.41249 -14.41054
 Alpha  occ. eigenvalues --  -10.43118 -10.40710 -10.40130 -10.37641 -10.36946
 Alpha  occ. eigenvalues --  -10.36812 -10.35916 -10.35407 -10.35390 -10.35172
 Alpha  occ. eigenvalues --  -10.34551 -10.33738 -10.33178 -10.31528 -10.31344
 Alpha  occ. eigenvalues --  -10.31217 -10.30753 -10.30516 -10.30179 -10.29921
 Alpha  occ. eigenvalues --  -10.29100 -10.29078 -10.28769 -10.27225 -10.26669
 Alpha  occ. eigenvalues --  -10.26639 -10.26454 -10.26418 -10.26120 -10.25661
 Alpha  occ. eigenvalues --  -10.25649 -10.25309 -10.25110 -10.24848 -10.24722
 Alpha  occ. eigenvalues --  -10.24629 -10.24624 -10.24533 -10.24511 -10.24491
 Alpha  occ. eigenvalues --  -10.24361 -10.24348 -10.24176 -10.23535 -10.23313
 Alpha  occ. eigenvalues --  -10.23152 -10.22225 -10.22112 -10.22053 -10.21987
 Alpha  occ. eigenvalues --   -1.18946  -1.15210  -1.13386  -1.12516  -1.11626
 Alpha  occ. eigenvalues --   -1.11076  -1.10105  -1.09972  -1.09633  -1.09449
 Alpha  occ. eigenvalues --   -1.08893  -1.06612  -1.06096  -1.05759  -1.05204
 Alpha  occ. eigenvalues --   -1.01053  -1.00160  -0.99523  -0.99488  -0.99256
 Alpha  occ. eigenvalues --   -0.98308  -0.98113  -0.97653  -0.96464  -0.96124
 Alpha  occ. eigenvalues --   -0.94617  -0.91561  -0.90634  -0.89549  -0.87489
 Alpha  occ. eigenvalues --   -0.86538  -0.86194  -0.86093  -0.85405  -0.84730
 Alpha  occ. eigenvalues --   -0.83348  -0.82204  -0.81813  -0.80797  -0.80543
 Alpha  occ. eigenvalues --   -0.80445  -0.80187  -0.79356  -0.78626  -0.78381
 Alpha  occ. eigenvalues --   -0.77483  -0.74431  -0.74395  -0.73650  -0.73400
 Alpha  occ. eigenvalues --   -0.73305  -0.73028  -0.72028  -0.71725  -0.71043
 Alpha  occ. eigenvalues --   -0.70593  -0.69792  -0.69482  -0.69349  -0.67654
 Alpha  occ. eigenvalues --   -0.66965  -0.66751  -0.66488  -0.66274  -0.65834
 Alpha  occ. eigenvalues --   -0.65676  -0.65328  -0.65282  -0.65162  -0.64940
 Alpha  occ. eigenvalues --   -0.64422  -0.64041  -0.63573  -0.63474  -0.63146
 Alpha  occ. eigenvalues --   -0.62433  -0.62265  -0.62179  -0.61111  -0.60382
 Alpha  occ. eigenvalues --   -0.59684  -0.59449  -0.58605  -0.58229  -0.57913
 Alpha  occ. eigenvalues --   -0.57755  -0.57356  -0.56937  -0.56153  -0.56135
 Alpha  occ. eigenvalues --   -0.55994  -0.55815  -0.55536  -0.54916  -0.54743
 Alpha  occ. eigenvalues --   -0.54619  -0.54252  -0.54090  -0.53976  -0.53583
 Alpha  occ. eigenvalues --   -0.53415  -0.53175  -0.53086  -0.52735  -0.52540
 Alpha  occ. eigenvalues --   -0.52367  -0.52034  -0.51944  -0.51694  -0.51603
 Alpha  occ. eigenvalues --   -0.51450  -0.51267  -0.51184  -0.50996  -0.50841
 Alpha  occ. eigenvalues --   -0.50714  -0.50669  -0.50293  -0.50164  -0.49780
 Alpha  occ. eigenvalues --   -0.49580  -0.49136  -0.48784  -0.48705  -0.48516
 Alpha  occ. eigenvalues --   -0.48439  -0.48125  -0.47911  -0.47685  -0.47489
 Alpha  occ. eigenvalues --   -0.47350  -0.47221  -0.47026  -0.46806  -0.46516
 Alpha  occ. eigenvalues --   -0.46488  -0.46356  -0.46184  -0.45998  -0.45936
 Alpha  occ. eigenvalues --   -0.45862  -0.45613  -0.45544  -0.45432  -0.45159
 Alpha  occ. eigenvalues --   -0.45010  -0.44744  -0.44550  -0.44296  -0.44180
 Alpha  occ. eigenvalues --   -0.44116  -0.43933  -0.43849  -0.43597  -0.43418
 Alpha  occ. eigenvalues --   -0.43056  -0.42958  -0.42664  -0.42485  -0.42237
 Alpha  occ. eigenvalues --   -0.42022  -0.41900  -0.41613  -0.41520  -0.41449
 Alpha  occ. eigenvalues --   -0.41278  -0.41175  -0.40867  -0.40723  -0.40519
 Alpha  occ. eigenvalues --   -0.40415  -0.40389  -0.39646  -0.39442  -0.38891
 Alpha  occ. eigenvalues --   -0.38850  -0.38527  -0.37868  -0.37710  -0.37604
 Alpha  occ. eigenvalues --   -0.37187  -0.36502  -0.36357  -0.35136  -0.34814
 Alpha  occ. eigenvalues --   -0.34742  -0.34351  -0.33884  -0.33578  -0.33307
 Alpha  occ. eigenvalues --   -0.32949  -0.32841  -0.32715  -0.32443  -0.31568
 Alpha  occ. eigenvalues --   -0.31425  -0.31233  -0.31098  -0.30717  -0.30619
 Alpha  occ. eigenvalues --   -0.30196  -0.29909  -0.29232  -0.28769  -0.27649
 Alpha  occ. eigenvalues --   -0.27445  -0.25894
 Alpha virt. eigenvalues --   -0.12062  -0.10544  -0.08238  -0.07655  -0.06516
 Alpha virt. eigenvalues --   -0.06054  -0.05990  -0.05921  -0.05720  -0.05006
 Alpha virt. eigenvalues --   -0.04942  -0.04307  -0.03861  -0.03779  -0.03653

 Mulliken charges:
               1
     1  N   -0.760299
     2  H    0.414409
     3  H    0.434447
     4  H    0.409546
     5  C   -0.118008
     6  H    0.200411
     7  C    0.676623
     8  C   -0.096709
     9  H    0.184464
    10  O   -0.537139
    11  C   -0.501237
    12  H    0.143176
    13  H    0.185320
    14  H    0.218977
    15  C   -0.474357
    16  H    0.172292
    17  H    0.136130
    18  H    0.202101
    19  N   -0.587778
    20  H    0.352815
    21  C   -0.107138
    22  H    0.224495
    23  C    0.640733
    24  C   -0.099072
    25  H    0.147584
    26  O   -0.547117
    27  C   -0.298159
    28  H    0.171726
    29  H    0.154403
    30  C   -0.471740
    31  H    0.175443
    32  H    0.126038
    33  H    0.174359
    34  C   -0.473030
    35  H    0.163215
    36  H    0.177175
    37  H    0.147406
    38  N   -0.630498
    39  H    0.396640
    40  C   -0.042929
    41  H    0.182632
    42  C    0.629377
    43  C   -0.393218
    44  H    0.189772
    45  H    0.175877
    46  O   -0.543038
    47  C    0.174598
    48  C   -0.197483
    49  H    0.144992
    50  C   -0.195653
    51  H    0.132593
    52  C   -0.152119
    53  H    0.128606
    54  C   -0.124549
    55  H    0.136634
    56  C   -0.149894
    57  H    0.164906
    58  N   -0.597854
    59  H    0.349841
    60  C   -0.073028
    61  H    0.179507
    62  C    0.619957
    63  C   -0.264255
    64  H    0.143263
    65  H    0.158560
    66  O   -0.544496
    67  C   -0.067360
    68  H    0.127975
    69  C   -0.443668
    70  H    0.144407
    71  H    0.145430
    72  H    0.147480
    73  C   -0.471074
    74  H    0.136324
    75  H    0.145527
    76  H    0.170537
    77  N   -0.608315
    78  H    0.354787
    79  C   -0.064074
    80  H    0.191093
    81  C    0.628027
    82  C   -0.279714
    83  H    0.175555
    84  H    0.173019
    85  O   -0.563395
    86  C   -0.376743
    87  H    0.194522
    88  H    0.200172
    89  C    0.602723
    90  O   -0.480301
    91  O   -0.563794
    92  N   -0.621662
    93  H    0.391307
    94  C   -0.072606
    95  H    0.179928
    96  C    0.626563
    97  C   -0.372937
    98  H    0.166298
    99  H    0.192424
   100  O   -0.537314
   101  C    0.621885
   102  N   -0.720497
   103  H    0.347259
   104  H    0.351265
   105  O   -0.533019
   106  N   -0.603534
   107  H    0.374837
   108  C   -0.063339
   109  H    0.186408
   110  C    0.645972
   111  C   -0.373588
   112  H    0.180177
   113  H    0.150327
   114  O   -0.604233
   115  C    0.151170
   116  C   -0.196835
   117  H    0.102620
   118  C   -0.215477
   119  H    0.131794
   120  C   -0.177763
   121  H    0.147944
   122  C   -0.158315
   123  H    0.142518
   124  O   -0.696428
   125  H    0.439736
   126  C    0.358874
   127  N   -0.590539
   128  H    0.359741
   129  C   -0.036391
   130  H    0.125225
   131  C    0.636673
   132  C   -0.266782
   133  H    0.137812
   134  H    0.173531
   135  O   -0.620149
   136  C   -0.294960
   137  H    0.164299
   138  H    0.169825
   139  C   -0.165479
   140  H    0.176708
   141  H    0.175694
   142  N   -0.541133
   143  H    0.362818
   144  N   -0.736610
   145  H    0.414759
   146  H    0.341689
   147  N   -0.730787
   148  H    0.363302
   149  H    0.408121
   150  C    0.622970
   151  O   -0.584326
   152  H    0.412842
 Sum of Mulliken charges =   1.00000

 Dipole moment (field-independent basis, Debye):
    X=            -12.4303    Y=            -15.6924    Z=             11.8222  Tot=             23.2493
 Quadrupole moment (field-independent basis, Debye-Ang):
   XX=           -288.1251   YY=           -353.3691   ZZ=           -210.7978
   XY=            131.5595   XZ=           -157.6181   YZ=           -116.1363

 Normal termination of Gaussian 16 at Sat Aug 13 18:48:07 2022.
