 Gaussian 16, Revision C.01,
 Gaussian 16:  ES64L-G16RevC.01  3-Jul-2019

 ----------------------------------------------------------------------
 # B3LYP/6-31G* empiricaldispersion=gd3 guess=read geom=check nosymm in
 tegral(ultrafinegrid)
 ----------------------------------------------------------------------

 -----------------------------------------------------
 Candidate Structure: Conf:34 Charge calc in gas phase
 -----------------------------------------------------
 Structure from the checkpoint file:  "conf-34.chk"
 Charge =  1 Multiplicity = 1

                          Input orientation:
 ---------------------------------------------------------------------
 Center     Atomic      Atomic             Coordinates (Angstroms)
 Number     Number       Type             X           Y           Z
 ---------------------------------------------------------------------
      1          7           0       -6.266963   -2.320074    7.700556
      2          1           0       -7.216338   -2.078177    7.994079
      3          1           0       -6.306884   -3.007892    6.885305
      4          1           0       -5.775418   -2.734250    8.496810
      5          6           0       -5.513986   -1.158827    7.078463
      6          1           0       -6.133750   -0.264931    7.186559
      7          6           0       -5.415304   -1.584002    5.588310
      8          6           0       -4.135653   -0.940236    7.742769
      9          1           0       -3.682520   -0.112132    7.182632
     10          8           0       -5.789868   -2.727962    5.286772
     11          6           0       -4.284207   -0.492876    9.204586
     12          1           0       -4.698805   -1.285506    9.842949
     13          1           0       -3.304186   -0.240381    9.619261
     14          1           0       -4.926296    0.389835    9.298085
     15          6           0       -3.215047   -2.162576    7.599368
     16          1           0       -3.587365   -3.035483    8.152957
     17          1           0       -3.080937   -2.458495    6.554351
     18          1           0       -2.229236   -1.929941    8.011052
     19          7           0       -4.912868   -0.680512    4.758657
     20          1           0       -4.530979    0.200138    5.101934
     21          6           0       -4.535332   -0.931056    3.363648
     22          1           0       -4.488389   -2.013887    3.212592
     23          6           0       -3.153327   -0.263401    3.238986
     24          6           0       -5.556455   -0.299122    2.369862
     25          1           0       -5.563305    0.781278    2.575600
     26          8           0       -2.920437    0.746498    3.914266
     27          6           0       -6.973091   -0.852019    2.628736
     28          1           0       -7.206991   -0.753997    3.695688
     29          1           0       -6.982648   -1.928782    2.410425
     30          6           0       -5.118757   -0.514026    0.912592
     31          1           0       -5.052884   -1.585092    0.677766
     32          1           0       -4.158253   -0.051125    0.676651
     33          1           0       -5.850028   -0.075347    0.230054
     34          6           0       -8.072040   -0.142847    1.828306
     35          1           0       -9.059977   -0.509002    2.126701
     36          1           0       -8.050131    0.940107    2.000617
     37          1           0       -7.974669   -0.310729    0.751716
     38          7           0       -2.272864   -0.813872    2.379903
     39          1           0       -2.598583   -1.552154    1.766574
     40          6           0       -1.083715   -0.066110    1.916431
     41          1           0       -0.682732    0.459798    2.785342
     42          6           0       -1.637185    0.920256    0.864358
     43          6           0       -0.030726   -1.019063    1.329892
     44          1           0       -0.375283   -1.331167    0.337215
     45          1           0        0.014743   -1.907715    1.970068
     46          8           0       -1.770809    0.574840   -0.311198
     47          6           0        1.338181   -0.371662    1.253049
     48          6           0        1.620967    0.619210    0.300684
     49          1           0        0.881475    0.883264   -0.451090
     50          6           0        2.332473   -0.726873    2.175165
     51          1           0        2.126727   -1.501476    2.912122
     52          6           0        2.862494    1.262385    0.302841
     53          1           0        3.067840    2.033344   -0.431402
     54          6           0        3.583236   -0.106120    2.153715
     55          1           0        4.350379   -0.401294    2.864738
     56          6           0        3.849657    0.901520    1.224444
     57          1           0        4.825320    1.375483    1.206753
     58          7           0       -2.101941    2.093415    1.348247
     59          1           0       -2.013166    2.281393    2.339060
     60          6           0       -2.973459    2.971760    0.553108
     61          1           0       -3.466552    2.322263   -0.177063
     62          6           0       -2.102092    3.996660   -0.217461
     63          6           0       -3.993953    3.657103    1.462768
     64          1           0       -3.467666    4.425708    2.040238
     65          1           0       -4.382301    2.913196    2.173999
     66          8           0       -2.105686    5.193927    0.053812
     67          6           0       -5.172556    4.306991    0.714313
     68          1           0       -4.751197    4.956147   -0.063247
     69          6           0       -6.082628    3.261726    0.051034
     70          1           0       -6.514627    2.589991    0.806536
     71          1           0       -5.550449    2.642882   -0.680246
     72          1           0       -6.913694    3.744643   -0.474812
     73          6           0       -5.980579    5.186098    1.678439
     74          1           0       -6.396995    4.585439    2.499345
     75          1           0       -6.818167    5.670479    1.164057
     76          1           0       -5.354826    5.970689    2.117963
     77          7           0       -1.328669    3.428262   -1.173618
     78          1           0       -1.327464    2.413218   -1.274134
     79          6           0       -0.180378    4.106362   -1.761271
     80          1           0       -0.507803    5.035813   -2.242398
     81          6           0        0.405784    3.124969   -2.781176
     82          6           0        0.866930    4.418527   -0.659952
     83          1           0        1.177010    3.473078   -0.207405
     84          1           0        0.351084    4.991853    0.114351
     85          8           0        0.291913    1.910954   -2.624129
     86          6           0        2.101900    5.188911   -1.124350
     87          1           0        2.627381    4.652404   -1.922380
     88          1           0        1.850882    6.189307   -1.498741
     89          6           0        3.113008    5.325506   -0.008410
     90          8           0        3.099058    4.719018    1.040396
     91          8           0        4.094010    6.202368   -0.336608
     92          7           0        1.104881    3.639112   -3.833324
     93          1           0        1.328215    4.625550   -3.825528
     94          6           0        2.004032    2.739822   -4.547628
     95          1           0        1.409471    1.978679   -5.057950
     96          6           0        2.953085    2.064710   -3.531289
     97          6           0        2.851581    3.491367   -5.593254
     98          1           0        2.211347    3.854023   -6.402061
     99          1           0        3.355156    4.344353   -5.123047
    100          8           0        3.445454    2.714962   -2.606689
    101          6           0        3.845516    2.463598   -6.144976
    102          7           0        5.144633    2.628551   -5.767540
    103          1           0        5.700321    1.776776   -5.733609
    104          1           0        5.342699    3.269094   -5.009624
    105          8           0        3.444062    1.506405   -6.797834
    106          7           0        3.235074    0.761890   -3.741268
    107          1           0        2.983772    0.341352   -4.627842
    108          6           0        4.150088    0.068740   -2.850436
    109          1           0        3.833238    0.300874   -1.832582
    110          6           0        5.614059    0.504410   -3.032691
    111          6           0        4.067751   -1.458838   -3.057294
    112          1           0        3.059938   -1.791035   -2.780786
    113          1           0        4.217245   -1.678060   -4.120784
    114          8           0        6.181377    0.423954   -4.132413
    115          6           0        5.135251   -2.152091   -2.237420
    116          6           0        6.249076   -2.725544   -2.861581
    117          1           0        6.296596   -2.753882   -3.946342
    118          6           0        5.112873   -2.096741   -0.837457
    119          1           0        4.275645   -1.631852   -0.322903
    120          6           0        7.311459   -3.233251   -2.116621
    121          1           0        8.164636   -3.698891   -2.601679
    122          6           0        6.181077   -2.572708   -0.080086
    123          1           0        6.170258   -2.463957    1.001626
    124          8           0        8.388133   -3.610386   -0.041993
    125          1           0        8.240635   -3.506920    0.912008
    126          6           0        7.280816   -3.140826   -0.725493
    127          7           0        6.225666    0.865507   -1.895778
    128          1           0        5.746163    0.813994   -0.998676
    129          6           0        7.668281    0.895141   -1.742026
    130          1           0        8.043288   -0.066708   -2.119610
    131          6           0        7.975551    0.893446   -0.202696
    132          6           0        8.342763    2.036328   -2.556818
    133          1           0        7.545744    2.649270   -2.985730
    134          1           0        8.914298    2.686376   -1.882810
    135          8           0        7.015685    0.761910    0.572220
    136          6           0        9.246242    1.527896   -3.699444
    137          1           0        8.742338    0.681744   -4.181038
    138          1           0        9.357585    2.303723   -4.467477
    139          6           0       10.665166    1.144928   -3.235020
    140          1           0       11.228226    0.630122   -4.022618
    141          1           0       11.232283    2.051590   -3.000183
    142          7           0       10.665665    0.348033   -2.008888
    143          1           0       10.247257    0.823902   -1.162990
    144          7           0       10.693999   -1.791587   -2.980772
    145          1           0       10.515569   -2.778404   -2.870953
    146          1           0       10.607604   -1.421070   -3.914364
    147          7           0       10.325891   -1.497956   -0.693849
    148          1           0        9.888462   -2.412687   -0.609375
    149          1           0       10.007520   -0.806722   -0.003423
    150          6           0       10.538719   -0.970493   -1.914955
    151          8           0        9.214071    0.964963    0.110478
    152          1           0        4.725320    6.196484    0.407506
 ---------------------------------------------------------------------

 SCF Done:  E(RB3LYP) =  -3586.84679774     A.U. after    2 cycles

 Alpha  occ. eigenvalues --  -19.27643 -19.24815 -19.22998 -19.22754 -19.19064
 Alpha  occ. eigenvalues --  -19.17492 -19.17146 -19.16847 -19.16206 -19.15525
 Alpha  occ. eigenvalues --  -19.15167 -19.12583 -19.11988 -14.60517 -14.50255
 Alpha  occ. eigenvalues --  -14.46957 -14.44693 -14.43415 -14.41970 -14.41524
 Alpha  occ. eigenvalues --  -14.41402 -14.40915 -14.39769 -14.39014 -14.38383
 Alpha  occ. eigenvalues --  -10.44263 -10.41259 -10.39895 -10.39264 -10.36042
 Alpha  occ. eigenvalues --  -10.35363 -10.35283 -10.35039 -10.34313 -10.33674
 Alpha  occ. eigenvalues --  -10.33333 -10.33221 -10.31905 -10.31645 -10.31592
 Alpha  occ. eigenvalues --  -10.31396 -10.30499 -10.30357 -10.29636 -10.29192
 Alpha  occ. eigenvalues --  -10.29080 -10.28527 -10.28435 -10.27365 -10.27365
 Alpha  occ. eigenvalues --  -10.26301 -10.25800 -10.25556 -10.25424 -10.25373
 Alpha  occ. eigenvalues --  -10.24340 -10.24317 -10.24317 -10.24314 -10.24282
 Alpha  occ. eigenvalues --  -10.24191 -10.24187 -10.24133 -10.23894 -10.23404
 Alpha  occ. eigenvalues --  -10.23365 -10.23334 -10.23185 -10.22891 -10.22790
 Alpha  occ. eigenvalues --  -10.22550 -10.22507 -10.22418 -10.21959 -10.21870
 Alpha  occ. eigenvalues --   -1.20057  -1.15042  -1.14342  -1.13592  -1.12214
 Alpha  occ. eigenvalues --   -1.11085  -1.10049  -1.08597  -1.08112  -1.07837
 Alpha  occ. eigenvalues --   -1.07291  -1.07005  -1.06643  -1.05365  -1.04627
 Alpha  occ. eigenvalues --   -1.03054  -0.99619  -0.98239  -0.98031  -0.97419
 Alpha  occ. eigenvalues --   -0.96778  -0.96714  -0.96165  -0.95881  -0.95027
 Alpha  occ. eigenvalues --   -0.94253  -0.91686  -0.90688  -0.89850  -0.87468
 Alpha  occ. eigenvalues --   -0.87080  -0.85833  -0.85274  -0.84256  -0.83563
 Alpha  occ. eigenvalues --   -0.83363  -0.82849  -0.82635  -0.81113  -0.80118
 Alpha  occ. eigenvalues --   -0.80025  -0.78790  -0.78378  -0.78100  -0.77539
 Alpha  occ. eigenvalues --   -0.77137  -0.74985  -0.74625  -0.73863  -0.73680
 Alpha  occ. eigenvalues --   -0.72792  -0.72712  -0.72517  -0.72167  -0.71638
 Alpha  occ. eigenvalues --   -0.70495  -0.70198  -0.69396  -0.69190  -0.67933
 Alpha  occ. eigenvalues --   -0.67526  -0.67439  -0.66466  -0.65679  -0.65216
 Alpha  occ. eigenvalues --   -0.65082  -0.64772  -0.64402  -0.64117  -0.63233
 Alpha  occ. eigenvalues --   -0.63048  -0.62716  -0.62298  -0.62144  -0.61861
 Alpha  occ. eigenvalues --   -0.61330  -0.60973  -0.60830  -0.60731  -0.60349
 Alpha  occ. eigenvalues --   -0.59874  -0.59525  -0.59345  -0.58671  -0.58620
 Alpha  occ. eigenvalues --   -0.57804  -0.56992  -0.56893  -0.56842  -0.56312
 Alpha  occ. eigenvalues --   -0.55840  -0.55673  -0.55311  -0.55087  -0.54895
 Alpha  occ. eigenvalues --   -0.54685  -0.54473  -0.53893  -0.53562  -0.53468
 Alpha  occ. eigenvalues --   -0.53133  -0.52986  -0.52773  -0.52553  -0.52461
 Alpha  occ. eigenvalues --   -0.52014  -0.51665  -0.51636  -0.51454  -0.51347
 Alpha  occ. eigenvalues --   -0.50985  -0.50849  -0.50486  -0.50310  -0.50121
 Alpha  occ. eigenvalues --   -0.49967  -0.49662  -0.49457  -0.49307  -0.49030
 Alpha  occ. eigenvalues --   -0.49004  -0.48878  -0.48733  -0.48302  -0.48227
 Alpha  occ. eigenvalues --   -0.48189  -0.48057  -0.47797  -0.47722  -0.47473
 Alpha  occ. eigenvalues --   -0.47294  -0.47141  -0.46772  -0.46600  -0.46487
 Alpha  occ. eigenvalues --   -0.46281  -0.46153  -0.46064  -0.45785  -0.45613
 Alpha  occ. eigenvalues --   -0.45084  -0.45042  -0.44861  -0.44662  -0.44493
 Alpha  occ. eigenvalues --   -0.44460  -0.44191  -0.44026  -0.43780  -0.43624
 Alpha  occ. eigenvalues --   -0.43550  -0.43278  -0.43129  -0.42976  -0.42886
 Alpha  occ. eigenvalues --   -0.42466  -0.42308  -0.42153  -0.41787  -0.41654
 Alpha  occ. eigenvalues --   -0.41613  -0.41587  -0.41290  -0.41136  -0.40796
 Alpha  occ. eigenvalues --   -0.40624  -0.40372  -0.39820  -0.39711  -0.39410
 Alpha  occ. eigenvalues --   -0.39299  -0.39070  -0.38816  -0.38767  -0.38722
 Alpha  occ. eigenvalues --   -0.38498  -0.38100  -0.38045  -0.37911  -0.37686
 Alpha  occ. eigenvalues --   -0.37448  -0.37323  -0.37269  -0.36320  -0.35074
 Alpha  occ. eigenvalues --   -0.35014  -0.33812  -0.32837  -0.32488  -0.32100
 Alpha  occ. eigenvalues --   -0.31790  -0.31297  -0.31240  -0.31017  -0.30658
 Alpha  occ. eigenvalues --   -0.30062  -0.29664  -0.29167  -0.29068  -0.28955
 Alpha  occ. eigenvalues --   -0.28549  -0.28422  -0.28213  -0.28031  -0.27184
 Alpha  occ. eigenvalues --   -0.26934  -0.26118
 Alpha virt. eigenvalues --   -0.12970  -0.12010  -0.09407  -0.07533  -0.05768
 Alpha virt. eigenvalues --   -0.05704  -0.04950  -0.04673  -0.04488  -0.04387
 Alpha virt. eigenvalues --   -0.04189  -0.03852  -0.03091  -0.02808  -0.02476

 Mulliken charges:
               1
     1  N   -0.762459
     2  H    0.417656
     3  H    0.436015
     4  H    0.411038
     5  C   -0.103693
     6  H    0.215471
     7  C    0.651696
     8  C   -0.127751
     9  H    0.193149
    10  O   -0.544778
    11  C   -0.463472
    12  H    0.139731
    13  H    0.202872
    14  H    0.174082
    15  C   -0.475658
    16  H    0.142296
    17  H    0.186408
    18  H    0.201694
    19  N   -0.592925
    20  H    0.371650
    21  C   -0.082215
    22  H    0.184280
    23  C    0.635295
    24  C   -0.078778
    25  H    0.152794
    26  O   -0.558648
    27  C   -0.252005
    28  H    0.118075
    29  H    0.149532
    30  C   -0.505952
    31  H    0.146910
    32  H    0.187884
    33  H    0.184265
    34  C   -0.458685
    35  H    0.157420
    36  H    0.156593
    37  H    0.166212
    38  N   -0.598025
    39  H    0.351645
    40  C   -0.049249
    41  H    0.188098
    42  C    0.639257
    43  C   -0.380482
    44  H    0.185265
    45  H    0.142979
    46  O   -0.547308
    47  C    0.146197
    48  C   -0.223028
    49  H    0.185445
    50  C   -0.186735
    51  H    0.109559
    52  C   -0.171794
    53  H    0.189813
    54  C   -0.148830
    55  H    0.136364
    56  C   -0.141849
    57  H    0.193547
    58  N   -0.598571
    59  H    0.357387
    60  C   -0.073627
    61  H    0.178682
    62  C    0.642493
    63  C   -0.286357
    64  H    0.165650
    65  H    0.120896
    66  O   -0.532748
    67  C   -0.078343
    68  H    0.163217
    69  C   -0.463867
    70  H    0.128821
    71  H    0.149279
    72  H    0.156165
    73  C   -0.444579
    74  H    0.120471
    75  H    0.150065
    76  H    0.158136
    77  N   -0.648058
    78  H    0.397442
    79  C   -0.037801
    80  H    0.163844
    81  C    0.623462
    82  C   -0.282964
    83  H    0.179206
    84  H    0.187853
    85  O   -0.525389
    86  C   -0.400446
    87  H    0.212625
    88  H    0.163927
    89  C    0.595659
    90  O   -0.464900
    91  O   -0.573625
    92  N   -0.609599
    93  H    0.336995
    94  C   -0.019312
    95  H    0.193795
    96  C    0.619382
    97  C   -0.374739
    98  H    0.191618
    99  H    0.152265
   100  O   -0.546712
   101  C    0.553797
   102  N   -0.722059
   103  H    0.374771
   104  H    0.338485
   105  O   -0.513391
   106  N   -0.587933
   107  H    0.356276
   108  C   -0.045504
   109  H    0.184031
   110  C    0.632746
   111  C   -0.378124
   112  H    0.167683
   113  H    0.163233
   114  O   -0.587830
   115  C    0.140675
   116  C   -0.169929
   117  H    0.144446
   118  C   -0.193305
   119  H    0.164590
   120  C   -0.172256
   121  H    0.114283
   122  C   -0.165244
   123  H    0.140464
   124  O   -0.672648
   125  H    0.422722
   126  C    0.339695
   127  N   -0.604432
   128  H    0.373754
   129  C   -0.043184
   130  H    0.148700
   131  C    0.587563
   132  C   -0.280131
   133  H    0.155999
   134  H    0.158155
   135  O   -0.551586
   136  C   -0.279014
   137  H    0.165644
   138  H    0.145652
   139  C   -0.175894
   140  H    0.147915
   141  H    0.180427
   142  N   -0.586297
   143  H    0.405636
   144  N   -0.762276
   145  H    0.364380
   146  H    0.369302
   147  N   -0.787771
   148  H    0.375734
   149  H    0.390053
   150  C    0.743935
   151  O   -0.627454
   152  H    0.410944
 Sum of Mulliken charges =   1.00000

 Dipole moment (field-independent basis, Debye):
    X=            -15.0841    Y=            -10.5161    Z=             25.6769  Tot=             31.5820
 Quadrupole moment (field-independent basis, Debye-Ang):
   XX=           -178.1771   YY=           -407.2708   ZZ=           -197.6126
   XY=              8.2466   XZ=           -229.8472   YZ=            -70.0530

 Normal termination of Gaussian 16 at Sat Aug 13 18:48:59 2022.
