 Gaussian 16, Revision C.01,
 Gaussian 16:  ES64L-G16RevC.01  3-Jul-2019

 ----------------------------------------------------------------------
 # B3LYP/6-31G* empiricaldispersion=gd3 guess=read geom=check nosymm in
 tegral(ultrafinegrid)
 ----------------------------------------------------------------------

 ------------------------------------------------------
 Candidate Structure: Conf:549 Charge calc in gas phase
 ------------------------------------------------------
 Structure from the checkpoint file:  "conf-549.chk"
 Charge =  1 Multiplicity = 1

                          Input orientation:
 ---------------------------------------------------------------------
 Center     Atomic      Atomic             Coordinates (Angstroms)
 Number     Number       Type             X           Y           Z
 ---------------------------------------------------------------------
      1          7           0       -9.342264    1.431652    7.752847
      2          1           0      -10.311715    1.732224    7.888218
      3          1           0       -9.321745    0.730628    6.959923
      4          1           0       -8.995747    1.031137    8.627978
      5          6           0       -8.450134    2.537481    7.213855
      6          1           0       -8.871568    3.497299    7.524887
      7          6           0       -8.562270    2.300784    5.682187
      8          6           0       -7.002950    2.378838    7.753795
      9          1           0       -6.591757    1.450815    7.333582
     10          8           0       -8.868958    1.154922    5.318081
     11          6           0       -6.125438    3.553173    7.288393
     12          1           0       -6.516197    4.507433    7.664868
     13          1           0       -5.117688    3.428874    7.694858
     14          1           0       -6.025274    3.622915    6.203817
     15          6           0       -6.978999    2.294908    9.291206
     16          1           0       -7.452968    3.172326    9.747555
     17          1           0       -7.452974    1.392239    9.702895
     18          1           0       -5.941688    2.261492    9.635620
     19          7           0       -8.325573    3.335480    4.876597
     20          1           0       -7.925784    4.183391    5.268585
     21          6           0       -8.061283    3.179518    3.435096
     22          1           0       -8.247285    2.129817    3.198601
     23          6           0       -6.559874    3.508231    3.281329
     24          6           0       -8.987283    4.069427    2.570048
     25          1           0      -10.010983    3.741705    2.803198
     26          8           0       -6.060975    4.404003    3.975020
     27          6           0       -8.725793    3.783134    1.076038
     28          1           0       -8.698757    2.694945    0.921044
     29          1           0       -7.729325    4.154973    0.804162
     30          6           0       -8.862536    5.560235    2.916369
     31          1           0       -7.849825    5.929598    2.727384
     32          1           0       -9.099462    5.753410    3.969220
     33          1           0       -9.562607    6.151636    2.320561
     34          6           0       -9.775496    4.385849    0.136280
     35          1           0       -9.579284    4.087042   -0.898357
     36          1           0      -10.783882    4.042974    0.397807
     37          1           0       -9.773265    5.480173    0.167205
     38          7           0       -5.880680    2.730714    2.431768
     39          1           0       -6.336564    2.004980    1.879328
     40          6           0       -4.431796    2.702822    2.303134
     41          1           0       -4.073702    3.678185    1.951684
     42          6           0       -4.155143    1.634903    1.219532
     43          6           0       -3.723437    2.382702    3.651959
     44          1           0       -4.006722    3.174837    4.350744
     45          1           0       -2.642314    2.473234    3.501893
     46          8           0       -5.088050    1.044402    0.668345
     47          6           0       -4.055875    1.017779    4.213234
     48          6           0       -5.297583    0.775646    4.820779
     49          1           0       -6.011366    1.585640    4.911945
     50          6           0       -3.143689   -0.041588    4.120376
     51          1           0       -2.173021    0.114065    3.656504
     52          6           0       -5.633015   -0.489569    5.300643
     53          1           0       -6.618447   -0.655719    5.730536
     54          6           0       -3.466082   -1.304953    4.623198
     55          1           0       -2.727537   -2.097565    4.566565
     56          6           0       -4.713049   -1.536658    5.205762
     57          1           0       -4.965439   -2.523859    5.583280
     58          7           0       -2.861042    1.410219    0.944501
     59          1           0       -2.120019    1.793191    1.522389
     60          6           0       -2.430844    0.326175    0.071118
     61          1           0       -3.176236   -0.472289    0.152662
     62          6           0       -1.097151   -0.171666    0.659587
     63          6           0       -2.360076    0.818355   -1.396640
     64          1           0       -1.536059    1.532913   -1.491706
     65          1           0       -3.296824    1.367186   -1.558211
     66          8           0       -0.560976    0.411782    1.605849
     67          6           0       -2.236672   -0.241433   -2.509789
     68          1           0       -1.241627   -0.699135   -2.457222
     69          6           0       -3.306639   -1.340127   -2.406125
     70          1           0       -4.311637   -0.901030   -2.373393
     71          1           0       -3.199566   -1.963814   -1.508415
     72          1           0       -3.259088   -2.011471   -3.270787
     73          6           0       -2.314246    0.463078   -3.872497
     74          1           0       -3.292736    0.941282   -4.011426
     75          1           0       -2.175602   -0.254252   -4.690352
     76          1           0       -1.536093    1.227780   -3.949623
     77          7           0       -0.576549   -1.279438    0.083120
     78          1           0       -1.082025   -1.710069   -0.678829
     79          6           0        0.719898   -1.852495    0.448113
     80          1           0        1.239152   -1.088856    1.036179
     81          6           0        1.575313   -2.108341   -0.806298
     82          6           0        0.578216   -3.122919    1.295387
     83          1           0        1.583192   -3.497043    1.502015
     84          1           0        0.062342   -3.895293    0.712688
     85          8           0        2.357776   -3.046851   -0.876895
     86          6           0       -0.179921   -2.876180    2.599973
     87          1           0       -1.176195   -2.457120    2.418339
     88          1           0       -0.341316   -3.822341    3.133403
     89          6           0        0.562223   -1.954442    3.543731
     90          8           0        1.720701   -1.620955    3.453137
     91          8           0       -0.236316   -1.548146    4.567943
     92          7           0        1.382001   -1.215556   -1.818713
     93          1           0        0.917403   -0.333082   -1.619619
     94          6           0        2.316956   -1.172443   -2.923103
     95          1           0        2.403408   -2.180218   -3.342135
     96          6           0        3.705816   -0.685242   -2.457621
     97          6           0        1.801951   -0.202466   -4.014622
     98          1           0        2.517974   -0.181316   -4.839882
     99          1           0        0.838373   -0.566335   -4.384554
    100          8           0        3.832663    0.075576   -1.509199
    101          6           0        1.576975    1.196771   -3.440874
    102          7           0        2.448697    2.145326   -3.838694
    103          1           0        2.402102    3.031920   -3.353732
    104          1           0        3.326665    1.881627   -4.288536
    105          8           0        0.641092    1.416809   -2.659924
    106          7           0        4.740306   -1.122629   -3.234720
    107          1           0        4.502483   -1.598740   -4.096540
    108          6           0        6.005753   -0.418240   -3.258659
    109          1           0        6.117092    0.048256   -2.274417
    110          6           0        5.929815    0.717679   -4.311851
    111          6           0        7.177577   -1.409156   -3.489665
    112          1           0        8.130485   -0.879423   -3.378765
    113          1           0        7.133335   -2.141890   -2.676749
    114          8           0        4.867482    0.993306   -4.887137
    115          6           0        7.119763   -2.101750   -4.834355
    116          6           0        6.327247   -3.246402   -5.019423
    117          1           0        5.805087   -3.676841   -4.167587
    118          6           0        7.814808   -1.594240   -5.940308
    119          1           0        8.459824   -0.727230   -5.826985
    120          6           0        6.206706   -3.852781   -6.267070
    121          1           0        5.598514   -4.740571   -6.408505
    122          6           0        7.703896   -2.193576   -7.194020
    123          1           0        8.251964   -1.782592   -8.040006
    124          8           0        6.737777   -3.950448   -8.567710
    125          1           0        7.270036   -3.491216   -9.235675
    126          6           0        6.892696   -3.320396   -7.363785
    127          7           0        7.074013    1.383102   -4.540570
    128          1           0        7.957958    1.049689   -4.166537
    129          6           0        7.265305    2.318668   -5.640613
    130          1           0        6.482175    2.154314   -6.382592
    131          6           0        8.641747    2.030213   -6.278218
    132          6           0        7.193267    3.783822   -5.124746
    133          1           0        6.139324    4.018649   -4.940209
    134          1           0        7.692796    3.821841   -4.147254
    135          8           0        8.758899    2.457156   -7.478411
    136          6           0        7.820798    4.832932   -6.065916
    137          1           0        7.659649    4.539872   -7.106164
    138          1           0        7.342590    5.808722   -5.910931
    139          6           0        9.334363    4.971505   -5.809509
    140          1           0        9.503528    5.560465   -4.899934
    141          1           0        9.806117    4.002790   -5.640696
    142          7           0       10.068710    5.635982   -6.893761
    143          1           0        9.864910    6.613132   -7.057285
    144          7           0       10.898592    3.731118   -7.957968
    145          1           0       11.645347    3.345139   -8.520638
    146          1           0       10.028901    3.067047   -7.717802
    147          7           0       11.624719    5.873504   -8.574685
    148          1           0       12.186406    5.470995   -9.310942
    149          1           0       11.993422    6.717852   -8.159123
    150          6           0       10.860832    5.038391   -7.804386
    151          8           0        9.524383    1.516332   -5.566333
    152          1           0        0.312080   -0.965505    5.126287
 ---------------------------------------------------------------------

 SCF Done:  E(RB3LYP) =  -3586.83970696     A.U. after    3 cycles

 Alpha  occ. eigenvalues --  -19.26275 -19.23904 -19.20446 -19.20344 -19.18422
 Alpha  occ. eigenvalues --  -19.17976 -19.17706 -19.15489 -19.14967 -19.14859
 Alpha  occ. eigenvalues --  -19.14503 -19.13211 -19.12542 -14.59544 -14.49114
 Alpha  occ. eigenvalues --  -14.45058 -14.44769 -14.44010 -14.41865 -14.41822
 Alpha  occ. eigenvalues --  -14.41485 -14.38923 -14.38751 -14.38548 -14.38081
 Alpha  occ. eigenvalues --  -10.43113 -10.40259 -10.40124 -10.37427 -10.36128
 Alpha  occ. eigenvalues --  -10.35413 -10.34666 -10.33576 -10.32952 -10.32481
 Alpha  occ. eigenvalues --  -10.32344 -10.31954 -10.31475 -10.31033 -10.30788
 Alpha  occ. eigenvalues --  -10.30475 -10.28658 -10.28562 -10.28236 -10.28101
 Alpha  occ. eigenvalues --  -10.27512 -10.27264 -10.27191 -10.26650 -10.26218
 Alpha  occ. eigenvalues --  -10.26006 -10.25768 -10.25626 -10.25516 -10.25172
 Alpha  occ. eigenvalues --  -10.25097 -10.25073 -10.24580 -10.24482 -10.24432
 Alpha  occ. eigenvalues --  -10.24066 -10.23596 -10.23271 -10.22995 -10.22957
 Alpha  occ. eigenvalues --  -10.22934 -10.22763 -10.22584 -10.21825 -10.21805
 Alpha  occ. eigenvalues --  -10.21725 -10.21465 -10.21303 -10.21166 -10.20511
 Alpha  occ. eigenvalues --   -1.18797  -1.14536  -1.13501  -1.12313  -1.10436
 Alpha  occ. eigenvalues --   -1.09361  -1.08733  -1.08449  -1.07538  -1.07022
 Alpha  occ. eigenvalues --   -1.06337  -1.06235  -1.05881  -1.05582  -1.05490
 Alpha  occ. eigenvalues --   -1.00759  -0.98797  -0.98515  -0.98358  -0.97989
 Alpha  occ. eigenvalues --   -0.95853  -0.95734  -0.95410  -0.95390  -0.94527
 Alpha  occ. eigenvalues --   -0.93303  -0.91764  -0.90180  -0.87910  -0.86501
 Alpha  occ. eigenvalues --   -0.86042  -0.85207  -0.84337  -0.84255  -0.82700
 Alpha  occ. eigenvalues --   -0.82096  -0.81101  -0.80786  -0.80676  -0.80460
 Alpha  occ. eigenvalues --   -0.79397  -0.78490  -0.78180  -0.77276  -0.76877
 Alpha  occ. eigenvalues --   -0.75734  -0.74368  -0.73714  -0.73383  -0.72524
 Alpha  occ. eigenvalues --   -0.72402  -0.72327  -0.71387  -0.70574  -0.69909
 Alpha  occ. eigenvalues --   -0.69653  -0.69578  -0.69109  -0.67626  -0.66896
 Alpha  occ. eigenvalues --   -0.66683  -0.66031  -0.65849  -0.65339  -0.65064
 Alpha  occ. eigenvalues --   -0.64768  -0.64204  -0.63962  -0.63379  -0.63180
 Alpha  occ. eigenvalues --   -0.63066  -0.62946  -0.62612  -0.62251  -0.61785
 Alpha  occ. eigenvalues --   -0.61113  -0.60712  -0.60234  -0.60210  -0.59062
 Alpha  occ. eigenvalues --   -0.58430  -0.57977  -0.57796  -0.57559  -0.57494
 Alpha  occ. eigenvalues --   -0.56875  -0.56860  -0.56508  -0.55791  -0.55715
 Alpha  occ. eigenvalues --   -0.55419  -0.54843  -0.54634  -0.54086  -0.53777
 Alpha  occ. eigenvalues --   -0.53712  -0.53309  -0.52861  -0.52682  -0.52301
 Alpha  occ. eigenvalues --   -0.52229  -0.52171  -0.52045  -0.51785  -0.51623
 Alpha  occ. eigenvalues --   -0.51435  -0.51262  -0.51189  -0.50867  -0.50512
 Alpha  occ. eigenvalues --   -0.50290  -0.50117  -0.50010  -0.49762  -0.49554
 Alpha  occ. eigenvalues --   -0.49217  -0.49102  -0.48892  -0.48792  -0.48350
 Alpha  occ. eigenvalues --   -0.48159  -0.48064  -0.47763  -0.47329  -0.47203
 Alpha  occ. eigenvalues --   -0.46932  -0.46811  -0.46654  -0.46598  -0.46348
 Alpha  occ. eigenvalues --   -0.46219  -0.46021  -0.45937  -0.45736  -0.45509
 Alpha  occ. eigenvalues --   -0.45483  -0.45182  -0.44915  -0.44637  -0.44483
 Alpha  occ. eigenvalues --   -0.44422  -0.44362  -0.44006  -0.43891  -0.43768
 Alpha  occ. eigenvalues --   -0.43511  -0.43478  -0.43073  -0.42942  -0.42710
 Alpha  occ. eigenvalues --   -0.42568  -0.42373  -0.42255  -0.42100  -0.42005
 Alpha  occ. eigenvalues --   -0.41881  -0.41733  -0.41454  -0.41327  -0.41019
 Alpha  occ. eigenvalues --   -0.40934  -0.40537  -0.40372  -0.40202  -0.40174
 Alpha  occ. eigenvalues --   -0.40094  -0.39967  -0.39946  -0.39891  -0.39616
 Alpha  occ. eigenvalues --   -0.39566  -0.38874  -0.38724  -0.38401  -0.38382
 Alpha  occ. eigenvalues --   -0.37444  -0.37437  -0.36754  -0.36533  -0.36416
 Alpha  occ. eigenvalues --   -0.36081  -0.35887  -0.35655  -0.35288  -0.34285
 Alpha  occ. eigenvalues --   -0.33850  -0.32883  -0.32728  -0.32297  -0.31540
 Alpha  occ. eigenvalues --   -0.31453  -0.31027  -0.30967  -0.30791  -0.30491
 Alpha  occ. eigenvalues --   -0.30307  -0.29966  -0.29652  -0.28880  -0.28667
 Alpha  occ. eigenvalues --   -0.28616  -0.27963  -0.27754  -0.27234  -0.27043
 Alpha  occ. eigenvalues --   -0.26491  -0.24372
 Alpha virt. eigenvalues --   -0.12316  -0.10514  -0.07199  -0.06824  -0.06338
 Alpha virt. eigenvalues --   -0.05790  -0.05291  -0.04067  -0.03858  -0.03453
 Alpha virt. eigenvalues --   -0.03120  -0.02840  -0.02078  -0.02042  -0.01846

 Mulliken charges:
               1
     1  N   -0.757297
     2  H    0.415313
     3  H    0.432145
     4  H    0.408448
     5  C   -0.109379
     6  H    0.201606
     7  C    0.654567
     8  C   -0.113176
     9  H    0.185760
    10  O   -0.540634
    11  C   -0.498914
    12  H    0.156073
    13  H    0.187818
    14  H    0.213283
    15  C   -0.482732
    16  H    0.171949
    17  H    0.141923
    18  H    0.205664
    19  N   -0.590826
    20  H    0.368696
    21  C   -0.094162
    22  H    0.196945
    23  C    0.640208
    24  C   -0.070238
    25  H    0.139217
    26  O   -0.559644
    27  C   -0.273939
    28  H    0.142346
    29  H    0.155323
    30  C   -0.470871
    31  H    0.178717
    32  H    0.129043
    33  H    0.169521
    34  C   -0.453075
    35  H    0.164867
    36  H    0.148992
    37  H    0.157353
    38  N   -0.610744
    39  H    0.371798
    40  C   -0.032051
    41  H    0.190621
    42  C    0.628425
    43  C   -0.402891
    44  H    0.188913
    45  H    0.166285
    46  O   -0.547725
    47  C    0.165876
    48  C   -0.177968
    49  H    0.101600
    50  C   -0.210776
    51  H    0.170922
    52  C   -0.136389
    53  H    0.106232
    54  C   -0.133689
    55  H    0.158968
    56  C   -0.132202
    57  H    0.134915
    58  N   -0.615175
    59  H    0.359506
    60  C   -0.080954
    61  H    0.187344
    62  C    0.623342
    63  C   -0.264297
    64  H    0.186667
    65  H    0.151180
    66  O   -0.542933
    67  C   -0.094792
    68  H    0.134460
    69  C   -0.459800
    70  H    0.157597
    71  H    0.125727
    72  H    0.151872
    73  C   -0.457628
    74  H    0.135343
    75  H    0.137083
    76  H    0.174984
    77  N   -0.624738
    78  H    0.352193
    79  C   -0.090219
    80  H    0.239660
    81  C    0.621149
    82  C   -0.252221
    83  H    0.197968
    84  H    0.139354
    85  O   -0.523920
    86  C   -0.370055
    87  H    0.171256
    88  H    0.182093
    89  C    0.605867
    90  O   -0.453573
    91  O   -0.577477
    92  N   -0.616672
    93  H    0.379890
    94  C   -0.081729
    95  H    0.171198
    96  C    0.646564
    97  C   -0.375682
    98  H    0.186069
    99  H    0.181230
   100  O   -0.527140
   101  C    0.592002
   102  N   -0.757179
   103  H    0.332714
   104  H    0.406435
   105  O   -0.546728
   106  N   -0.584745
   107  H    0.338226
   108  C   -0.078888
   109  H    0.202255
   110  C    0.624518
   111  C   -0.376284
   112  H    0.158680
   113  H    0.173060
   114  O   -0.565474
   115  C    0.147088
   116  C   -0.214558
   117  H    0.142267
   118  C   -0.204859
   119  H    0.170032
   120  C   -0.158349
   121  H    0.141671
   122  C   -0.199380
   123  H    0.127820
   124  O   -0.641886
   125  H    0.408577
   126  C    0.351396
   127  N   -0.596928
   128  H    0.351897
   129  C   -0.024982
   130  H    0.179793
   131  C    0.593383
   132  C   -0.277854
   133  H    0.152451
   134  H    0.143795
   135  O   -0.628643
   136  C   -0.269989
   137  H    0.183879
   138  H    0.128741
   139  C   -0.177343
   140  H    0.161054
   141  H    0.218087
   142  N   -0.595780
   143  H    0.344095
   144  N   -0.765109
   145  H    0.338408
   146  H    0.458070
   147  N   -0.762392
   148  H    0.357773
   149  H    0.356745
   150  C    0.761778
   151  O   -0.571954
   152  H    0.411013
 Sum of Mulliken charges =   1.00000

 Dipole moment (field-independent basis, Debye):
    X=            -18.5756    Y=             20.3698    Z=             15.1058  Tot=             31.4351
 Quadrupole moment (field-independent basis, Debye-Ang):
   XX=             83.6893   YY=           -334.2555   ZZ=            -88.0084
   XY=             67.2991   XZ=           -419.1988   YZ=            -37.7469

 Normal termination of Gaussian 16 at Sat Aug 13 18:48:09 2022.
