 Gaussian 16, Revision C.01,
 Gaussian 16:  ES64L-G16RevC.01  3-Jul-2019

 ----------------------------------------------------------------------
 # B3LYP/6-31G* empiricaldispersion=gd3 guess=read geom=check nosymm in
 tegral(ultrafinegrid)
 ----------------------------------------------------------------------

 ------------------------------------------------------
 Candidate Structure: Conf:234 Charge calc in gas phase
 ------------------------------------------------------
 Structure from the checkpoint file:  "conf-234.chk"
 Charge =  1 Multiplicity = 1

                          Input orientation:
 ---------------------------------------------------------------------
 Center     Atomic      Atomic             Coordinates (Angstroms)
 Number     Number       Type             X           Y           Z
 ---------------------------------------------------------------------
      1          7           0      -10.007438   -1.752247    5.073563
      2          1           0      -10.681838   -2.220763    4.464157
      3          1           0       -9.259227   -2.449179    5.387318
      4          1           0      -10.506847   -1.371498    5.881282
      5          6           0       -9.162436   -0.717484    4.354648
      6          1           0       -9.547173   -0.624036    3.335822
      7          6           0       -7.757620   -1.379496    4.351688
      8          6           0       -9.191302    0.652996    5.067229
      9          1           0       -8.515630    1.288377    4.480179
     10          8           0       -7.612815   -2.426417    5.003718
     11          6           0      -10.591914    1.281148    5.015173
     12          1           0      -11.322591    0.719822    5.614009
     13          1           0      -10.563414    2.293585    5.428005
     14          1           0      -10.971629    1.346543    3.989592
     15          6           0       -8.639419    0.581156    6.499871
     16          1           0       -9.272107   -0.023957    7.163645
     17          1           0       -7.626448    0.168350    6.531326
     18          1           0       -8.606366    1.585184    6.931596
     19          7           0       -6.821317   -0.751592    3.657722
     20          1           0       -6.987063    0.169234    3.250141
     21          6           0       -5.395008   -1.089231    3.669720
     22          1           0       -5.196590   -1.680806    4.569507
     23          6           0       -4.709687    0.291627    3.735204
     24          6           0       -4.962037   -1.905447    2.408563
     25          1           0       -5.020367   -1.223679    1.548717
     26          8           0       -5.310188    1.289877    3.329410
     27          6           0       -5.931299   -3.083026    2.168785
     28          1           0       -6.953611   -2.691932    2.099011
     29          1           0       -5.913594   -3.749194    3.041984
     30          6           0       -3.509257   -2.386385    2.546692
     31          1           0       -3.378814   -2.995555    3.451546
     32          1           0       -2.802030   -1.557207    2.558149
     33          1           0       -3.229658   -3.008606    1.693688
     34          6           0       -5.640289   -3.879869    0.891305
     35          1           0       -6.436302   -4.609122    0.706933
     36          1           0       -5.582982   -3.218935    0.017967
     37          1           0       -4.699979   -4.435192    0.952930
     38          7           0       -3.462209    0.343896    4.252355
     39          1           0       -2.982476   -0.532284    4.415209
     40          6           0       -2.623480    1.508965    3.988547
     41          1           0       -3.111062    2.383356    4.429142
     42          6           0       -2.536333    1.719721    2.459055
     43          6           0       -1.238538    1.295596    4.640895
     44          1           0       -0.766090    0.415846    4.191294
     45          1           0       -1.415712    1.075154    5.701793
     46          8           0       -2.717559    0.765394    1.681137
     47          6           0       -0.327288    2.495539    4.501496
     48          6           0        0.847169    2.417505    3.743922
     49          1           0        1.098187    1.482957    3.248635
     50          6           0       -0.658936    3.710669    5.118838
     51          1           0       -1.558856    3.778725    5.728007
     52          6           0        1.681333    3.530481    3.619690
     53          1           0        2.600283    3.462328    3.045487
     54          6           0        0.161595    4.829773    4.973427
     55          1           0       -0.109751    5.766085    5.453110
     56          6           0        1.335753    4.738686    4.224309
     57          1           0        1.977786    5.607390    4.111517
     58          7           0       -2.274355    2.963671    2.044470
     59          1           0       -1.968998    3.667167    2.710084
     60          6           0       -2.177491    3.325022    0.630701
     61          1           0       -2.386888    2.416100    0.066489
     62          6           0       -0.741474    3.802204    0.386126
     63          6           0       -3.195115    4.422991    0.279227
     64          1           0       -3.115063    4.620178   -0.798935
     65          1           0       -2.889788    5.345263    0.790256
     66          8           0       -0.230439    4.643391    1.122517
     67          6           0       -4.653884    4.080296    0.638805
     68          1           0       -4.706503    3.930236    1.726183
     69          6           0       -5.565148    5.259876    0.271454
     70          1           0       -5.562127    5.434331   -0.812095
     71          1           0       -5.240246    6.186591    0.759140
     72          1           0       -6.600961    5.065251    0.573380
     73          6           0       -5.136252    2.783077   -0.028601
     74          1           0       -5.035760    2.843422   -1.120555
     75          1           0       -6.195019    2.609809    0.197939
     76          1           0       -4.579417    1.908926    0.323149
     77          7           0       -0.111668    3.233099   -0.667045
     78          1           0       -0.531324    2.474310   -1.191373
     79          6           0        1.296638    3.457591   -0.928120
     80          1           0        1.520217    4.505872   -0.714966
     81          6           0        1.563220    3.116522   -2.393595
     82          6           0        2.134936    2.530572   -0.003724
     83          1           0        1.885041    1.491970   -0.231916
     84          1           0        1.799574    2.734456    1.015842
     85          8           0        0.873275    2.278623   -2.983289
     86          6           0        3.671103    2.677989   -0.078724
     87          1           0        4.118174    2.030779    0.680315
     88          1           0        4.049477    2.370536   -1.056693
     89          6           0        4.095386    4.106581    0.146416
     90          8           0        4.116807    4.972358   -0.714572
     91          8           0        4.402617    4.370235    1.430398
     92          7           0        2.648842    3.713920   -2.935450
     93          1           0        3.223159    4.305940   -2.333555
     94          6           0        3.247337    3.214401   -4.176795
     95          1           0        2.431334    2.979474   -4.863812
     96          6           0        4.035953    1.951477   -3.793063
     97          6           0        4.138176    4.282279   -4.799115
     98          1           0        4.908061    4.594813   -4.085329
     99          1           0        4.663102    3.848299   -5.658405
    100          8           0        5.255141    2.013097   -3.529174
    101          6           0        3.286961    5.447883   -5.310993
    102          7           0        3.834161    6.685153   -5.146109
    103          1           0        3.343870    7.479400   -5.533933
    104          1           0        4.749579    6.830262   -4.748615
    105          8           0        2.200469    5.265823   -5.839360
    106          7           0        3.306026    0.838823   -3.650281
    107          1           0        2.301025    0.922584   -3.774859
    108          6           0        3.843773   -0.363291   -3.033345
    109          1           0        4.319166   -0.073658   -2.088438
    110          6           0        4.894840   -1.084525   -3.899618
    111          6           0        2.725055   -1.391588   -2.728231
    112          1           0        2.092376   -1.490992   -3.618518
    113          1           0        3.221740   -2.354618   -2.570901
    114          8           0        4.842050   -1.103365   -5.131896
    115          6           0        1.908639   -1.084054   -1.493280
    116          6           0        2.450795   -1.375658   -0.228497
    117          1           0        3.439242   -1.830407   -0.169069
    118          6           0        0.610322   -0.569617   -1.562007
    119          1           0        0.171755   -0.335240   -2.527854
    120          6           0        1.714081   -1.154785    0.932237
    121          1           0        2.119049   -1.402253    1.908947
    122          6           0       -0.143440   -0.356801   -0.404466
    123          1           0       -1.163154    0.017323   -0.463128
    124          8           0       -0.295659   -0.488926    2.008690
    125          1           0       -1.186157   -0.141971    1.790135
    126          6           0        0.408760   -0.656387    0.846235
    127          7           0        5.793529   -1.727998   -3.120010
    128          1           0        5.550072   -1.718515   -2.106973
    129          6           0        6.215315   -3.125726   -3.308313
    130          1           0        5.596868   -3.593391   -4.081821
    131          6           0        5.894434   -3.830055   -1.906719
    132          6           0        7.692928   -3.315715   -3.664056
    133          1           0        7.890563   -4.385108   -3.554305
    134          1           0        7.854628   -3.062747   -4.720791
    135          8           0        6.241382   -5.011129   -1.819132
    136          6           0        8.636123   -2.492788   -2.756210
    137          1           0        8.042797   -1.913075   -2.040209
    138          1           0        9.274726   -3.148166   -2.154181
    139          6           0        9.555451   -1.544799   -3.538880
    140          1           0       10.131389   -0.889617   -2.873464
    141          1           0       10.289832   -2.110905   -4.118190
    142          7           0        8.843559   -0.713890   -4.527601
    143          1           0        8.834466   -1.050449   -5.480819
    144          7           0        7.885017    0.865619   -3.089590
    145          1           0        6.994036    1.299127   -2.852293
    146          1           0        8.473024    0.556659   -2.330481
    147          7           0        7.095056    0.611653   -5.258659
    148          1           0        6.411785    1.305776   -4.957659
    149          1           0        6.621707   -0.157750   -5.736126
    150          6           0        7.927557    0.222832   -4.265226
    151          8           0        5.335831   -3.063884   -1.054730
    152          1           0        4.600987    5.324952    1.491272
 ---------------------------------------------------------------------

 SCF Done:  E(RB3LYP) =  -3586.83764627     A.U. after    2 cycles

 Alpha  occ. eigenvalues --  -19.27727 -19.27135 -19.22501 -19.22219 -19.21779
 Alpha  occ. eigenvalues --  -19.20642 -19.19740 -19.18868 -19.17676 -19.16229
 Alpha  occ. eigenvalues --  -19.15621 -19.08444 -19.06916 -14.60041 -14.49549
 Alpha  occ. eigenvalues --  -14.46109 -14.45227 -14.44574 -14.44430 -14.42683
 Alpha  occ. eigenvalues --  -14.42642 -14.42412 -14.42231 -14.41167 -14.36563
 Alpha  occ. eigenvalues --  -10.43687 -10.40818 -10.40529 -10.40129 -10.39292
 Alpha  occ. eigenvalues --  -10.37666 -10.36048 -10.35628 -10.34963 -10.34947
 Alpha  occ. eigenvalues --  -10.34364 -10.34346 -10.32591 -10.32059 -10.31368
 Alpha  occ. eigenvalues --  -10.31137 -10.30026 -10.29995 -10.29893 -10.29702
 Alpha  occ. eigenvalues --  -10.29198 -10.28726 -10.28240 -10.27477 -10.27055
 Alpha  occ. eigenvalues --  -10.26619 -10.26330 -10.26046 -10.25932 -10.25811
 Alpha  occ. eigenvalues --  -10.25398 -10.25296 -10.25192 -10.24999 -10.24968
 Alpha  occ. eigenvalues --  -10.24837 -10.24822 -10.24791 -10.24705 -10.23660
 Alpha  occ. eigenvalues --  -10.23446 -10.23208 -10.23196 -10.23117 -10.23064
 Alpha  occ. eigenvalues --  -10.23017 -10.22828 -10.22624 -10.22503 -10.20964
 Alpha  occ. eigenvalues --   -1.19551  -1.18586  -1.14722  -1.13880  -1.12375
 Alpha  occ. eigenvalues --   -1.11336  -1.10466  -1.09783  -1.09529  -1.09418
 Alpha  occ. eigenvalues --   -1.09287  -1.08264  -1.06739  -1.06399  -1.02700
 Alpha  occ. eigenvalues --   -1.01081  -1.00944  -0.99846  -0.99147  -0.99057
 Alpha  occ. eigenvalues --   -0.98839  -0.96756  -0.95803  -0.95704  -0.94685
 Alpha  occ. eigenvalues --   -0.92113  -0.92028  -0.90832  -0.89499  -0.88111
 Alpha  occ. eigenvalues --   -0.87318  -0.86955  -0.86534  -0.85090  -0.83975
 Alpha  occ. eigenvalues --   -0.83237  -0.83078  -0.82536  -0.82382  -0.80518
 Alpha  occ. eigenvalues --   -0.80253  -0.79345  -0.78935  -0.78886  -0.78534
 Alpha  occ. eigenvalues --   -0.77016  -0.74597  -0.74195  -0.74165  -0.74103
 Alpha  occ. eigenvalues --   -0.73841  -0.73155  -0.72652  -0.72283  -0.72039
 Alpha  occ. eigenvalues --   -0.71380  -0.70498  -0.70026  -0.68947  -0.68406
 Alpha  occ. eigenvalues --   -0.67470  -0.67154  -0.66796  -0.66663  -0.66507
 Alpha  occ. eigenvalues --   -0.66394  -0.65859  -0.65423  -0.64845  -0.64618
 Alpha  occ. eigenvalues --   -0.64186  -0.63909  -0.63665  -0.63343  -0.62901
 Alpha  occ. eigenvalues --   -0.62631  -0.61388  -0.61185  -0.60443  -0.59990
 Alpha  occ. eigenvalues --   -0.59245  -0.58941  -0.58779  -0.58623  -0.58500
 Alpha  occ. eigenvalues --   -0.58485  -0.58200  -0.57951  -0.57602  -0.57410
 Alpha  occ. eigenvalues --   -0.57006  -0.56552  -0.56108  -0.55938  -0.55572
 Alpha  occ. eigenvalues --   -0.55248  -0.55064  -0.54902  -0.54319  -0.54181
 Alpha  occ. eigenvalues --   -0.54053  -0.53768  -0.53211  -0.53015  -0.52749
 Alpha  occ. eigenvalues --   -0.52598  -0.52375  -0.52365  -0.51903  -0.51744
 Alpha  occ. eigenvalues --   -0.51640  -0.51352  -0.51306  -0.51156  -0.50849
 Alpha  occ. eigenvalues --   -0.50575  -0.50441  -0.50048  -0.49794  -0.49563
 Alpha  occ. eigenvalues --   -0.49305  -0.49192  -0.48957  -0.48851  -0.48680
 Alpha  occ. eigenvalues --   -0.48299  -0.48196  -0.48073  -0.48010  -0.47971
 Alpha  occ. eigenvalues --   -0.47843  -0.47440  -0.47333  -0.47183  -0.47039
 Alpha  occ. eigenvalues --   -0.46652  -0.46540  -0.46441  -0.46377  -0.46095
 Alpha  occ. eigenvalues --   -0.45994  -0.45860  -0.45696  -0.45517  -0.45263
 Alpha  occ. eigenvalues --   -0.45005  -0.44888  -0.44508  -0.44398  -0.44166
 Alpha  occ. eigenvalues --   -0.44026  -0.43825  -0.43456  -0.43331  -0.43040
 Alpha  occ. eigenvalues --   -0.42845  -0.42687  -0.42557  -0.42234  -0.42092
 Alpha  occ. eigenvalues --   -0.41960  -0.41796  -0.41711  -0.41119  -0.40915
 Alpha  occ. eigenvalues --   -0.40820  -0.40785  -0.40468  -0.40379  -0.40038
 Alpha  occ. eigenvalues --   -0.39524  -0.39372  -0.39040  -0.38899  -0.38649
 Alpha  occ. eigenvalues --   -0.38523  -0.38398  -0.38195  -0.37475  -0.37146
 Alpha  occ. eigenvalues --   -0.36680  -0.36653  -0.36278  -0.36059  -0.35912
 Alpha  occ. eigenvalues --   -0.35627  -0.35186  -0.34843  -0.34544  -0.34423
 Alpha  occ. eigenvalues --   -0.33808  -0.33373  -0.33075  -0.31950  -0.31665
 Alpha  occ. eigenvalues --   -0.31430  -0.31266  -0.30876  -0.30391  -0.30208
 Alpha  occ. eigenvalues --   -0.29775  -0.29320  -0.28488  -0.26043  -0.23326
 Alpha  occ. eigenvalues --   -0.23194  -0.20867
 Alpha virt. eigenvalues --   -0.12463  -0.11623  -0.08646  -0.07384  -0.07199
 Alpha virt. eigenvalues --   -0.07153  -0.06670  -0.06438  -0.06291  -0.06184
 Alpha virt. eigenvalues --   -0.05046  -0.04492  -0.04153  -0.03687  -0.03597

 Mulliken charges:
               1
     1  N   -0.763340
     2  H    0.416774
     3  H    0.436193
     4  H    0.409786
     5  C   -0.102382
     6  H    0.214844
     7  C    0.651379
     8  C   -0.127456
     9  H    0.193016
    10  O   -0.546725
    11  C   -0.462761
    12  H    0.139612
    13  H    0.200027
    14  H    0.173070
    15  C   -0.475069
    16  H    0.142097
    17  H    0.187299
    18  H    0.198591
    19  N   -0.596007
    20  H    0.373026
    21  C   -0.089746
    22  H    0.184932
    23  C    0.654807
    24  C   -0.069541
    25  H    0.158660
    26  O   -0.548345
    27  C   -0.253606
    28  H    0.112778
    29  H    0.150467
    30  C   -0.495372
    31  H    0.142954
    32  H    0.172157
    33  H    0.183556
    34  C   -0.454127
    35  H    0.153278
    36  H    0.153796
    37  H    0.167458
    38  N   -0.603249
    39  H    0.350355
    40  C   -0.051440
    41  H    0.183320
    42  C    0.655747
    43  C   -0.405500
    44  H    0.199513
    45  H    0.171142
    46  O   -0.586460
    47  C    0.146206
    48  C   -0.192657
    49  H    0.162975
    50  C   -0.209157
    51  H    0.123828
    52  C   -0.123786
    53  H    0.153519
    54  C   -0.122763
    55  H    0.140569
    56  C   -0.112591
    57  H    0.133302
    58  N   -0.571324
    59  H    0.364129
    60  C   -0.092943
    61  H    0.183372
    62  C    0.648527
    63  C   -0.268071
    64  H    0.151536
    65  H    0.156592
    66  O   -0.544135
    67  C   -0.071340
    68  H    0.134144
    69  C   -0.442849
    70  H    0.148343
    71  H    0.145784
    72  H    0.136562
    73  C   -0.462451
    74  H    0.140568
    75  H    0.128504
    76  H    0.168551
    77  N   -0.611361
    78  H    0.356182
    79  C   -0.062894
    80  H    0.192346
    81  C    0.632615
    82  C   -0.313552
    83  H    0.205997
    84  H    0.189047
    85  O   -0.557147
    86  C   -0.378258
    87  H    0.189964
    88  H    0.189141
    89  C    0.597465
    90  O   -0.481770
    91  O   -0.543289
    92  N   -0.628519
    93  H    0.387675
    94  C   -0.061436
    95  H    0.217100
    96  C    0.642731
    97  C   -0.394514
    98  H    0.164678
    99  H    0.190754
   100  O   -0.612315
   101  C    0.617533
   102  N   -0.751042
   103  H    0.350419
   104  H    0.341778
   105  O   -0.500006
   106  N   -0.585571
   107  H    0.379331
   108  C   -0.039728
   109  H    0.161114
   110  C    0.581224
   111  C   -0.410403
   112  H    0.162297
   113  H    0.212352
   114  O   -0.563211
   115  C    0.146653
   116  C   -0.211204
   117  H    0.211624
   118  C   -0.186710
   119  H    0.138658
   120  C   -0.184224
   121  H    0.142420
   122  C   -0.236587
   123  H    0.134798
   124  O   -0.723434
   125  H    0.470852
   126  C    0.350426
   127  N   -0.617612
   128  H    0.356895
   129  C   -0.095581
   130  H    0.155972
   131  C    0.589622
   132  C   -0.260905
   133  H    0.190066
   134  H    0.095277
   135  O   -0.558015
   136  C   -0.262559
   137  H    0.153670
   138  H    0.171076
   139  C   -0.186622
   140  H    0.160899
   141  H    0.180994
   142  N   -0.568539
   143  H    0.362224
   144  N   -0.753800
   145  H    0.402109
   146  H    0.363486
   147  N   -0.762273
   148  H    0.382565
   149  H    0.381216
   150  C    0.749782
   151  O   -0.623545
   152  H    0.421152
 Sum of Mulliken charges =   1.00000

 Dipole moment (field-independent basis, Debye):
    X=            -29.1056    Y=             11.0673    Z=             17.5936  Tot=             35.7653
 Quadrupole moment (field-independent basis, Debye-Ang):
   XX=             45.8309   YY=           -435.0601   ZZ=           -318.5932
   XY=            116.5285   XZ=           -240.6192   YZ=            -18.8019

 Normal termination of Gaussian 16 at Sat Aug 13 18:49:12 2022.
