 Gaussian 16, Revision C.01,
 Gaussian 16:  ES64L-G16RevC.01  3-Jul-2019

 ----------------------------------------------------------------------
 # B3LYP/6-31G* empiricaldispersion=gd3 guess=read geom=check nosymm in
 tegral(ultrafinegrid)
 ----------------------------------------------------------------------

 ------------------------------------------------------
 Candidate Structure: Conf:123 Charge calc in gas phase
 ------------------------------------------------------
 Structure from the checkpoint file:  "conf-123.chk"
 Charge =  1 Multiplicity = 1

                          Input orientation:
 ---------------------------------------------------------------------
 Center     Atomic      Atomic             Coordinates (Angstroms)
 Number     Number       Type             X           Y           Z
 ---------------------------------------------------------------------
      1          7           0       -0.407260   -3.899862    2.561101
      2          1           0       -0.560835   -4.165866    1.581170
      3          1           0       -0.182329   -2.894118    2.515853
      4          1           0        0.447671   -4.390075    2.944199
      5          6           0       -1.677623   -4.064008    3.357784
      6          1           0       -1.939525   -5.127834    3.334574
      7          6           0       -2.706230   -3.247489    2.552830
      8          6           0       -1.414082   -3.613741    4.820465
      9          1           0       -0.834918   -2.685580    4.752534
     10          8           0       -2.292740   -2.513081    1.656420
     11          6           0       -2.697921   -3.282387    5.595990
     12          1           0       -3.367272   -4.151770    5.663845
     13          1           0       -2.431328   -3.015164    6.623230
     14          1           0       -3.242157   -2.438353    5.161930
     15          6           0       -0.577477   -4.671060    5.561092
     16          1           0       -1.141789   -5.606999    5.663337
     17          1           0        0.372880   -4.890252    5.064225
     18          1           0       -0.345176   -4.315218    6.570165
     19          7           0       -4.018836   -3.388392    2.824922
     20          1           0       -4.311650   -3.878313    3.657851
     21          6           0       -4.971092   -2.474253    2.176598
     22          1           0       -4.935866   -2.699846    1.107493
     23          6           0       -4.460270   -1.027591    2.396913
     24          6           0       -6.411911   -2.706979    2.680825
     25          1           0       -6.642247   -3.758488    2.448873
     26          8           0       -4.273946   -0.576276    3.525252
     27          6           0       -7.408027   -1.827039    1.895121
     28          1           0       -7.171712   -0.769473    2.076083
     29          1           0       -8.402345   -1.991746    2.328162
     30          6           0       -6.581945   -2.493997    4.194273
     31          1           0       -6.378305   -1.457174    4.470540
     32          1           0       -5.913883   -3.125164    4.793755
     33          1           0       -7.606752   -2.744106    4.487704
     34          6           0       -7.470771   -2.098603    0.386711
     35          1           0       -8.277139   -1.516841   -0.071977
     36          1           0       -6.544337   -1.833398   -0.132905
     37          1           0       -7.671925   -3.158332    0.186149
     38          7           0       -4.222494   -0.352481    1.245471
     39          1           0       -4.235684   -0.913324    0.398353
     40          6           0       -3.360403    0.813294    1.176018
     41          1           0       -3.522965    1.416142    2.073340
     42          6           0       -3.666660    1.598430   -0.107102
     43          6           0       -1.857498    0.458726    0.976311
     44          1           0       -1.387722    1.324026    0.495345
     45          1           0       -1.816502   -0.336523    0.228155
     46          8           0       -3.894245    1.011313   -1.174290
     47          6           0       -0.958740    0.065378    2.128081
     48          6           0       -1.271982    0.141375    3.486107
     49          1           0       -2.265927    0.436804    3.801677
     50          6           0        0.329993   -0.358904    1.758248
     51          1           0        0.600545   -0.366414    0.707667
     52          6           0       -0.320332   -0.219701    4.449435
     53          1           0       -0.582514   -0.155874    5.502477
     54          6           0        1.277845   -0.724636    2.713854
     55          1           0        2.273823   -1.009021    2.384909
     56          6           0        0.949510   -0.663552    4.074472
     57          1           0        1.678472   -0.944941    4.829290
     58          7           0       -3.484811    2.935609   -0.025410
     59          1           0       -3.289011    3.331923    0.886192
     60          6           0       -3.174562    3.792203   -1.182715
     61          1           0       -3.331351    3.165131   -2.062650
     62          6           0       -1.670137    4.154254   -1.058039
     63          6           0       -4.059475    5.036408   -1.240260
     64          1           0       -3.796586    5.584339   -2.155079
     65          1           0       -3.785824    5.697017   -0.408872
     66          8           0       -1.284926    5.230551   -0.617752
     67          6           0       -5.571811    4.749790   -1.222183
     68          1           0       -5.808289    4.256691   -0.267970
     69          6           0       -6.347979    6.073174   -1.277247
     70          1           0       -6.159796    6.596151   -2.223617
     71          1           0       -6.056262    6.744803   -0.461173
     72          1           0       -7.427205    5.898911   -1.202330
     73          6           0       -6.005799    3.810200   -2.357874
     74          1           0       -5.719913    4.222958   -3.334661
     75          1           0       -7.094482    3.684861   -2.359194
     76          1           0       -5.559242    2.814269   -2.263884
     77          7           0       -0.829048    3.139821   -1.399416
     78          1           0       -1.197853    2.244626   -1.703645
     79          6           0        0.604627    3.147179   -1.131753
     80          1           0        1.059007    4.028184   -1.596206
     81          6           0        1.150725    1.857363   -1.755648
     82          6           0        0.874603    3.172368    0.400481
     83          1           0        0.380503    2.305451    0.847224
     84          1           0        0.392172    4.074147    0.787287
     85          8           0        0.412317    0.878176   -1.904408
     86          6           0        2.347666    3.132434    0.863164
     87          1           0        2.354218    3.131364    1.955899
     88          1           0        2.828757    2.212740    0.517939
     89          6           0        3.130713    4.347777    0.429205
     90          8           0        3.322706    5.349842    1.069305
     91          8           0        3.612506    4.215018   -0.856061
     92          7           0        2.463923    1.822090   -2.077877
     93          1           0        3.049499    2.620209   -1.850345
     94          6           0        3.075009    0.546844   -2.411903
     95          1           0        2.650883    0.177537   -3.350315
     96          6           0        2.792306   -0.473813   -1.287090
     97          6           0        4.603313    0.667142   -2.582974
     98          1           0        4.833584    1.290860   -3.451049
     99          1           0        5.044576    1.119130   -1.687608
    100          8           0        2.855880   -0.156143   -0.098996
    101          6           0        5.101061   -0.758789   -2.838012
    102          7           0        5.793542   -1.348023   -1.817340
    103          1           0        5.767343   -2.363281   -1.812821
    104          1           0        5.769991   -0.914019   -0.903986
    105          8           0        4.788248   -1.350684   -3.862881
    106          7           0        2.507869   -1.730986   -1.701496
    107          1           0        2.664411   -1.980153   -2.670951
    108          6           0        2.119421   -2.761713   -0.760920
    109          1           0        1.565907   -2.255678    0.033700
    110          6           0        3.327678   -3.470590   -0.136718
    111          6           0        1.175710   -3.797357   -1.429968
    112          1           0        1.596351   -4.066992   -2.408460
    113          1           0        1.201311   -4.719364   -0.835686
    114          8           0        4.273854   -3.900927   -0.802544
    115          6           0       -0.257311   -3.304257   -1.531730
    116          6           0       -1.331196   -4.091479   -1.086870
    117          1           0       -1.146014   -5.110175   -0.744693
    118          6           0       -0.551073   -2.026524   -2.025684
    119          1           0        0.233806   -1.377790   -2.385551
    120          6           0       -2.640427   -3.606401   -1.085457
    121          1           0       -3.462772   -4.212092   -0.717921
    122          6           0       -1.847344   -1.522917   -2.012949
    123          1           0       -2.035439   -0.510198   -2.355073
    124          8           0       -4.166359   -1.802426   -1.387764
    125          1           0       -4.158427   -0.839683   -1.592056
    126          6           0       -2.894782   -2.300025   -1.511824
    127          7           0        3.211033   -3.649154    1.199863
    128          1           0        2.418904   -3.269873    1.705800
    129          6           0        3.962059   -4.634716    1.953531
    130          1           0        4.244332   -5.414541    1.244618
    131          6           0        3.034737   -5.280418    3.027332
    132          6           0        5.223976   -4.044947    2.618691
    133          1           0        4.941411   -3.095413    3.087289
    134          1           0        5.527599   -4.703682    3.440189
    135          8           0        3.404637   -6.373962    3.517147
    136          6           0        6.403724   -3.801049    1.662356
    137          1           0        6.082770   -3.153373    0.839829
    138          1           0        7.200591   -3.273116    2.202946
    139          6           0        6.988819   -5.071198    1.020395
    140          1           0        6.252706   -5.540190    0.364902
    141          1           0        7.845147   -4.824200    0.388205
    142          7           0        7.471091   -6.053131    2.018536
    143          1           0        8.380469   -5.861359    2.422520
    144          7           0        5.536480   -7.376899    2.235348
    145          1           0        4.645915   -7.182965    2.782132
    146          1           0        5.430584   -7.321076    1.230531
    147          7           0        6.973289   -7.146354    4.010267
    148          1           0        6.426932   -7.847059    4.493832
    149          1           0        7.561495   -6.542965    4.567331
    150          6           0        6.655106   -6.842689    2.739807
    151          8           0        2.008593   -4.612074    3.341037
    152          1           0        4.058452    5.055123   -1.077568
 ---------------------------------------------------------------------

 SCF Done:  E(RB3LYP) =  -3586.90021600     A.U. after    3 cycles

 Alpha  occ. eigenvalues --  -19.27723 -19.24208 -19.21764 -19.21214 -19.21159
 Alpha  occ. eigenvalues --  -19.20756 -19.20563 -19.20559 -19.19548 -19.19336
 Alpha  occ. eigenvalues --  -19.18946 -19.18945 -19.18325 -14.52774 -14.50483
 Alpha  occ. eigenvalues --  -14.50423 -14.46995 -14.45685 -14.44928 -14.44763
 Alpha  occ. eigenvalues --  -14.44688 -14.44313 -14.42953 -14.42802 -14.42566
 Alpha  occ. eigenvalues --  -10.45755 -10.39287 -10.38890 -10.37851 -10.37611
 Alpha  occ. eigenvalues --  -10.37461 -10.37370 -10.37237 -10.36775 -10.35915
 Alpha  occ. eigenvalues --  -10.35512 -10.35460 -10.34350 -10.32334 -10.32178
 Alpha  occ. eigenvalues --  -10.31682 -10.31657 -10.31441 -10.31301 -10.30908
 Alpha  occ. eigenvalues --  -10.30130 -10.29382 -10.29320 -10.28792 -10.28480
 Alpha  occ. eigenvalues --  -10.28359 -10.27196 -10.26896 -10.26870 -10.26766
 Alpha  occ. eigenvalues --  -10.26592 -10.26513 -10.26507 -10.26437 -10.26372
 Alpha  occ. eigenvalues --  -10.26344 -10.26128 -10.25775 -10.25635 -10.25585
 Alpha  occ. eigenvalues --  -10.25493 -10.25108 -10.25050 -10.24550 -10.23961
 Alpha  occ. eigenvalues --  -10.23958 -10.23875 -10.23082 -10.21813 -10.21767
 Alpha  occ. eigenvalues --   -1.17741  -1.14667  -1.14431  -1.13233  -1.12846
 Alpha  occ. eigenvalues --   -1.12793  -1.12192  -1.11890  -1.11683  -1.10831
 Alpha  occ. eigenvalues --   -1.10598  -1.10139  -1.08922  -1.07797  -1.04367
 Alpha  occ. eigenvalues --   -1.04045  -1.01978  -1.01678  -1.01530  -1.01261
 Alpha  occ. eigenvalues --   -1.01179  -1.01042  -0.99902  -0.99223  -0.97934
 Alpha  occ. eigenvalues --   -0.92938  -0.92372  -0.90453  -0.90203  -0.88584
 Alpha  occ. eigenvalues --   -0.88336  -0.87512  -0.86935  -0.85906  -0.85837
 Alpha  occ. eigenvalues --   -0.84311  -0.82752  -0.82175  -0.81636  -0.81502
 Alpha  occ. eigenvalues --   -0.81103  -0.80881  -0.79488  -0.79140  -0.78561
 Alpha  occ. eigenvalues --   -0.77570  -0.76647  -0.75849  -0.75378  -0.73599
 Alpha  occ. eigenvalues --   -0.73402  -0.72799  -0.72545  -0.71387  -0.71047
 Alpha  occ. eigenvalues --   -0.70320  -0.69873  -0.69303  -0.69100  -0.68961
 Alpha  occ. eigenvalues --   -0.68637  -0.67894  -0.67703  -0.67462  -0.67347
 Alpha  occ. eigenvalues --   -0.67212  -0.67095  -0.67049  -0.65841  -0.65622
 Alpha  occ. eigenvalues --   -0.65403  -0.65148  -0.64616  -0.64191  -0.63924
 Alpha  occ. eigenvalues --   -0.63735  -0.63663  -0.63105  -0.62446  -0.61379
 Alpha  occ. eigenvalues --   -0.61225  -0.61020  -0.60833  -0.59805  -0.59335
 Alpha  occ. eigenvalues --   -0.59211  -0.58914  -0.58557  -0.58282  -0.57580
 Alpha  occ. eigenvalues --   -0.57340  -0.57118  -0.56750  -0.56279  -0.55933
 Alpha  occ. eigenvalues --   -0.55777  -0.55438  -0.55045  -0.54914  -0.54821
 Alpha  occ. eigenvalues --   -0.54598  -0.54401  -0.54120  -0.54003  -0.53843
 Alpha  occ. eigenvalues --   -0.53581  -0.53374  -0.53156  -0.52842  -0.52662
 Alpha  occ. eigenvalues --   -0.52378  -0.52085  -0.52029  -0.51634  -0.51565
 Alpha  occ. eigenvalues --   -0.51165  -0.50829  -0.50791  -0.50681  -0.50462
 Alpha  occ. eigenvalues --   -0.50253  -0.49982  -0.49800  -0.49312  -0.49076
 Alpha  occ. eigenvalues --   -0.48952  -0.48804  -0.48742  -0.48539  -0.48469
 Alpha  occ. eigenvalues --   -0.48418  -0.48351  -0.48092  -0.48030  -0.47845
 Alpha  occ. eigenvalues --   -0.47774  -0.47674  -0.47514  -0.47363  -0.47149
 Alpha  occ. eigenvalues --   -0.46947  -0.46823  -0.46602  -0.46524  -0.46374
 Alpha  occ. eigenvalues --   -0.46160  -0.45915  -0.45874  -0.45753  -0.45425
 Alpha  occ. eigenvalues --   -0.45031  -0.44776  -0.44651  -0.44503  -0.44195
 Alpha  occ. eigenvalues --   -0.44050  -0.43990  -0.43587  -0.43510  -0.43318
 Alpha  occ. eigenvalues --   -0.43119  -0.42878  -0.42716  -0.42562  -0.42523
 Alpha  occ. eigenvalues --   -0.42364  -0.41985  -0.41950  -0.41523  -0.41295
 Alpha  occ. eigenvalues --   -0.41097  -0.40866  -0.40660  -0.40241  -0.39800
 Alpha  occ. eigenvalues --   -0.39448  -0.39401  -0.39234  -0.39227  -0.38957
 Alpha  occ. eigenvalues --   -0.37729  -0.37454  -0.37343  -0.36377  -0.36288
 Alpha  occ. eigenvalues --   -0.35925  -0.35813  -0.35545  -0.35452  -0.35148
 Alpha  occ. eigenvalues --   -0.35022  -0.34842  -0.34624  -0.34470  -0.33972
 Alpha  occ. eigenvalues --   -0.33455  -0.33123  -0.32863  -0.32558  -0.32539
 Alpha  occ. eigenvalues --   -0.32420  -0.32127  -0.31838  -0.31706  -0.31107
 Alpha  occ. eigenvalues --   -0.30882  -0.28644
 Alpha virt. eigenvalues --   -0.12122  -0.08975  -0.08295  -0.08155  -0.07712
 Alpha virt. eigenvalues --   -0.07680  -0.07523  -0.07079  -0.06505  -0.06327
 Alpha virt. eigenvalues --   -0.05987  -0.05713  -0.05380  -0.05243  -0.04804

 Mulliken charges:
               1
     1  N   -0.793735
     2  H    0.392586
     3  H    0.414945
     4  H    0.453491
     5  C   -0.121579
     6  H    0.191003
     7  C    0.656517
     8  C   -0.089260
     9  H    0.167663
    10  O   -0.532831
    11  C   -0.501296
    12  H    0.138615
    13  H    0.172099
    14  H    0.204015
    15  C   -0.484604
    16  H    0.148116
    17  H    0.193819
    18  H    0.163923
    19  N   -0.622476
    20  H    0.346864
    21  C   -0.034722
    22  H    0.185354
    23  C    0.633823
    24  C   -0.121762
    25  H    0.136152
    26  O   -0.542626
    27  C   -0.263498
    28  H    0.151058
    29  H    0.149594
    30  C   -0.461376
    31  H    0.188964
    32  H    0.123603
    33  H    0.157951
    34  C   -0.468392
    35  H    0.158837
    36  H    0.161516
    37  H    0.146581
    38  N   -0.612899
    39  H    0.387542
    40  C   -0.072746
    41  H    0.175965
    42  C    0.634329
    43  C   -0.390237
    44  H    0.162634
    45  H    0.212371
    46  O   -0.573264
    47  C    0.181423
    48  C   -0.193971
    49  H    0.181333
    50  C   -0.220258
    51  H    0.180919
    52  C   -0.157756
    53  H    0.145640
    54  C   -0.196270
    55  H    0.151922
    56  C   -0.137163
    57  H    0.140350
    58  N   -0.578542
    59  H    0.345675
    60  C   -0.090881
    61  H    0.194178
    62  C    0.618886
    63  C   -0.261334
    64  H    0.152266
    65  H    0.158667
    66  O   -0.514410
    67  C   -0.070244
    68  H    0.123104
    69  C   -0.443403
    70  H    0.146331
    71  H    0.145023
    72  H    0.148231
    73  C   -0.467380
    74  H    0.140953
    75  H    0.148854
    76  H    0.161106
    77  N   -0.637789
    78  H    0.364722
    79  C   -0.028412
    80  H    0.183563
    81  C    0.625893
    82  C   -0.311031
    83  H    0.176119
    84  H    0.203755
    85  O   -0.551783
    86  C   -0.374213
    87  H    0.188701
    88  H    0.199426
    89  C    0.578952
    90  O   -0.429169
    91  O   -0.597805
    92  N   -0.644809
    93  H    0.389672
    94  C   -0.009581
    95  H    0.193338
    96  C    0.613592
    97  C   -0.380157
    98  H    0.198837
    99  H    0.162337
   100  O   -0.549985
   101  C    0.558718
   102  N   -0.729139
   103  H    0.366178
   104  H    0.337832
   105  O   -0.500999
   106  N   -0.584967
   107  H    0.362026
   108  C   -0.059332
   109  H    0.166976
   110  C    0.630945
   111  C   -0.377824
   112  H    0.182502
   113  H    0.143335
   114  O   -0.564380
   115  C    0.166743
   116  C   -0.236846
   117  H    0.116325
   118  C   -0.182023
   119  H    0.171021
   120  C   -0.134800
   121  H    0.137551
   122  C   -0.213604
   123  H    0.161366
   124  O   -0.689176
   125  H    0.454590
   126  C    0.362833
   127  N   -0.601456
   128  H    0.338086
   129  C   -0.053201
   130  H    0.133529
   131  C    0.609977
   132  C   -0.277499
   133  H    0.168412
   134  H    0.141984
   135  O   -0.571843
   136  C   -0.264715
   137  H    0.175982
   138  H    0.144572
   139  C   -0.185408
   140  H    0.194655
   141  H    0.190608
   142  N   -0.569615
   143  H    0.353064
   144  N   -0.747395
   145  H    0.419246
   146  H    0.357578
   147  N   -0.725127
   148  H    0.391543
   149  H    0.369331
   150  C    0.721916
   151  O   -0.603061
   152  H    0.422943
 Sum of Mulliken charges =   1.00000

 Dipole moment (field-independent basis, Debye):
    X=             13.7680    Y=            -18.8613    Z=             11.8048  Tot=             26.1660
 Quadrupole moment (field-independent basis, Debye-Ang):
   XX=           -249.7225   YY=           -323.5089   ZZ=           -403.8191
   XY=            -88.7958   XZ=             40.0438   YZ=            -85.4500

 Normal termination of Gaussian 16 at Sat Aug 13 18:52:03 2022.
