 Gaussian 16, Revision C.01,
 Gaussian 16:  ES64L-G16RevC.01  3-Jul-2019

 ----------------------------------------------------------------------
 # B3LYP/6-31G* empiricaldispersion=gd3 guess=read geom=check nosymm in
 tegral(ultrafinegrid)
 ----------------------------------------------------------------------

 ------------------------------------------------------
 Candidate Structure: Conf:446 Charge calc in gas phase
 ------------------------------------------------------
 Structure from the checkpoint file:  "conf-446.chk"
 Charge =  1 Multiplicity = 1

                          Input orientation:
 ---------------------------------------------------------------------
 Center     Atomic      Atomic             Coordinates (Angstroms)
 Number     Number       Type             X           Y           Z
 ---------------------------------------------------------------------
      1          7           0       -9.601220   -2.760744    6.518792
      2          1           0      -10.467599   -2.924284    7.037747
      3          1           0       -9.811662   -2.775035    5.476612
      4          1           0       -8.928546   -3.491026    6.766654
      5          6           0       -9.049057   -1.359692    6.700861
      6          1           0       -9.562614   -0.899870    7.548850
      7          6           0       -9.409860   -0.673883    5.359847
      8          6           0       -7.517208   -1.372778    6.934060
      9          1           0       -7.228486   -0.315048    6.977265
     10          8           0       -9.783841   -1.395320    4.425318
     11          6           0       -7.164198   -2.024838    8.278534
     12          1           0       -7.382213   -3.102426    8.292862
     13          1           0       -6.092135   -1.924042    8.470227
     14          1           0       -7.700436   -1.558489    9.112425
     15          6           0       -6.748132   -2.003873    5.761920
     16          1           0       -6.965224   -3.074198    5.642477
     17          1           0       -6.961103   -1.507530    4.810942
     18          1           0       -5.673470   -1.918404    5.943946
     19          7           0       -9.219913    0.644926    5.316519
     20          1           0       -8.737044    1.074332    6.104392
     21          6           0       -8.900001    1.363108    4.070634
     22          1           0       -9.136485    0.697650    3.235631
     23          6           0       -7.375232    1.600003    4.185918
     24          6           0       -9.714613    2.672871    3.948342
     25          1           0       -9.485811    3.275427    4.840428
     26          8           0       -6.875237    1.783013    5.304515
     27          6           0      -11.223925    2.356683    3.941025
     28          1           0      -11.450085    1.687340    4.780467
     29          1           0      -11.462555    1.795502    3.026094
     30          6           0       -9.282696    3.463294    2.703833
     31          1           0       -9.456414    2.879972    1.790041
     32          1           0       -8.224561    3.736681    2.735273
     33          1           0       -9.856867    4.389032    2.618276
     34          6           0      -12.121847    3.594705    4.041432
     35          1           0      -13.174376    3.301296    4.113176
     36          1           0      -11.878649    4.187282    4.931814
     37          1           0      -12.024238    4.247344    3.168315
     38          7           0       -6.675468    1.568141    3.046433
     39          1           0       -7.105331    1.365003    2.146939
     40          6           0       -5.226528    1.709335    2.991028
     41          1           0       -4.923073    2.546289    3.627094
     42          6           0       -4.883793    1.958388    1.516845
     43          6           0       -4.533508    0.408015    3.490036
     44          1           0       -4.930339   -0.421711    2.893401
     45          1           0       -4.854049    0.264509    4.527900
     46          8           0       -5.598690    1.473184    0.633491
     47          6           0       -3.028405    0.463933    3.388934
     48          6           0       -2.284179    1.205366    4.315786
     49          1           0       -2.794074    1.697831    5.142354
     50          6           0       -2.358201   -0.163683    2.330108
     51          1           0       -2.931173   -0.730700    1.598870
     52          6           0       -0.898083    1.312009    4.187219
     53          1           0       -0.331031    1.889720    4.912221
     54          6           0       -0.972322   -0.062462    2.200899
     55          1           0       -0.459963   -0.550664    1.376373
     56          6           0       -0.237955    0.675597    3.133719
     57          1           0        0.839160    0.758390    3.032640
     58          7           0       -3.765855    2.662771    1.284665
     59          1           0       -3.196156    3.014734    2.047001
     60          6           0       -3.173164    2.760317   -0.044716
     61          1           0       -3.267050    1.780058   -0.522793
     62          6           0       -1.701923    3.139452    0.166279
     63          6           0       -3.894585    3.828565   -0.896432
     64          1           0       -3.791541    4.786829   -0.372098
     65          1           0       -4.959224    3.565290   -0.898404
     66          8           0       -1.377035    3.925354    1.055806
     67          6           0       -3.403195    3.972959   -2.348969
     68          1           0       -2.332858    4.222585   -2.330792
     69          6           0       -3.580458    2.679563   -3.159744
     70          1           0       -4.627889    2.352958   -3.145152
     71          1           0       -2.972357    1.851406   -2.777791
     72          1           0       -3.289558    2.833428   -4.204716
     73          6           0       -4.145238    5.134634   -3.026367
     74          1           0       -5.222880    4.931956   -3.075765
     75          1           0       -3.787530    5.286124   -4.051092
     76          1           0       -4.005230    6.072947   -2.477022
     77          7           0       -0.836896    2.593571   -0.714186
     78          1           0       -1.145218    1.898951   -1.383791
     79          6           0        0.585379    2.902783   -0.755646
     80          1           0        0.706946    3.993115   -0.789886
     81          6           0        1.105795    2.266285   -2.054821
     82          6           0        1.315012    2.348387    0.492890
     83          1           0        1.246997    1.259475    0.481074
     84          1           0        0.750774    2.701536    1.358682
     85          8           0        0.541205    1.275227   -2.536795
     86          6           0        2.773283    2.791968    0.613750
     87          1           0        3.394004    2.431246   -0.216150
     88          1           0        2.869666    3.885128    0.611524
     89          6           0        3.424561    2.265586    1.868658
     90          8           0        3.025623    1.342653    2.553038
     91          8           0        4.569129    2.925900    2.150529
     92          7           0        2.187305    2.855861   -2.610844
     93          1           0        2.679096    3.551641   -2.060423
     94          6           0        3.009858    2.208944   -3.622296
     95          1           0        2.539503    1.257328   -3.876236
     96          6           0        4.402259    1.952844   -2.995927
     97          6           0        3.115034    3.058159   -4.913447
     98          1           0        2.105346    3.215347   -5.304462
     99          1           0        3.555850    4.036990   -4.690652
    100          8           0        4.749528    2.546116   -1.971331
    101          6           0        3.923808    2.258673   -5.936891
    102          7           0        5.072405    2.821823   -6.400356
    103          1           0        5.766944    2.160217   -6.735011
    104          1           0        5.454520    3.619716   -5.911539
    105          8           0        3.563613    1.125117   -6.246225
    106          7           0        5.176967    1.074853   -3.662309
    107          1           0        4.811368    0.631185   -4.497440
    108          6           0        6.403899    0.529015   -3.124175
    109          1           0        6.659792    1.133837   -2.250793
    110          6           0        7.507179    0.622851   -4.193076
    111          6           0        6.192223   -0.963343   -2.676460
    112          1           0        6.288878   -1.607036   -3.558922
    113          1           0        6.999882   -1.238310   -1.989629
    114          8           0        7.244081    0.847471   -5.379004
    115          6           0        4.827371   -1.138890   -2.054611
    116          6           0        4.574551   -0.815470   -0.716608
    117          1           0        5.405068   -0.572021   -0.057697
    118          6           0        3.733122   -1.444510   -2.877334
    119          1           0        3.902208   -1.710985   -3.918463
    120          6           0        3.270207   -0.740530   -0.221213
    121          1           0        3.076535   -0.451571    0.806799
    122          6           0        2.427978   -1.362129   -2.404633
    123          1           0        1.585687   -1.560910   -3.060532
    124          8           0        0.909023   -0.796504   -0.617015
    125          1           0        0.432151   -0.301039   -1.312058
    126          6           0        2.195218   -0.973682   -1.081492
    127          7           0        8.748412    0.383393   -3.734855
    128          1           0        8.950192    0.218980   -2.751557
    129          6           0        9.929527    0.276180   -4.582648
    130          1           0        9.678020   -0.302811   -5.476077
    131          6           0       10.999695   -0.470169   -3.743706
    132          6           0       10.384566    1.701513   -5.009745
    133          1           0        9.469653    2.212751   -5.323352
    134          1           0       10.750033    2.223897   -4.115067
    135          8           0       11.893628   -1.105520   -4.406532
    136          6           0       11.409554    1.813115   -6.164671
    137          1           0       11.380700    0.910847   -6.789302
    138          1           0       11.118635    2.641006   -6.822093
    139          6           0       12.865138    2.086311   -5.749433
    140          1           0       13.469114    2.306102   -6.639109
    141          1           0       12.901273    2.964475   -5.092405
    142          7           0       13.415775    0.923197   -5.051570
    143          1           0       12.851036    0.050922   -5.144751
    144          7           0       14.754740    2.063791   -3.510861
    145          1           0       15.356920    2.016951   -2.701770
    146          1           0       15.027234    2.735749   -4.213472
    147          7           0       14.119171   -0.169335   -3.162765
    148          1           0       14.523581   -0.147142   -2.237982
    149          1           0       13.330041   -0.827621   -3.346248
    150          6           0       14.096787    0.942812   -3.907030
    151          8           0       10.949241   -0.338968   -2.508786
    152          1           0        4.947306    2.499356    2.942724
 ---------------------------------------------------------------------

 SCF Done:  E(RB3LYP) =  -3586.84660076     A.U. after    1 cycles

 Alpha  occ. eigenvalues --  -19.26772 -19.23898 -19.21012 -19.20061 -19.18810
 Alpha  occ. eigenvalues --  -19.18546 -19.18278 -19.17015 -19.16603 -19.15623
 Alpha  occ. eigenvalues --  -19.14862 -19.12434 -19.11880 -14.59782 -14.48861
 Alpha  occ. eigenvalues --  -14.45063 -14.44930 -14.42544 -14.42206 -14.41905
 Alpha  occ. eigenvalues --  -14.41863 -14.41597 -14.40161 -14.39427 -14.38500
 Alpha  occ. eigenvalues --  -10.43221 -10.40204 -10.39601 -10.38090 -10.36639
 Alpha  occ. eigenvalues --  -10.35685 -10.35336 -10.34205 -10.33875 -10.33690
 Alpha  occ. eigenvalues --  -10.33518 -10.33458 -10.31975 -10.30987 -10.30566
 Alpha  occ. eigenvalues --  -10.29988 -10.29942 -10.29399 -10.28881 -10.28860
 Alpha  occ. eigenvalues --  -10.28780 -10.28410 -10.27665 -10.27309 -10.26199
 Alpha  occ. eigenvalues --  -10.26156 -10.25406 -10.25166 -10.25032 -10.24798
 Alpha  occ. eigenvalues --  -10.24540 -10.24116 -10.23944 -10.23822 -10.23749
 Alpha  occ. eigenvalues --  -10.23589 -10.23468 -10.23428 -10.23340 -10.23130
 Alpha  occ. eigenvalues --  -10.22876 -10.22647 -10.22596 -10.22545 -10.22395
 Alpha  occ. eigenvalues --  -10.22318 -10.22004 -10.21960 -10.21710 -10.21704
 Alpha  occ. eigenvalues --   -1.19123  -1.14914  -1.13753  -1.12906  -1.10667
 Alpha  occ. eigenvalues --   -1.10246  -1.08874  -1.08516  -1.08437  -1.07917
 Alpha  occ. eigenvalues --   -1.07474  -1.06564  -1.05814  -1.05790  -1.05376
 Alpha  occ. eigenvalues --   -1.01339  -0.99010  -0.98800  -0.98185  -0.98154
 Alpha  occ. eigenvalues --   -0.97249  -0.96648  -0.96162  -0.94952  -0.94846
 Alpha  occ. eigenvalues --   -0.94458  -0.90742  -0.90260  -0.88620  -0.86738
 Alpha  occ. eigenvalues --   -0.86292  -0.85569  -0.85142  -0.84202  -0.83655
 Alpha  occ. eigenvalues --   -0.82287  -0.81751  -0.81446  -0.80863  -0.79281
 Alpha  occ. eigenvalues --   -0.78889  -0.78578  -0.78509  -0.77952  -0.77511
 Alpha  occ. eigenvalues --   -0.76248  -0.74085  -0.73644  -0.73104  -0.73011
 Alpha  occ. eigenvalues --   -0.72761  -0.72025  -0.71832  -0.71536  -0.70876
 Alpha  occ. eigenvalues --   -0.70352  -0.69963  -0.69591  -0.68660  -0.67064
 Alpha  occ. eigenvalues --   -0.66471  -0.65911  -0.65465  -0.65107  -0.65016
 Alpha  occ. eigenvalues --   -0.64579  -0.64456  -0.64277  -0.64006  -0.63181
 Alpha  occ. eigenvalues --   -0.63077  -0.62702  -0.62454  -0.62266  -0.61988
 Alpha  occ. eigenvalues --   -0.61853  -0.61569  -0.61045  -0.60648  -0.59587
 Alpha  occ. eigenvalues --   -0.59012  -0.58385  -0.58076  -0.57465  -0.57238
 Alpha  occ. eigenvalues --   -0.57121  -0.56827  -0.56495  -0.56146  -0.55655
 Alpha  occ. eigenvalues --   -0.55304  -0.55165  -0.54928  -0.54610  -0.54415
 Alpha  occ. eigenvalues --   -0.54154  -0.53952  -0.53381  -0.52912  -0.52526
 Alpha  occ. eigenvalues --   -0.52409  -0.52289  -0.52119  -0.52002  -0.51873
 Alpha  occ. eigenvalues --   -0.51714  -0.51411  -0.51158  -0.51022  -0.50959
 Alpha  occ. eigenvalues --   -0.50544  -0.50385  -0.50334  -0.50144  -0.49958
 Alpha  occ. eigenvalues --   -0.49778  -0.49616  -0.49369  -0.49038  -0.48742
 Alpha  occ. eigenvalues --   -0.48453  -0.48098  -0.48053  -0.47918  -0.47879
 Alpha  occ. eigenvalues --   -0.47721  -0.47462  -0.47098  -0.47033  -0.46963
 Alpha  occ. eigenvalues --   -0.46887  -0.46653  -0.46464  -0.46357  -0.46258
 Alpha  occ. eigenvalues --   -0.46029  -0.45877  -0.45596  -0.45360  -0.45241
 Alpha  occ. eigenvalues --   -0.45056  -0.44976  -0.44672  -0.44576  -0.44206
 Alpha  occ. eigenvalues --   -0.44036  -0.43962  -0.43866  -0.43523  -0.43431
 Alpha  occ. eigenvalues --   -0.43315  -0.43134  -0.42945  -0.42645  -0.42032
 Alpha  occ. eigenvalues --   -0.41941  -0.41830  -0.41406  -0.41291  -0.41200
 Alpha  occ. eigenvalues --   -0.41028  -0.40837  -0.40675  -0.40481  -0.40408
 Alpha  occ. eigenvalues --   -0.40359  -0.40240  -0.39873  -0.39579  -0.39212
 Alpha  occ. eigenvalues --   -0.38919  -0.38807  -0.38634  -0.38557  -0.38337
 Alpha  occ. eigenvalues --   -0.38044  -0.37927  -0.37334  -0.37269  -0.37216
 Alpha  occ. eigenvalues --   -0.37018  -0.36048  -0.35516  -0.35028  -0.34475
 Alpha  occ. eigenvalues --   -0.34266  -0.33124  -0.32827  -0.32359  -0.32172
 Alpha  occ. eigenvalues --   -0.32096  -0.31876  -0.31599  -0.30897  -0.30625
 Alpha  occ. eigenvalues --   -0.30360  -0.30066  -0.29530  -0.29227  -0.29204
 Alpha  occ. eigenvalues --   -0.28843  -0.28748  -0.28040  -0.27803  -0.26577
 Alpha  occ. eigenvalues --   -0.26045  -0.25492
 Alpha virt. eigenvalues --   -0.12268  -0.11212  -0.07498  -0.06617  -0.05435
 Alpha virt. eigenvalues --   -0.05015  -0.04885  -0.04472  -0.04465  -0.03776
 Alpha virt. eigenvalues --   -0.03733  -0.03507  -0.03315  -0.02824  -0.02461

 Mulliken charges:
               1
     1  N   -0.759170
     2  H    0.416802
     3  H    0.434236
     4  H    0.411753
     5  C   -0.110723
     6  H    0.210684
     7  C    0.643735
     8  C   -0.133868
     9  H    0.208673
    10  O   -0.534492
    11  C   -0.464092
    12  H    0.136661
    13  H    0.202398
    14  H    0.171107
    15  C   -0.479708
    16  H    0.137199
    17  H    0.190770
    18  H    0.202196
    19  N   -0.570922
    20  H    0.362006
    21  C   -0.100739
    22  H    0.187878
    23  C    0.636437
    24  C   -0.077143
    25  H    0.141391
    26  O   -0.564138
    27  C   -0.253866
    28  H    0.132308
    29  H    0.143945
    30  C   -0.476423
    31  H    0.152664
    32  H    0.167563
    33  H    0.174515
    34  C   -0.452741
    35  H    0.158514
    36  H    0.149545
    37  H    0.161179
    38  N   -0.609183
    39  H    0.361795
    40  C   -0.032912
    41  H    0.180107
    42  C    0.622609
    43  C   -0.362074
    44  H    0.152457
    45  H    0.163422
    46  O   -0.559986
    47  C    0.153499
    48  C   -0.203372
    49  H    0.124203
    50  C   -0.193961
    51  H    0.128254
    52  C   -0.131551
    53  H    0.136721
    54  C   -0.160921
    55  H    0.181798
    56  C   -0.156025
    57  H    0.194339
    58  N   -0.609704
    59  H    0.361388
    60  C   -0.030833
    61  H    0.164772
    62  C    0.619352
    63  C   -0.258424
    64  H    0.149486
    65  H    0.161839
    66  O   -0.545853
    67  C   -0.084869
    68  H    0.130750
    69  C   -0.450845
    70  H    0.152453
    71  H    0.133895
    72  H    0.153778
    73  C   -0.443452
    74  H    0.143190
    75  H    0.147872
    76  H    0.145684
    77  N   -0.635736
    78  H    0.359492
    79  C   -0.034434
    80  H    0.167201
    81  C    0.619733
    82  C   -0.297285
    83  H    0.198608
    84  H    0.195325
    85  O   -0.562545
    86  C   -0.406948
    87  H    0.238861
    88  H    0.167494
    89  C    0.591561
    90  O   -0.466656
    91  O   -0.558745
    92  N   -0.588348
    93  H    0.350953
    94  C   -0.091957
    95  H    0.227070
    96  C    0.613275
    97  C   -0.334768
    98  H    0.192555
    99  H    0.144565
   100  O   -0.544997
   101  C    0.563354
   102  N   -0.712079
   103  H    0.372590
   104  H    0.333304
   105  O   -0.516059
   106  N   -0.590131
   107  H    0.369175
   108  C   -0.066491
   109  H    0.189650
   110  C    0.630537
   111  C   -0.379195
   112  H    0.165084
   113  H    0.164670
   114  O   -0.565828
   115  C    0.178800
   116  C   -0.189841
   117  H    0.128179
   118  C   -0.208132
   119  H    0.141253
   120  C   -0.185794
   121  H    0.167458
   122  C   -0.170420
   123  H    0.140556
   124  O   -0.688585
   125  H    0.429403
   126  C    0.338703
   127  N   -0.612816
   128  H    0.350667
   129  C   -0.019895
   130  H    0.165891
   131  C    0.582459
   132  C   -0.274054
   133  H    0.167475
   134  H    0.139622
   135  O   -0.645485
   136  C   -0.302780
   137  H    0.172501
   138  H    0.154555
   139  C   -0.148530
   140  H    0.163841
   141  H    0.157003
   142  N   -0.602666
   143  H    0.406097
   144  N   -0.753936
   145  H    0.359794
   146  H    0.366104
   147  N   -0.755204
   148  H    0.344909
   149  H    0.412486
   150  C    0.755671
   151  O   -0.565267
   152  H    0.411289
 Sum of Mulliken charges =   1.00000

 Dipole moment (field-independent basis, Debye):
    X=            -17.0410    Y=              3.0965    Z=             21.4221  Tot=             27.5479
 Quadrupole moment (field-independent basis, Debye-Ang):
   XX=            218.6486   YY=           -390.3899   ZZ=           -251.4640
   XY=            152.8125   XZ=           -304.3189   YZ=            -96.4506

 Normal termination of Gaussian 16 at Sat Aug 13 18:46:34 2022.
