 Gaussian 16, Revision C.01,
 Gaussian 16:  ES64L-G16RevC.01  3-Jul-2019

 ----------------------------------------------------------------------
 # B3LYP/6-31G* empiricaldispersion=gd3 guess=read geom=check nosymm in
 tegral(ultrafinegrid)
 ----------------------------------------------------------------------

 ------------------------------------------------------
 Candidate Structure: Conf:883 Charge calc in gas phase
 ------------------------------------------------------
 Structure from the checkpoint file:  "conf-883.chk"
 Charge =  1 Multiplicity = 1

                          Input orientation:
 ---------------------------------------------------------------------
 Center     Atomic      Atomic             Coordinates (Angstroms)
 Number     Number       Type             X           Y           Z
 ---------------------------------------------------------------------
      1          7           0      -10.090894    5.740546    1.801066
      2          1           0      -10.612231    5.254628    1.065941
      3          1           0      -10.385218    5.342819    2.742957
      4          1           0      -10.286076    6.742210    1.731975
      5          6           0       -8.606613    5.417109    1.790885
      6          1           0       -8.339527    5.054800    0.794345
      7          6           0       -8.533423    4.285697    2.854828
      8          6           0       -7.780908    6.679224    2.143579
      9          1           0       -8.127855    7.026532    3.127889
     10          8           0       -9.468961    4.210867    3.670358
     11          6           0       -6.281821    6.348827    2.245179
     12          1           0       -5.904865    5.919738    1.308407
     13          1           0       -5.720802    7.268965    2.431015
     14          1           0       -6.055627    5.653809    3.056134
     15          6           0       -8.000360    7.791942    1.102489
     16          1           0       -7.675263    7.466559    0.107379
     17          1           0       -9.041319    8.134278    1.021521
     18          1           0       -7.412147    8.672881    1.374270
     19          7           0       -7.479451    3.489521    2.806647
     20          1           0       -6.720650    3.622935    2.136267
     21          6           0       -7.194934    2.412866    3.757224
     22          1           0       -7.492572    2.749928    4.753997
     23          6           0       -5.667971    2.240944    3.668171
     24          6           0       -7.993124    1.125196    3.380233
     25          1           0       -9.041469    1.456605    3.374586
     26          8           0       -5.056357    2.693023    2.696118
     27          6           0       -7.868986   -0.006916    4.419746
     28          1           0       -6.856594   -0.426758    4.377621
     29          1           0       -8.529868   -0.814576    4.081620
     30          6           0       -7.613424    0.611483    1.983938
     31          1           0       -6.594495    0.215385    1.977321
     32          1           0       -7.686336    1.394683    1.220840
     33          1           0       -8.287248   -0.200013    1.690267
     34          6           0       -8.263102    0.372262    5.853519
     35          1           0       -8.281473   -0.513455    6.496457
     36          1           0       -7.572254    1.088586    6.319498
     37          1           0       -9.260093    0.827939    5.883199
     38          7           0       -5.057049    1.584445    4.678404
     39          1           0       -5.638346    1.099350    5.348572
     40          6           0       -3.706681    1.061952    4.476119
     41          1           0       -3.040215    1.908194    4.285057
     42          6           0       -3.715963    0.106931    3.265108
     43          6           0       -3.232795    0.293293    5.729425
     44          1           0       -3.971680   -0.486506    5.952588
     45          1           0       -3.207957    0.987128    6.578181
     46          8           0       -4.641010   -0.695502    3.118671
     47          6           0       -1.875046   -0.331718    5.489567
     48          6           0       -1.773088   -1.658795    5.052682
     49          1           0       -2.674187   -2.259827    4.957524
     50          6           0       -0.711262    0.441127    5.582790
     51          1           0       -0.777298    1.472905    5.922880
     52          6           0       -0.534438   -2.199701    4.706578
     53          1           0       -0.472151   -3.227252    4.359756
     54          6           0        0.528352   -0.096632    5.234365
     55          1           0        1.421865    0.517259    5.303177
     56          6           0        0.618213   -1.417087    4.791419
     57          1           0        1.581697   -1.833066    4.511296
     58          7           0       -2.650535    0.207610    2.454613
     59          1           0       -1.866515    0.798579    2.712341
     60          6           0       -2.367999   -0.721831    1.374227
     61          1           0       -2.911290   -1.650021    1.573166
     62          6           0       -0.856086   -0.954083    1.369583
     63          6           0       -2.761367   -0.135948   -0.004686
     64          1           0       -2.425218   -0.822284   -0.791464
     65          1           0       -2.173810    0.780190   -0.146146
     66          8           0       -0.085067   -0.076844    1.760766
     67          6           0       -4.258150    0.175331   -0.174588
     68          1           0       -4.568738    0.815958    0.662140
     69          6           0       -4.469414    0.962305   -1.476652
     70          1           0       -4.161780    0.370787   -2.347884
     71          1           0       -3.886075    1.890589   -1.484928
     72          1           0       -5.527336    1.221913   -1.608493
     73          6           0       -5.115774   -1.097972   -0.161317
     74          1           0       -4.792390   -1.792036   -0.948321
     75          1           0       -6.169265   -0.857238   -0.348456
     76          1           0       -5.064395   -1.607778    0.804951
     77          7           0       -0.428787   -2.138088    0.850978
     78          1           0       -1.121486   -2.669381    0.335802
     79          6           0        0.921925   -2.196353    0.294415
     80          1           0        1.616826   -1.914351    1.091600
     81          6           0        0.997494   -1.176572   -0.864188
     82          6           0        1.220029   -3.616132   -0.205385
     83          1           0        0.559207   -3.847134   -1.049380
     84          1           0        0.976499   -4.329015    0.589830
     85          8           0        0.023037   -0.979160   -1.583609
     86          6           0        2.676648   -3.812307   -0.632858
     87          1           0        2.979994   -3.123472   -1.430703
     88          1           0        3.367836   -3.616360    0.197633
     89          6           0        2.922483   -5.224845   -1.119109
     90          8           0        2.082323   -6.092647   -1.211284
     91          8           0        4.220982   -5.412165   -1.448446
     92          7           0        2.181960   -0.533077   -0.994774
     93          1           0        3.004850   -0.877437   -0.509027
     94          6           0        2.492932    0.323888   -2.127219
     95          1           0        1.694332    0.207273   -2.865840
     96          6           0        3.839752   -0.148490   -2.699593
     97          6           0        2.587544    1.810237   -1.700237
     98          1           0        3.271950    1.880682   -0.846941
     99          1           0        3.012528    2.402534   -2.513169
    100          8           0        4.618484   -0.804488   -2.005742
    101          6           0        1.209181    2.378629   -1.364792
    102          7           0        0.761248    2.129176   -0.091020
    103          1           0       -0.219878    2.322451    0.063326
    104          1           0        1.118397    1.341149    0.434603
    105          8           0        0.562888    3.027341   -2.174823
    106          7           0        4.056458    0.198040   -3.989035
    107          1           0        3.428794    0.892290   -4.380827
    108          6           0        5.397176    0.233317   -4.551121
    109          1           0        5.955790   -0.589306   -4.094787
    110          6           0        6.066814    1.570756   -4.131093
    111          6           0        5.336933    0.024439   -6.086963
    112          1           0        6.356889   -0.055324   -6.476250
    113          1           0        4.854933   -0.944668   -6.261321
    114          8           0        5.492622    2.350421   -3.364361
    115          6           0        4.594158    1.126455   -6.813411
    116          6           0        3.196089    1.095570   -6.938381
    117          1           0        2.643854    0.233749   -6.567636
    118          6           0        5.285162    2.226284   -7.342540
    119          1           0        6.372068    2.265239   -7.288000
    120          6           0        2.496688    2.135629   -7.546900
    121          1           0        1.416094    2.110567   -7.645689
    122          6           0        4.594633    3.269270   -7.956949
    123          1           0        5.147914    4.112741   -8.366930
    124          8           0        2.471083    4.230221   -8.645211
    125          1           0        3.081395    4.912863   -8.964618
    126          6           0        3.199712    3.232179   -8.054779
    127          7           0        7.297893    1.779264   -4.639433
    128          1           0        7.613184    1.260240   -5.470006
    129          6           0        7.896555    3.105707   -4.729092
    130          1           0        7.097772    3.856592   -4.780055
    131          6           0        8.738621    3.149928   -6.074316
    132          6           0        8.814400    3.443009   -3.555990
    133          1           0        9.637179    2.705479   -3.588004
    134          1           0        9.260619    4.417771   -3.783636
    135          8           0        9.466623    4.148552   -6.199679
    136          6           0        8.134582    3.437110   -2.182100
    137          1           0        7.212608    4.024534   -2.217989
    138          1           0        7.828068    2.421921   -1.908263
    139          6           0        9.031926    4.027055   -1.089233
    140          1           0        9.202856    5.095111   -1.281073
    141          1           0        8.587114    3.906865   -0.093820
    142          7           0       10.340667    3.336138   -1.097711
    143          1           0       10.544551    2.825755   -1.951165
    144          7           0       11.212978    4.398707    0.770528
    145          1           0       11.799098    4.336461    1.590055
    146          1           0       10.426855    5.030621    0.807304
    147          7           0       12.424319    2.722113   -0.270423
    148          1           0       13.292177    3.068880    0.114407
    149          1           0       12.511261    2.021843   -0.994669
    150          6           0       11.314000    3.492566   -0.217987
    151          8           0        8.566900    2.149370   -6.829143
    152          1           0        4.298162   -6.332644   -1.763228
 ---------------------------------------------------------------------

 SCF Done:  E(RB3LYP) =  -3586.76708273     A.U. after    3 cycles

 Alpha  occ. eigenvalues --  -19.26374 -19.23683 -19.22020 -19.19007 -19.18784
 Alpha  occ. eigenvalues --  -19.18374 -19.18209 -19.16470 -19.15597 -19.13503
 Alpha  occ. eigenvalues --  -19.12866 -19.06071 -19.05100 -14.59755 -14.50403
 Alpha  occ. eigenvalues --  -14.49997 -14.49423 -14.48989 -14.45545 -14.42413
 Alpha  occ. eigenvalues --  -14.42267 -14.40815 -14.38834 -14.37441 -14.35045
 Alpha  occ. eigenvalues --  -10.46239 -10.43115 -10.40392 -10.38740 -10.36450
 Alpha  occ. eigenvalues --  -10.35423 -10.35281 -10.34471 -10.33809 -10.33577
 Alpha  occ. eigenvalues --  -10.32395 -10.32040 -10.31497 -10.31181 -10.31121
 Alpha  occ. eigenvalues --  -10.29702 -10.29510 -10.29285 -10.29123 -10.28405
 Alpha  occ. eigenvalues --  -10.27580 -10.27339 -10.26028 -10.25919 -10.25906
 Alpha  occ. eigenvalues --  -10.25661 -10.25383 -10.25171 -10.25025 -10.25018
 Alpha  occ. eigenvalues --  -10.24859 -10.24809 -10.24748 -10.24669 -10.24657
 Alpha  occ. eigenvalues --  -10.24023 -10.23925 -10.23527 -10.23506 -10.22492
 Alpha  occ. eigenvalues --  -10.21872 -10.21578 -10.21546 -10.21330 -10.21245
 Alpha  occ. eigenvalues --  -10.20359 -10.20144 -10.19697 -10.19670 -10.19063
 Alpha  occ. eigenvalues --   -1.18884  -1.14790  -1.14633  -1.14170  -1.13456
 Alpha  occ. eigenvalues --   -1.10885  -1.09977  -1.08502  -1.07188  -1.06957
 Alpha  occ. eigenvalues --   -1.05779  -1.05713  -1.05264  -1.04247  -1.03760
 Alpha  occ. eigenvalues --   -1.03163  -1.02015  -0.99241  -0.99036  -0.98909
 Alpha  occ. eigenvalues --   -0.97397  -0.95761  -0.95153  -0.92412  -0.92253
 Alpha  occ. eigenvalues --   -0.91885  -0.90461  -0.90220  -0.87121  -0.86438
 Alpha  occ. eigenvalues --   -0.86399  -0.86257  -0.86161  -0.85442  -0.82673
 Alpha  occ. eigenvalues --   -0.82450  -0.81476  -0.81334  -0.80291  -0.80275
 Alpha  occ. eigenvalues --   -0.80011  -0.78912  -0.78699  -0.77544  -0.76712
 Alpha  occ. eigenvalues --   -0.75575  -0.74860  -0.74586  -0.73819  -0.73142
 Alpha  occ. eigenvalues --   -0.72735  -0.72525  -0.72457  -0.71874  -0.71054
 Alpha  occ. eigenvalues --   -0.70586  -0.70373  -0.70009  -0.69435  -0.68397
 Alpha  occ. eigenvalues --   -0.68242  -0.66871  -0.66531  -0.65929  -0.65635
 Alpha  occ. eigenvalues --   -0.65421  -0.64507  -0.63911  -0.63829  -0.63498
 Alpha  occ. eigenvalues --   -0.63333  -0.63202  -0.62960  -0.62704  -0.62512
 Alpha  occ. eigenvalues --   -0.61915  -0.61482  -0.60806  -0.60240  -0.59646
 Alpha  occ. eigenvalues --   -0.59219  -0.59075  -0.58595  -0.58407  -0.57564
 Alpha  occ. eigenvalues --   -0.57469  -0.57322  -0.56758  -0.56358  -0.55964
 Alpha  occ. eigenvalues --   -0.55890  -0.55375  -0.55284  -0.55215  -0.54766
 Alpha  occ. eigenvalues --   -0.54132  -0.53979  -0.53501  -0.53160  -0.52864
 Alpha  occ. eigenvalues --   -0.52799  -0.52523  -0.52372  -0.52084  -0.51954
 Alpha  occ. eigenvalues --   -0.51810  -0.51557  -0.51430  -0.51164  -0.50847
 Alpha  occ. eigenvalues --   -0.50811  -0.50253  -0.50208  -0.49879  -0.49654
 Alpha  occ. eigenvalues --   -0.49175  -0.49104  -0.48903  -0.48577  -0.48204
 Alpha  occ. eigenvalues --   -0.48009  -0.47966  -0.47836  -0.47707  -0.47508
 Alpha  occ. eigenvalues --   -0.47475  -0.47206  -0.47058  -0.46976  -0.46773
 Alpha  occ. eigenvalues --   -0.46703  -0.46508  -0.46316  -0.45687  -0.45557
 Alpha  occ. eigenvalues --   -0.45305  -0.44824  -0.44644  -0.44430  -0.44339
 Alpha  occ. eigenvalues --   -0.44253  -0.43981  -0.43760  -0.43609  -0.43409
 Alpha  occ. eigenvalues --   -0.43216  -0.42832  -0.42758  -0.42571  -0.42489
 Alpha  occ. eigenvalues --   -0.42272  -0.42207  -0.42110  -0.41619  -0.41542
 Alpha  occ. eigenvalues --   -0.41432  -0.41424  -0.41299  -0.41157  -0.40996
 Alpha  occ. eigenvalues --   -0.40887  -0.40771  -0.40598  -0.40372  -0.40288
 Alpha  occ. eigenvalues --   -0.40223  -0.40010  -0.39938  -0.39740  -0.38888
 Alpha  occ. eigenvalues --   -0.38395  -0.38261  -0.38047  -0.37701  -0.37599
 Alpha  occ. eigenvalues --   -0.37276  -0.37191  -0.37027  -0.36462  -0.35991
 Alpha  occ. eigenvalues --   -0.35941  -0.35563  -0.35545  -0.35395  -0.34522
 Alpha  occ. eigenvalues --   -0.33760  -0.33705  -0.33212  -0.32745  -0.32082
 Alpha  occ. eigenvalues --   -0.31946  -0.31505  -0.30992  -0.30835  -0.30228
 Alpha  occ. eigenvalues --   -0.30077  -0.29544  -0.29267  -0.28987  -0.26965
 Alpha  occ. eigenvalues --   -0.26790  -0.26264  -0.26043  -0.22841  -0.21321
 Alpha  occ. eigenvalues --   -0.20792  -0.19384
 Alpha virt. eigenvalues --   -0.12168  -0.10857  -0.10394  -0.07998  -0.06480
 Alpha virt. eigenvalues --   -0.06368  -0.06344  -0.06191  -0.04943  -0.04378
 Alpha virt. eigenvalues --   -0.04201  -0.03159  -0.02679  -0.02530  -0.01927

 Mulliken charges:
               1
     1  N   -0.759196
     2  H    0.416586
     3  H    0.431829
     4  H    0.409270
     5  C   -0.104753
     6  H    0.207683
     7  C    0.651243
     8  C   -0.108986
     9  H    0.168054
    10  O   -0.550260
    11  C   -0.475246
    12  H    0.172838
    13  H    0.188095
    14  H    0.183938
    15  C   -0.471818
    16  H    0.179935
    17  H    0.136889
    18  H    0.201722
    19  N   -0.602474
    20  H    0.380201
    21  C   -0.083076
    22  H    0.191255
    23  C    0.647678
    24  C   -0.076842
    25  H    0.145919
    26  O   -0.546786
    27  C   -0.295668
    28  H    0.177541
    29  H    0.158208
    30  C   -0.491937
    31  H    0.223662
    32  H    0.121603
    33  H    0.160408
    34  C   -0.471282
    35  H    0.171161
    36  H    0.129356
    37  H    0.160801
    38  N   -0.612344
    39  H    0.355091
    40  C   -0.034277
    41  H    0.173055
    42  C    0.645770
    43  C   -0.389222
    44  H    0.165291
    45  H    0.167120
    46  O   -0.554489
    47  C    0.148613
    48  C   -0.178242
    49  H    0.143961
    50  C   -0.190096
    51  H    0.126197
    52  C   -0.133079
    53  H    0.141600
    54  C   -0.112977
    55  H    0.138125
    56  C   -0.114131
    57  H    0.135618
    58  N   -0.579195
    59  H    0.355872
    60  C   -0.084423
    61  H    0.176606
    62  C    0.652903
    63  C   -0.259309
    64  H    0.171017
    65  H    0.146292
    66  O   -0.556800
    67  C   -0.085287
    68  H    0.142040
    69  C   -0.442984
    70  H    0.156030
    71  H    0.147228
    72  H    0.122384
    73  C   -0.466079
    74  H    0.137243
    75  H    0.135630
    76  H    0.171675
    77  N   -0.595654
    78  H    0.341883
    79  C   -0.053261
    80  H    0.165977
    81  C    0.613144
    82  C   -0.287207
    83  H    0.176145
    84  H    0.170926
    85  O   -0.531906
    86  C   -0.381931
    87  H    0.209081
    88  H    0.176605
    89  C    0.585352
    90  O   -0.459171
    91  O   -0.563380
    92  N   -0.603350
    93  H    0.346906
    94  C   -0.103860
    95  H    0.203241
    96  C    0.640688
    97  C   -0.346627
    98  H    0.151260
    99  H    0.211893
   100  O   -0.551191
   101  C    0.566752
   102  N   -0.747979
   103  H    0.326516
   104  H    0.357286
   105  O   -0.502546
   106  N   -0.581062
   107  H    0.349847
   108  C   -0.081395
   109  H    0.185736
   110  C    0.614995
   111  C   -0.378975
   112  H    0.181660
   113  H    0.154089
   114  O   -0.559006
   115  C    0.135236
   116  C   -0.214699
   117  H    0.123023
   118  C   -0.206461
   119  H    0.205658
   120  C   -0.155423
   121  H    0.134113
   122  C   -0.207710
   123  H    0.130973
   124  O   -0.647060
   125  H    0.407464
   126  C    0.351238
   127  N   -0.616195
   128  H    0.357355
   129  C   -0.074204
   130  H    0.155228
   131  C    0.582114
   132  C   -0.281767
   133  H    0.110066
   134  H    0.171668
   135  O   -0.588048
   136  C   -0.295558
   137  H    0.193219
   138  H    0.173453
   139  C   -0.163276
   140  H    0.180306
   141  H    0.169108
   142  N   -0.588215
   143  H    0.372402
   144  N   -0.757368
   145  H    0.379670
   146  H    0.391867
   147  N   -0.758880
   148  H    0.377620
   149  H    0.385370
   150  C    0.816018
   151  O   -0.604095
   152  H    0.414336
 Sum of Mulliken charges =   1.00000

 Dipole moment (field-independent basis, Debye):
    X=            -16.2235    Y=             23.0755    Z=             28.5666  Tot=             40.1464
 Quadrupole moment (field-independent basis, Debye-Ang):
   XX=            182.7562   YY=           -280.3419   ZZ=           -513.9371
   XY=           -138.5431   XZ=             81.8922   YZ=             96.1655

 Normal termination of Gaussian 16 at Sat Aug 13 18:48:09 2022.
