 Gaussian 16, Revision C.01,
 Gaussian 16:  ES64L-G16RevC.01  3-Jul-2019

 ----------------------------------------------------------------------
 # B3LYP/6-31G* empiricaldispersion=gd3 guess=read geom=check nosymm in
 tegral(ultrafinegrid)
 ----------------------------------------------------------------------

 ------------------------------------------------------
 Candidate Structure: Conf:779 Charge calc in gas phase
 ------------------------------------------------------
 Structure from the checkpoint file:  "conf-779.chk"
 Charge =  1 Multiplicity = 1

                          Input orientation:
 ---------------------------------------------------------------------
 Center     Atomic      Atomic             Coordinates (Angstroms)
 Number     Number       Type             X           Y           Z
 ---------------------------------------------------------------------
      1          7           0      -10.948231    5.066643    4.769187
      2          1           0      -11.447695    5.470412    3.972471
      3          1           0      -11.240459    4.044583    4.879536
      4          1           0      -11.170105    5.610194    5.607377
      5          6           0       -9.456208    4.921179    4.526292
      6          1           0       -9.192605    5.531629    3.659219
      7          6           0       -9.331790    3.404582    4.214965
      8          6           0       -8.658273    5.379097    5.773630
      9          1           0       -9.016150    6.396940    5.993620
     10          8           0      -10.302435    2.681350    4.501684
     11          6           0       -8.920558    4.482411    6.993868
     12          1           0       -8.541566    3.469092    6.825209
     13          1           0       -8.407166    4.890924    7.868714
     14          1           0       -9.983704    4.398662    7.251955
     15          6           0       -7.154931    5.487401    5.469731
     16          1           0       -6.686957    4.508246    5.329552
     17          1           0       -6.961132    6.094859    4.577977
     18          1           0       -6.651891    5.970511    6.312416
     19          7           0       -8.186918    2.997318    3.696336
     20          1           0       -7.407546    3.632798    3.525337
     21          6           0       -7.826295    1.598555    3.458330
     22          1           0       -8.293736    0.993726    4.239955
     23          6           0       -6.292769    1.585443    3.597678
     24          6           0       -8.333924    1.128840    2.060193
     25          1           0       -9.415551    1.325658    2.090831
     26          8           0       -5.658305    2.640776    3.501015
     27          6           0       -8.141000   -0.380461    1.810057
     28          1           0       -7.072507   -0.591425    1.682993
     29          1           0       -8.596489   -0.596183    0.835683
     30          6           0       -7.699565    1.945349    0.925347
     31          1           0       -6.631635    1.727804    0.840378
     32          1           0       -7.825355    3.024270    1.072266
     33          1           0       -8.169805    1.685082   -0.028514
     34          6           0       -8.777046   -1.304825    2.856895
     35          1           0       -8.719296   -2.349557    2.535441
     36          1           0       -8.289537   -1.248583    3.840143
     37          1           0       -9.834795   -1.060506    3.012446
     38          7           0       -5.711857    0.390974    3.831168
     39          1           0       -6.282859   -0.437213    3.726498
     40          6           0       -4.274885    0.220089    3.624237
     41          1           0       -3.753924    0.924040    4.279213
     42          6           0       -3.946261    0.534015    2.147949
     43          6           0       -3.874553   -1.226521    3.979893
     44          1           0       -4.426634   -1.907135    3.319184
     45          1           0       -4.201992   -1.424814    5.008572
     46          8           0       -4.748095    0.235130    1.259567
     47          6           0       -2.386568   -1.458777    3.839233
     48          6           0       -1.870575   -2.195601    2.767075
     49          1           0       -2.552260   -2.632510    2.040680
     50          6           0       -1.497776   -0.891201    4.762267
     51          1           0       -1.888246   -0.322053    5.604352
     52          6           0       -0.493420   -2.374005    2.626129
     53          1           0       -0.088706   -2.952198    1.801775
     54          6           0       -0.120762   -1.055935    4.615763
     55          1           0        0.556532   -0.608030    5.337663
     56          6           0        0.383148   -1.801515    3.548986
     57          1           0        1.450914   -1.947401    3.425939
     58          7           0       -2.760717    1.130491    1.935438
     59          1           0       -2.076749    1.209504    2.683238
     60          6           0       -2.236616    1.416385    0.608182
     61          1           0       -2.725061    0.742001   -0.100745
     62          6           0       -0.724310    1.150229    0.659649
     63          6           0       -2.475095    2.890236    0.207753
     64          1           0       -1.974446    3.070740   -0.754133
     65          1           0       -1.962563    3.514000    0.952113
     66          8           0       -0.092670    1.281367    1.709180
     67          6           0       -3.951422    3.313906    0.100592
     68          1           0       -4.450344    3.045987    1.041674
     69          6           0       -4.039756    4.838803   -0.060652
     70          1           0       -3.544487    5.166917   -0.983710
     71          1           0       -3.563345    5.360244    0.778442
     72          1           0       -5.085324    5.166424   -0.113729
     73          6           0       -4.669243    2.602426   -1.055105
     74          1           0       -4.161179    2.797695   -2.008778
     75          1           0       -5.700115    2.963826   -1.151751
     76          1           0       -4.714958    1.522006   -0.893573
     77          7           0       -0.160921    0.827485   -0.522744
     78          1           0       -0.711081    0.697415   -1.366056
     79          6           0        1.259555    0.564365   -0.680355
     80          1           0        1.822224    1.343801   -0.151954
     81          6           0        1.534207    0.617873   -2.191414
     82          6           0        1.620104   -0.816880   -0.082983
     83          1           0        1.129377   -1.596698   -0.676344
     84          1           0        1.178734   -0.848471    0.914911
     85          8           0        0.627811    0.441835   -3.003893
     86          6           0        3.118379   -1.102620    0.032356
     87          1           0        3.629710   -1.171352   -0.934282
     88          1           0        3.632101   -0.299907    0.580736
     89          6           0        3.381782   -2.390857    0.781844
     90          8           0        2.543506   -3.090849    1.313087
     91          8           0        4.699202   -2.688116    0.803542
     92          7           0        2.824380    0.833954   -2.540373
     93          1           0        3.550152    0.862217   -1.831829
     94          6           0        3.323507    0.600493   -3.882542
     95          1           0        2.574066    0.038149   -4.443475
     96          6           0        4.633565   -0.200940   -3.738679
     97          6           0        3.583013    1.932543   -4.632355
     98          1           0        2.624679    2.452490   -4.727719
     99          1           0        4.260457    2.561371   -4.043452
    100          8           0        5.287471   -0.137226   -2.693318
    101          6           0        4.122393    1.623004   -6.027438
    102          7           0        5.309465    2.195268   -6.366877
    103          1           0        5.826549    1.724217   -7.104183
    104          1           0        5.885968    2.593052   -5.638056
    105          8           0        3.515760    0.848734   -6.764246
    106          7           0        4.998409   -0.927096   -4.820243
    107          1           0        4.471029   -0.798608   -5.680022
    108          6           0        6.345130   -1.489187   -4.948974
    109          1           0        6.678968   -1.727955   -3.937003
    110          6           0        7.246343   -0.411162   -5.589705
    111          6           0        6.304960   -2.746244   -5.821535
    112          1           0        5.497199   -3.387128   -5.444184
    113          1           0        6.015411   -2.430213   -6.832485
    114          8           0        7.107015   -0.100466   -6.773103
    115          6           0        7.598415   -3.542100   -5.899654
    116          6           0        8.773198   -3.213260   -5.209158
    117          1           0        8.833851   -2.343896   -4.565463
    118          6           0        7.624825   -4.680364   -6.717182
    119          1           0        6.730639   -4.961077   -7.270095
    120          6           0        9.929602   -3.982044   -5.331845
    121          1           0       10.833846   -3.703258   -4.800820
    122          6           0        8.769578   -5.462469   -6.845180
    123          1           0        8.761442   -6.341515   -7.487611
    124          8           0       11.093657   -5.834369   -6.233125
    125          1           0       10.963391   -6.571849   -6.848953
    126          6           0        9.933351   -5.112420   -6.149976
    127          7           0        8.129433    0.178390   -4.747777
    128          1           0        8.307864   -0.276030   -3.854945
    129          6           0        9.312766    0.877347   -5.235291
    130          1           0        9.389042    0.713466   -6.313223
    131          6           0       10.554317    0.276833   -4.522511
    132          6           0        9.238793    2.397890   -4.975563
    133          1           0       10.085857    2.865290   -5.492213
    134          1           0        8.337882    2.779884   -5.469251
    135          8           0       11.681506    0.703955   -4.944995
    136          6           0        9.228487    2.785247   -3.472481
    137          1           0        8.368557    3.427612   -3.247313
    138          1           0        9.117828    1.889760   -2.849692
    139          6           0       10.488937    3.542325   -3.019396
    140          1           0       10.632475    4.446225   -3.621140
    141          1           0       10.379128    3.869300   -1.981275
    142          7           0       11.703159    2.726588   -3.161894
    143          1           0       11.801628    2.292419   -4.093257
    144          7           0       12.055089    2.225517   -0.899197
    145          1           0       12.529885    1.661897   -0.209472
    146          1           0       11.870550    3.180392   -0.630247
    147          7           0       12.911402    0.858123   -2.596957
    148          1           0       13.223263    0.194693   -1.901831
    149          1           0       12.638088    0.487547   -3.539499
    150          6           0       12.214619    1.928797   -2.212649
    151          8           0       10.359653   -0.473633   -3.543769
    152          1           0        4.789563   -3.525625    1.296474
 ---------------------------------------------------------------------

 SCF Done:  E(RB3LYP) =  -3586.83452493     A.U. after    1 cycles

 Alpha  occ. eigenvalues --  -19.26536 -19.24178 -19.21828 -19.19654 -19.18864
 Alpha  occ. eigenvalues --  -19.17971 -19.17228 -19.16963 -19.16932 -19.15362
 Alpha  occ. eigenvalues --  -19.14734 -19.12912 -19.12617 -14.59779 -14.49053
 Alpha  occ. eigenvalues --  -14.45275 -14.45161 -14.42519 -14.41944 -14.41661
 Alpha  occ. eigenvalues --  -14.41366 -14.41192 -14.40627 -14.39272 -14.38376
 Alpha  occ. eigenvalues --  -10.43194 -10.40417 -10.39810 -10.38545 -10.36991
 Alpha  occ. eigenvalues --  -10.35069 -10.34514 -10.34332 -10.34068 -10.33802
 Alpha  occ. eigenvalues --  -10.33641 -10.33221 -10.31683 -10.31065 -10.30438
 Alpha  occ. eigenvalues --  -10.30414 -10.29726 -10.29369 -10.28957 -10.28738
 Alpha  occ. eigenvalues --  -10.28652 -10.28222 -10.26793 -10.26745 -10.26598
 Alpha  occ. eigenvalues --  -10.25591 -10.25415 -10.25104 -10.25035 -10.24978
 Alpha  occ. eigenvalues --  -10.24754 -10.24491 -10.24222 -10.24050 -10.23965
 Alpha  occ. eigenvalues --  -10.23956 -10.23776 -10.23760 -10.23751 -10.23390
 Alpha  occ. eigenvalues --  -10.23221 -10.23145 -10.22507 -10.22173 -10.21611
 Alpha  occ. eigenvalues --  -10.21375 -10.21017 -10.20935 -10.20552 -10.19989
 Alpha  occ. eigenvalues --   -1.19020  -1.15201  -1.13958  -1.13385  -1.09944
 Alpha  occ. eigenvalues --   -1.09551  -1.08768  -1.08650  -1.08358  -1.07614
 Alpha  occ. eigenvalues --   -1.07216  -1.06624  -1.06167  -1.05855  -1.05807
 Alpha  occ. eigenvalues --   -1.01798  -0.98598  -0.98416  -0.98125  -0.97801
 Alpha  occ. eigenvalues --   -0.97233  -0.97131  -0.96182  -0.95129  -0.94883
 Alpha  occ. eigenvalues --   -0.94326  -0.90946  -0.90167  -0.87279  -0.86764
 Alpha  occ. eigenvalues --   -0.86179  -0.85708  -0.85347  -0.84456  -0.83474
 Alpha  occ. eigenvalues --   -0.82428  -0.81379  -0.81280  -0.81090  -0.79878
 Alpha  occ. eigenvalues --   -0.79159  -0.78638  -0.78575  -0.77601  -0.76558
 Alpha  occ. eigenvalues --   -0.75581  -0.75333  -0.73740  -0.73000  -0.72726
 Alpha  occ. eigenvalues --   -0.72676  -0.72621  -0.72097  -0.71042  -0.70405
 Alpha  occ. eigenvalues --   -0.70281  -0.69670  -0.69051  -0.68378  -0.67776
 Alpha  occ. eigenvalues --   -0.66078  -0.65780  -0.65477  -0.65251  -0.65200
 Alpha  occ. eigenvalues --   -0.64993  -0.64238  -0.64056  -0.63590  -0.63229
 Alpha  occ. eigenvalues --   -0.63041  -0.62803  -0.62286  -0.62065  -0.62040
 Alpha  occ. eigenvalues --   -0.61827  -0.60908  -0.60766  -0.60538  -0.59937
 Alpha  occ. eigenvalues --   -0.59287  -0.58574  -0.57791  -0.57241  -0.56889
 Alpha  occ. eigenvalues --   -0.56785  -0.56638  -0.56293  -0.56249  -0.56082
 Alpha  occ. eigenvalues --   -0.55839  -0.55176  -0.54979  -0.54298  -0.54206
 Alpha  occ. eigenvalues --   -0.53880  -0.53721  -0.53436  -0.53295  -0.52821
 Alpha  occ. eigenvalues --   -0.52590  -0.52516  -0.52100  -0.51714  -0.51622
 Alpha  occ. eigenvalues --   -0.51272  -0.51181  -0.51106  -0.50869  -0.50735
 Alpha  occ. eigenvalues --   -0.50427  -0.50411  -0.50127  -0.50077  -0.49651
 Alpha  occ. eigenvalues --   -0.49612  -0.49389  -0.49086  -0.48990  -0.48971
 Alpha  occ. eigenvalues --   -0.48620  -0.48497  -0.48457  -0.48078  -0.47742
 Alpha  occ. eigenvalues --   -0.47620  -0.47290  -0.47214  -0.47074  -0.47039
 Alpha  occ. eigenvalues --   -0.46728  -0.46612  -0.46465  -0.46176  -0.46141
 Alpha  occ. eigenvalues --   -0.46077  -0.45656  -0.45220  -0.45035  -0.44875
 Alpha  occ. eigenvalues --   -0.44619  -0.44575  -0.44376  -0.44255  -0.44121
 Alpha  occ. eigenvalues --   -0.43885  -0.43799  -0.43572  -0.43377  -0.43227
 Alpha  occ. eigenvalues --   -0.43114  -0.42918  -0.42534  -0.42283  -0.42129
 Alpha  occ. eigenvalues --   -0.42097  -0.41992  -0.41480  -0.41423  -0.41178
 Alpha  occ. eigenvalues --   -0.41062  -0.40872  -0.40811  -0.40713  -0.40556
 Alpha  occ. eigenvalues --   -0.40367  -0.40034  -0.39967  -0.39756  -0.39539
 Alpha  occ. eigenvalues --   -0.39191  -0.39119  -0.38738  -0.38600  -0.38072
 Alpha  occ. eigenvalues --   -0.37715  -0.37691  -0.37396  -0.37272  -0.37132
 Alpha  occ. eigenvalues --   -0.36487  -0.35704  -0.35565  -0.35434  -0.35252
 Alpha  occ. eigenvalues --   -0.34280  -0.32614  -0.32423  -0.32380  -0.32179
 Alpha  occ. eigenvalues --   -0.31807  -0.31741  -0.31425  -0.31341  -0.30469
 Alpha  occ. eigenvalues --   -0.30279  -0.30061  -0.29892  -0.29717  -0.29071
 Alpha  occ. eigenvalues --   -0.28881  -0.28511  -0.27813  -0.26895  -0.26742
 Alpha  occ. eigenvalues --   -0.26575  -0.23466
 Alpha virt. eigenvalues --   -0.11972  -0.11122  -0.07805  -0.06709  -0.05379
 Alpha virt. eigenvalues --   -0.05085  -0.04917  -0.04608  -0.04253  -0.03964
 Alpha virt. eigenvalues --   -0.03801  -0.03222  -0.02465  -0.02342  -0.01991

 Mulliken charges:
               1
     1  N   -0.762254
     2  H    0.416368
     3  H    0.435190
     4  H    0.410852
     5  C   -0.107075
     6  H    0.210466
     7  C    0.654723
     8  C   -0.110222
     9  H    0.158187
    10  O   -0.553134
    11  C   -0.469337
    12  H    0.185932
    13  H    0.193575
    14  H    0.141207
    15  C   -0.481069
    16  H    0.191154
    17  H    0.166147
    18  H    0.188368
    19  N   -0.600262
    20  H    0.381019
    21  C   -0.090417
    22  H    0.190250
    23  C    0.652952
    24  C   -0.072805
    25  H    0.143326
    26  O   -0.551200
    27  C   -0.296637
    28  H    0.182096
    29  H    0.157532
    30  C   -0.492154
    31  H    0.224395
    32  H    0.120249
    33  H    0.160830
    34  C   -0.470881
    35  H    0.171751
    36  H    0.128662
    37  H    0.159141
    38  N   -0.609425
    39  H    0.355747
    40  C   -0.044142
    41  H    0.176667
    42  C    0.647140
    43  C   -0.389998
    44  H    0.162924
    45  H    0.166599
    46  O   -0.549023
    47  C    0.158542
    48  C   -0.183336
    49  H    0.133179
    50  C   -0.195836
    51  H    0.119910
    52  C   -0.137414
    53  H    0.165116
    54  C   -0.115050
    55  H    0.135472
    56  C   -0.121538
    57  H    0.148221
    58  N   -0.591457
    59  H    0.361186
    60  C   -0.071994
    61  H    0.177223
    62  C    0.633744
    63  C   -0.249130
    64  H    0.141868
    65  H    0.144409
    66  O   -0.548486
    67  C   -0.084528
    68  H    0.149795
    69  C   -0.441887
    70  H    0.146075
    71  H    0.138382
    72  H    0.127404
    73  C   -0.466224
    74  H    0.137619
    75  H    0.135561
    76  H    0.177088
    77  N   -0.625534
    78  H    0.356803
    79  C   -0.042977
    80  H    0.167901
    81  C    0.606749
    82  C   -0.272503
    83  H    0.160713
    84  H    0.203854
    85  O   -0.529779
    86  C   -0.391384
    87  H    0.206396
    88  H    0.179448
    89  C    0.584458
    90  O   -0.464515
    91  O   -0.557915
    92  N   -0.612254
    93  H    0.352459
    94  C   -0.063065
    95  H    0.212966
    96  C    0.603367
    97  C   -0.338678
    98  H    0.197359
    99  H    0.141822
   100  O   -0.550538
   101  C    0.569629
   102  N   -0.731415
   103  H    0.375248
   104  H    0.337826
   105  O   -0.516479
   106  N   -0.609858
   107  H    0.371993
   108  C   -0.062907
   109  H    0.175716
   110  C    0.619564
   111  C   -0.362362
   112  H    0.157501
   113  H    0.180642
   114  O   -0.554650
   115  C    0.169369
   116  C   -0.199362
   117  H    0.139309
   118  C   -0.185295
   119  H    0.123760
   120  C   -0.172163
   121  H    0.147920
   122  C   -0.193160
   123  H    0.118351
   124  O   -0.644566
   125  H    0.406344
   126  C    0.351325
   127  N   -0.585324
   128  H    0.356746
   129  C   -0.068681
   130  H    0.188547
   131  C    0.609543
   132  C   -0.284151
   133  H    0.158540
   134  H    0.139451
   135  O   -0.635489
   136  C   -0.270855
   137  H    0.140416
   138  H    0.174632
   139  C   -0.169569
   140  H    0.176449
   141  H    0.142177
   142  N   -0.599021
   143  H    0.398306
   144  N   -0.755234
   145  H    0.361364
   146  H    0.363791
   147  N   -0.742610
   148  H    0.343026
   149  H    0.415290
   150  C    0.761786
   151  O   -0.577967
   152  H    0.414072
 Sum of Mulliken charges =   1.00000

 Dipole moment (field-independent basis, Debye):
    X=            -25.7611    Y=             23.1704    Z=             24.3452  Tot=             42.3461
 Quadrupole moment (field-independent basis, Debye-Ang):
   XX=            117.9746   YY=           -294.0485   ZZ=           -380.6794
   XY=           -141.0609   XZ=           -151.5687   YZ=             96.6191

 Normal termination of Gaussian 16 at Sat Aug 13 18:46:27 2022.
