 Gaussian 16, Revision C.01,
 Gaussian 16:  ES64L-G16RevC.01  3-Jul-2019

 ----------------------------------------------------------------------
 # B3LYP/6-31G* empiricaldispersion=gd3 guess=read geom=check nosymm in
 tegral(ultrafinegrid)
 ----------------------------------------------------------------------

 -----------------------------------------------------
 Candidate Structure: Conf:12 Charge calc in gas phase
 -----------------------------------------------------
 Structure from the checkpoint file:  "conf-12.chk"
 Charge =  1 Multiplicity = 1

                          Input orientation:
 ---------------------------------------------------------------------
 Center     Atomic      Atomic             Coordinates (Angstroms)
 Number     Number       Type             X           Y           Z
 ---------------------------------------------------------------------
      1          7           0       -3.694438    7.761141    3.340940
      2          1           0       -2.866218    7.960256    2.584983
      3          1           0       -4.614279    7.802198    2.886647
      4          1           0       -3.656059    8.472381    4.072812
      5          6           0       -3.508110    6.376848    3.893453
      6          1           0       -2.435358    6.258322    4.052728
      7          6           0       -4.017911    5.453813    2.774810
      8          6           0       -4.296624    6.136963    5.194203
      9          1           0       -5.359452    6.291068    4.964320
     10          8           0       -5.175315    5.591716    2.374057
     11          6           0       -4.103077    4.681060    5.645826
     12          1           0       -3.041614    4.458891    5.812356
     13          1           0       -4.632845    4.502850    6.585343
     14          1           0       -4.490315    3.964551    4.916507
     15          6           0       -3.867502    7.105801    6.306781
     16          1           0       -2.797808    7.003873    6.527096
     17          1           0       -4.067509    8.159155    6.069250
     18          1           0       -4.419416    6.889211    7.226849
     19          7           0       -3.142273    4.528727    2.337550
     20          1           0       -2.155345    4.674142    2.537913
     21          6           0       -3.486125    3.535924    1.327129
     22          1           0       -4.579500    3.495076    1.294365
     23          6           0       -2.888905    2.210902    1.820640
     24          6           0       -2.945870    3.879772   -0.082918
     25          1           0       -1.850266    3.887618   -0.023201
     26          8           0       -1.667864    2.085324    1.946813
     27          6           0       -3.426436    5.273061   -0.535654
     28          1           0       -3.007729    6.026882    0.141247
     29          1           0       -4.516481    5.337268   -0.419043
     30          6           0       -3.355251    2.776701   -1.069338
     31          1           0       -4.440637    2.775459   -1.236481
     32          1           0       -3.070536    1.784240   -0.706896
     33          1           0       -2.859873    2.935217   -2.030238
     34          6           0       -3.037134    5.623211   -1.978706
     35          1           0       -3.235775    6.681365   -2.184272
     36          1           0       -1.976613    5.427029   -2.162133
     37          1           0       -3.611875    5.036719   -2.704402
     38          7           0       -3.770999    1.221597    2.095666
     39          1           0       -4.760391    1.420749    2.033358
     40          6           0       -3.377087   -0.058607    2.695967
     41          1           0       -2.527562    0.152116    3.355214
     42          6           0       -2.927610   -1.035813    1.582349
     43          6           0       -4.543493   -0.660492    3.493483
     44          1           0       -4.187116   -1.597334    3.934319
     45          1           0       -5.330577   -0.946587    2.787671
     46          8           0       -3.623059   -1.978602    1.215335
     47          6           0       -5.081425    0.264346    4.561438
     48          6           0       -4.388721    0.445959    5.766429
     49          1           0       -3.459077   -0.093523    5.934846
     50          6           0       -6.279115    0.964180    4.366798
     51          1           0       -6.842169    0.817313    3.446517
     52          6           0       -4.888727    1.290220    6.757108
     53          1           0       -4.346768    1.406552    7.691733
     54          6           0       -6.781905    1.815995    5.353397
     55          1           0       -7.718623    2.341087    5.188094
     56          6           0       -6.090673    1.974261    6.554685
     57          1           0       -6.487098    2.622595    7.331224
     58          7           0       -1.720395   -0.740390    1.037651
     59          1           0       -1.240310    0.120018    1.301195
     60          6           0       -1.243876   -1.433771   -0.146617
     61          1           0       -1.337582   -2.512138    0.015569
     62          6           0        0.211553   -1.023522   -0.351138
     63          6           0       -2.093239   -1.017879   -1.384487
     64          1           0       -1.965907    0.064625   -1.507722
     65          1           0       -3.135216   -1.189024   -1.093166
     66          8           0        0.647150    0.019098    0.151327
     67          6           0       -1.841829   -1.723501   -2.730017
     68          1           0       -0.825353   -1.494186   -3.079292
     69          6           0       -2.000973   -3.248945   -2.628501
     70          1           0       -2.993751   -3.507204   -2.241339
     71          1           0       -1.269688   -3.714112   -1.954867
     72          1           0       -1.884467   -3.720888   -3.609916
     73          6           0       -2.814306   -1.163934   -3.780304
     74          1           0       -3.854448   -1.370501   -3.500864
     75          1           0       -2.633019   -1.609584   -4.764223
     76          1           0       -2.705355   -0.076420   -3.881188
     77          7           0        0.961323   -1.794774   -1.182482
     78          1           0        0.516613   -2.572817   -1.652092
     79          6           0        2.230477   -1.302426   -1.739184
     80          1           0        2.749907   -0.804319   -0.917085
     81          6           0        1.911926   -0.251943   -2.832344
     82          6           0        3.103244   -2.426369   -2.281996
     83          1           0        4.024190   -1.957929   -2.642912
     84          1           0        2.632542   -2.879322   -3.160616
     85          8           0        1.911080   -0.490721   -4.032856
     86          6           0        3.430077   -3.493608   -1.209898
     87          1           0        3.415144   -3.036196   -0.214810
     88          1           0        2.710865   -4.314418   -1.222994
     89          6           0        4.801621   -4.090484   -1.415667
     90          8           0        5.069369   -5.224482   -1.717203
     91          8           0        5.786345   -3.142694   -1.217859
     92          7           0        1.594553    0.960069   -2.290665
     93          1           0        1.411858    0.950589   -1.285595
     94          6           0        1.058807    2.077826   -3.058877
     95          1           0        1.759026    2.308244   -3.870184
     96          6           0        0.987442    3.257225   -2.069734
     97          6           0       -0.312676    1.777350   -3.666719
     98          1           0       -0.209772    0.882481   -4.291605
     99          1           0       -1.026214    1.555126   -2.869031
    100          8           0       -0.042634    3.894030   -1.868466
    101          6           0       -0.837371    2.906388   -4.534721
    102          7           0       -2.170267    2.909836   -4.748009
    103          1           0       -2.572782    3.599271   -5.367993
    104          1           0       -2.784394    2.227376   -4.328125
    105          8           0       -0.094275    3.748808   -5.060212
    106          7           0        2.160997    3.496315   -1.426307
    107          1           0        2.888874    2.799800   -1.555924
    108          6           0        2.204136    4.190222   -0.142059
    109          1           0        1.494018    3.701108    0.537820
    110          6           0        1.801865    5.660416   -0.318125
    111          6           0        3.630620    4.060679    0.440808
    112          1           0        4.319903    4.604040   -0.214978
    113          1           0        3.640605    4.565677    1.413478
    114          8           0        2.317097    6.359424   -1.208583
    115          6           0        4.034124    2.606789    0.579324
    116          6           0        3.421052    1.791988    1.545858
    117          1           0        2.696273    2.223832    2.232015
    118          6           0        4.944709    2.009206   -0.300700
    119          1           0        5.442345    2.616158   -1.054582
    120          6           0        3.709866    0.438190    1.638551
    121          1           0        3.228268   -0.190795    2.379452
    122          6           0        5.243921    0.644881   -0.223627
    123          1           0        5.958455    0.199156   -0.911548
    124          8           0        4.859993   -1.478902    0.896803
    125          1           0        5.435322   -1.821870    0.186384
    126          6           0        4.629090   -0.145081    0.753980
    127          7           0        0.892913    6.083607    0.562270
    128          1           0        0.533288    5.450720    1.274512
    129          6           0        0.176131    7.355319    0.563402
    130          1           0        0.847749    8.156985    0.900124
    131          6           0       -0.920245    7.220932    1.655233
    132          6           0       -0.410504    7.714224   -0.825039
    133          1           0       -0.272557    6.846009   -1.473321
    134          1           0       -1.486870    7.865973   -0.723502
    135          8           0       -1.801692    8.137820    1.644786
    136          6           0        0.209322    8.964351   -1.474176
    137          1           0       -0.341465    9.864718   -1.179587
    138          1           0        1.240676    9.106345   -1.125216
    139          6           0        0.236009    8.868336   -3.004886
    140          1           0       -0.756921    8.606531   -3.385358
    141          1           0        0.529799    9.821838   -3.456393
    142          7           0        1.198037    7.828631   -3.400776
    143          1           0        1.958193    7.710708   -2.734219
    144          7           0       -0.155471    6.590963   -4.861375
    145          1           0       -0.376768    5.673574   -5.247120
    146          1           0       -0.605893    7.413397   -5.230320
    147          7           0        1.729583    5.641259   -3.907443
    148          1           0        1.429287    4.774330   -4.347420
    149          1           0        2.231182    5.575288   -3.018895
    150          6           0        0.908389    6.691138   -4.048732
    151          8           0       -0.847821    6.248679    2.439945
    152          1           0        6.639313   -3.592916   -1.368676
 ---------------------------------------------------------------------

 SCF Done:  E(RB3LYP) =  -3586.94194255     A.U. after    2 cycles

 Alpha  occ. eigenvalues --  -19.27865 -19.24189 -19.23096 -19.22120 -19.21614
 Alpha  occ. eigenvalues --  -19.21426 -19.20821 -19.20445 -19.19958 -19.19768
 Alpha  occ. eigenvalues --  -19.19529 -19.18838 -19.18165 -14.49922 -14.46755
 Alpha  occ. eigenvalues --  -14.46596 -14.46452 -14.45885 -14.45321 -14.44796
 Alpha  occ. eigenvalues --  -14.44635 -14.44261 -14.44024 -14.43933 -14.42159
 Alpha  occ. eigenvalues --  -10.42666 -10.40411 -10.39700 -10.38604 -10.38240
 Alpha  occ. eigenvalues --  -10.37563 -10.37174 -10.37052 -10.36837 -10.36733
 Alpha  occ. eigenvalues --  -10.35218 -10.33206 -10.32330 -10.32296 -10.32290
 Alpha  occ. eigenvalues --  -10.32140 -10.31890 -10.31383 -10.30788 -10.30758
 Alpha  occ. eigenvalues --  -10.30729 -10.29212 -10.28186 -10.27897 -10.27752
 Alpha  occ. eigenvalues --  -10.27540 -10.27356 -10.27255 -10.26917 -10.26863
 Alpha  occ. eigenvalues --  -10.26517 -10.26372 -10.26345 -10.26332 -10.26260
 Alpha  occ. eigenvalues --  -10.26174 -10.26152 -10.25878 -10.25684 -10.25579
 Alpha  occ. eigenvalues --  -10.25362 -10.25281 -10.25270 -10.25165 -10.25145
 Alpha  occ. eigenvalues --  -10.25135 -10.25114 -10.24806 -10.24798 -10.24174
 Alpha  occ. eigenvalues --   -1.17934  -1.14542  -1.13804  -1.13521  -1.12838
 Alpha  occ. eigenvalues --   -1.12429  -1.12171  -1.12026  -1.11888  -1.11502
 Alpha  occ. eigenvalues --   -1.11267  -1.09956  -1.09219  -1.05363  -1.03688
 Alpha  occ. eigenvalues --   -1.03000  -1.02100  -1.01530  -1.01068  -1.00882
 Alpha  occ. eigenvalues --   -1.00814  -1.00645  -1.00495  -0.99078  -0.99067
 Alpha  occ. eigenvalues --   -0.92881  -0.91889  -0.89717  -0.89275  -0.88644
 Alpha  occ. eigenvalues --   -0.88334  -0.88157  -0.87765  -0.86710  -0.85967
 Alpha  occ. eigenvalues --   -0.83539  -0.83273  -0.82209  -0.82125  -0.81529
 Alpha  occ. eigenvalues --   -0.80687  -0.80622  -0.79623  -0.79396  -0.77929
 Alpha  occ. eigenvalues --   -0.76671  -0.76545  -0.76268  -0.76060  -0.74281
 Alpha  occ. eigenvalues --   -0.73389  -0.72892  -0.72511  -0.71717  -0.70890
 Alpha  occ. eigenvalues --   -0.70299  -0.69720  -0.69121  -0.68675  -0.68392
 Alpha  occ. eigenvalues --   -0.67981  -0.67648  -0.67483  -0.67101  -0.66781
 Alpha  occ. eigenvalues --   -0.66460  -0.66389  -0.66166  -0.65952  -0.65665
 Alpha  occ. eigenvalues --   -0.65317  -0.64793  -0.64596  -0.64171  -0.64082
 Alpha  occ. eigenvalues --   -0.63857  -0.63577  -0.63097  -0.61830  -0.61471
 Alpha  occ. eigenvalues --   -0.61077  -0.60461  -0.59818  -0.59755  -0.59028
 Alpha  occ. eigenvalues --   -0.58919  -0.58097  -0.57982  -0.57667  -0.57317
 Alpha  occ. eigenvalues --   -0.57044  -0.56741  -0.56621  -0.56444  -0.56299
 Alpha  occ. eigenvalues --   -0.55968  -0.55932  -0.55557  -0.55419  -0.55100
 Alpha  occ. eigenvalues --   -0.54940  -0.54668  -0.54449  -0.54149  -0.53810
 Alpha  occ. eigenvalues --   -0.53782  -0.53330  -0.52751  -0.52440  -0.52404
 Alpha  occ. eigenvalues --   -0.52302  -0.52115  -0.51831  -0.51793  -0.51569
 Alpha  occ. eigenvalues --   -0.51384  -0.51053  -0.51036  -0.50795  -0.50495
 Alpha  occ. eigenvalues --   -0.50181  -0.50089  -0.49973  -0.49810  -0.49728
 Alpha  occ. eigenvalues --   -0.49574  -0.49456  -0.49368  -0.49025  -0.48761
 Alpha  occ. eigenvalues --   -0.48627  -0.48499  -0.48317  -0.48228  -0.48094
 Alpha  occ. eigenvalues --   -0.47797  -0.47629  -0.47577  -0.47424  -0.47221
 Alpha  occ. eigenvalues --   -0.46889  -0.46827  -0.46584  -0.46438  -0.46364
 Alpha  occ. eigenvalues --   -0.46202  -0.46109  -0.46007  -0.45813  -0.45574
 Alpha  occ. eigenvalues --   -0.45468  -0.45109  -0.45032  -0.44978  -0.44787
 Alpha  occ. eigenvalues --   -0.44734  -0.44353  -0.43873  -0.43671  -0.43575
 Alpha  occ. eigenvalues --   -0.43147  -0.43002  -0.42745  -0.42549  -0.42476
 Alpha  occ. eigenvalues --   -0.42274  -0.42197  -0.42121  -0.41539  -0.41271
 Alpha  occ. eigenvalues --   -0.41054  -0.40803  -0.40731  -0.40659  -0.40429
 Alpha  occ. eigenvalues --   -0.40153  -0.40117  -0.39997  -0.39694  -0.39475
 Alpha  occ. eigenvalues --   -0.39045  -0.38135  -0.37854  -0.37397  -0.37013
 Alpha  occ. eigenvalues --   -0.36757  -0.35932  -0.35704  -0.35495  -0.35237
 Alpha  occ. eigenvalues --   -0.35046  -0.34993  -0.34885  -0.34589  -0.34431
 Alpha  occ. eigenvalues --   -0.33971  -0.33682  -0.33540  -0.33006  -0.32742
 Alpha  occ. eigenvalues --   -0.32515  -0.32240  -0.31838  -0.31416  -0.31147
 Alpha  occ. eigenvalues --   -0.30362  -0.29120
 Alpha virt. eigenvalues --   -0.09022  -0.08357  -0.08217  -0.08034  -0.07517
 Alpha virt. eigenvalues --   -0.07453  -0.07081  -0.06791  -0.06761  -0.06499
 Alpha virt. eigenvalues --   -0.06179  -0.05870  -0.05586  -0.04398  -0.04054

 Mulliken charges:
               1
     1  N   -0.797014
     2  H    0.460272
     3  H    0.385332
     4  H    0.377588
     5  C   -0.073653
     6  H    0.202986
     7  C    0.616508
     8  C   -0.088432
     9  H    0.157160
    10  O   -0.548093
    11  C   -0.460927
    12  H    0.150738
    13  H    0.159604
    14  H    0.178532
    15  C   -0.470088
    16  H    0.163345
    17  H    0.132102
    18  H    0.175977
    19  N   -0.606254
    20  H    0.383741
    21  C   -0.055446
    22  H    0.167487
    23  C    0.635865
    24  C   -0.077115
    25  H    0.163377
    26  O   -0.554823
    27  C   -0.276454
    28  H    0.145970
    29  H    0.149197
    30  C   -0.503061
    31  H    0.142992
    32  H    0.161894
    33  H    0.153673
    34  C   -0.475229
    35  H    0.134830
    36  H    0.182043
    37  H    0.129689
    38  N   -0.605361
    39  H    0.343635
    40  C   -0.055872
    41  H    0.183505
    42  C    0.640506
    43  C   -0.399733
    44  H    0.181344
    45  H    0.178157
    46  O   -0.530726
    47  C    0.182966
    48  C   -0.178961
    49  H    0.132832
    50  C   -0.206126
    51  H    0.127121
    52  C   -0.126992
    53  H    0.140734
    54  C   -0.127364
    55  H    0.141890
    56  C   -0.132268
    57  H    0.137717
    58  N   -0.644009
    59  H    0.391892
    60  C   -0.049371
    61  H    0.185670
    62  C    0.621063
    63  C   -0.288645
    64  H    0.145399
    65  H    0.184897
    66  O   -0.547576
    67  C   -0.104796
    68  H    0.131583
    69  C   -0.460873
    70  H    0.173737
    71  H    0.133692
    72  H    0.162694
    73  C   -0.449762
    74  H    0.159915
    75  H    0.162686
    76  H    0.112303
    77  N   -0.605316
    78  H    0.352381
    79  C   -0.096941
    80  H    0.210323
    81  C    0.632740
    82  C   -0.305852
    83  H    0.182251
    84  H    0.183539
    85  O   -0.525676
    86  C   -0.359279
    87  H    0.207343
    88  H    0.180696
    89  C    0.573119
    90  O   -0.423516
    91  O   -0.599581
    92  N   -0.677618
    93  H    0.397786
    94  C   -0.021274
    95  H    0.195685
    96  C    0.584993
    97  C   -0.402890
    98  H    0.226552
    99  H    0.187256
   100  O   -0.521506
   101  C    0.670841
   102  N   -0.748031
   103  H    0.354661
   104  H    0.371125
   105  O   -0.568743
   106  N   -0.613401
   107  H    0.358876
   108  C   -0.051112
   109  H    0.180168
   110  C    0.679041
   111  C   -0.387279
   112  H    0.175602
   113  H    0.176179
   114  O   -0.602891
   115  C    0.139785
   116  C   -0.171795
   117  H    0.143357
   118  C   -0.212753
   119  H    0.139948
   120  C   -0.143711
   121  H    0.155354
   122  C   -0.197210
   123  H    0.140053
   124  O   -0.671904
   125  H    0.441001
   126  C    0.342287
   127  N   -0.622528
   128  H    0.367280
   129  C   -0.013976
   130  H    0.181445
   131  C    0.616997
   132  C   -0.296678
   133  H    0.172812
   134  H    0.184061
   135  O   -0.626217
   136  C   -0.297499
   137  H    0.170125
   138  H    0.161525
   139  C   -0.162985
   140  H    0.159823
   141  H    0.180437
   142  N   -0.584643
   143  H    0.385691
   144  N   -0.777577
   145  H    0.396124
   146  H    0.362542
   147  N   -0.797999
   148  H    0.393989
   149  H    0.397397
   150  C    0.764118
   151  O   -0.586984
   152  H    0.426241
 Sum of Mulliken charges =   1.00000

 Dipole moment (field-independent basis, Debye):
    X=             -5.1170    Y=             22.4646    Z=             -3.2114  Tot=             23.2627
 Quadrupole moment (field-independent basis, Debye-Ang):
   XX=           -371.1881   YY=           -271.4665   ZZ=           -350.4902
   XY=            -49.8534   XZ=            -20.3300   YZ=             -3.7864

 Normal termination of Gaussian 16 at Sat Aug 13 18:49:53 2022.
