 Gaussian 16, Revision C.01,
 Gaussian 16:  ES64L-G16RevC.01  3-Jul-2019

 ----------------------------------------------------------------------
 # B3LYP/6-31G* empiricaldispersion=gd3 guess=read geom=check nosymm in
 tegral(ultrafinegrid)
 ----------------------------------------------------------------------

 ------------------------------------------------------
 Candidate Structure: Conf:879 Charge calc in gas phase
 ------------------------------------------------------
 Structure from the checkpoint file:  "conf-879.chk"
 Charge =  1 Multiplicity = 1

                          Input orientation:
 ---------------------------------------------------------------------
 Center     Atomic      Atomic             Coordinates (Angstroms)
 Number     Number       Type             X           Y           Z
 ---------------------------------------------------------------------
      1          7           0      -10.408498    1.776087    7.241039
      2          1           0      -11.194055    1.267483    6.831912
      3          1           0      -10.007059    1.186566    7.973415
      4          1           0      -10.752185    2.632608    7.670699
      5          6           0       -9.365944    2.053290    6.232493
      6          1           0       -9.845980    2.418268    5.315914
      7          6           0       -8.626318    0.765928    5.889873
      8          6           0       -8.372761    3.147420    6.702124
      9          1           0       -8.947751    4.078997    6.678779
     10          8           0       -8.321988   -0.057809    6.743831
     11          6           0       -7.872197    2.925083    8.125609
     12          1           0       -7.442858    1.926864    8.216994
     13          1           0       -7.091588    3.653333    8.364816
     14          1           0       -8.670205    3.029789    8.860640
     15          6           0       -7.167182    3.297798    5.768621
     16          1           0       -6.424805    2.518518    5.987115
     17          1           0       -7.433794    3.261524    4.707961
     18          1           0       -6.664963    4.252549    5.953359
     19          7           0       -8.308416    0.611981    4.572826
     20          1           0       -8.485716    1.378423    3.939118
     21          6           0       -7.192990   -0.249167    4.187017
     22          1           0       -6.722820   -0.577324    5.114583
     23          6           0       -6.220971    0.612535    3.397607
     24          6           0       -7.647823   -1.509354    3.435789
     25          1           0       -8.155752   -2.108743    4.202341
     26          8           0       -6.538996    1.140803    2.337863
     27          6           0       -6.453488   -2.302004    2.889122
     28          1           0       -5.929229   -1.672571    2.163172
     29          1           0       -6.856300   -3.151036    2.330211
     30          6           0       -8.626098   -1.237716    2.293663
     31          1           0       -8.140852   -0.649894    1.515018
     32          1           0       -9.507453   -0.700273    2.643326
     33          1           0       -8.953445   -2.184815    1.861135
     34          6           0       -5.482984   -2.827120    3.938931
     35          1           0       -4.698673   -3.423887    3.468139
     36          1           0       -4.984721   -2.018646    4.478526
     37          1           0       -5.992308   -3.459076    4.671256
     38          7           0       -5.013998    0.813981    3.975815
     39          1           0       -4.789333    0.341301    4.832851
     40          6           0       -3.931495    1.471303    3.262824
     41          1           0       -4.334851    2.393688    2.844438
     42          6           0       -3.441471    0.559229    2.138678
     43          6           0       -2.793957    1.771137    4.244169
     44          1           0       -1.989557    2.274694    3.703936
     45          1           0       -2.398190    0.824535    4.609551
     46          8           0       -3.192797   -0.627803    2.329150
     47          6           0       -3.276627    2.613736    5.390587
     48          6           0       -3.567904    3.961891    5.191570
     49          1           0       -3.406077    4.394326    4.210598
     50          6           0       -3.522945    2.052600    6.636357
     51          1           0       -3.314667    1.001896    6.804027
     52          6           0       -4.065143    4.743105    6.230869
     53          1           0       -4.297510    5.787821    6.052433
     54          6           0       -4.046053    2.823754    7.671475
     55          1           0       -4.268954    2.361539    8.626691
     56          6           0       -4.317473    4.170729    7.468204
     57          1           0       -4.756704    4.764034    8.264447
     58          7           0       -3.321336    1.148725    0.919419
     59          1           0       -3.287576    2.152368    0.874882
     60          6           0       -2.664410    0.435144   -0.162891
     61          1           0       -2.849800   -0.622159    0.023252
     62          6           0       -1.175319    0.748130   -0.108599
     63          6           0       -3.234696    0.868499   -1.507326
     64          1           0       -3.121750    1.954035   -1.575851
     65          1           0       -4.304262    0.650487   -1.506534
     66          8           0       -0.763016    1.876950   -0.333542
     67          6           0       -2.582493    0.226372   -2.735203
     68          1           0       -1.510719    0.455700   -2.697278
     69          6           0       -2.755788   -1.289182   -2.760120
     70          1           0       -3.816374   -1.545500   -2.837401
     71          1           0       -2.350438   -1.774077   -1.869691
     72          1           0       -2.237701   -1.713936   -3.624475
     73          6           0       -3.165038    0.848522   -4.002776
     74          1           0       -4.239874    0.660930   -4.055092
     75          1           0       -2.701187    0.422624   -4.894921
     76          1           0       -3.002491    1.927953   -4.020695
     77          7           0       -0.368198   -0.289813    0.237435
     78          1           0       -0.767696   -1.210779    0.164277
     79          6           0        1.062181   -0.186428    0.005986
     80          1           0        1.315739    0.859353    0.171608
     81          6           0        1.395221   -0.547990   -1.448185
     82          6           0        1.854664   -1.051001    0.984188
     83          1           0        1.743281   -0.634886    1.984893
     84          1           0        2.913501   -0.973342    0.729284
     85          8           0        0.738591   -1.343413   -2.108508
     86          6           0        1.433888   -2.516849    0.973258
     87          1           0        0.450771   -2.659690    1.431148
     88          1           0        1.358423   -2.894949   -0.048070
     89          6           0        2.409932   -3.390605    1.718568
     90          8           0        3.494458   -3.059169    2.125831
     91          8           0        1.930435   -4.646662    1.875630
     92          7           0        2.495661    0.086849   -1.946529
     93          1           0        3.142294    0.503635   -1.295999
     94          6           0        3.056697   -0.316287   -3.225906
     95          1           0        2.318429   -0.931654   -3.730458
     96          6           0        4.323576   -1.117275   -2.947074
     97          6           0        3.408898    0.902425   -4.086012
     98          1           0        2.497391    1.448257   -4.322718
     99          1           0        4.089706    1.554291   -3.532714
    100          8           0        5.266781   -0.602769   -2.327957
    101          6           0        4.033315    0.447588   -5.399627
    102          7           0        5.378224    0.241950   -5.346635
    103          1           0        5.753599   -0.335537   -6.085527
    104          1           0        5.822592    0.172129   -4.444162
    105          8           0        3.366564    0.282022   -6.403875
    106          7           0        4.331594   -2.380740   -3.445505
    107          1           0        3.701796   -2.599234   -4.198150
    108          6           0        5.537623   -3.187920   -3.332988
    109          1           0        5.997964   -2.915739   -2.383696
    110          6           0        6.495333   -2.876062   -4.487462
    111          6           0        5.163641   -4.674956   -3.346487
    112          1           0        4.357082   -4.808699   -2.625534
    113          1           0        4.779099   -4.915498   -4.339767
    114          8           0        6.111762   -2.888508   -5.664852
    115          6           0        6.321740   -5.579151   -3.017031
    116          6           0        6.829247   -6.462779   -3.970836
    117          1           0        6.377370   -6.513588   -4.957748
    118          6           0        6.935500   -5.534650   -1.763388
    119          1           0        6.544013   -4.855945   -1.012350
    120          6           0        7.919659   -7.280603   -3.688427
    121          1           0        8.319328   -7.957050   -4.432986
    122          6           0        8.029985   -6.343230   -1.466331
    123          1           0        8.489667   -6.290930   -0.485586
    124          8           0        9.606025   -8.020457   -2.219456
    125          1           0        9.921380   -7.890282   -1.321553
    126          6           0        8.527446   -7.211601   -2.436926
    127          7           0        7.777650   -2.593289   -4.096089
    128          1           0        8.074015   -2.917995   -3.188634
    129          6           0        8.825852   -2.504153   -5.084825
    130          1           0        8.374744   -2.218364   -6.033668
    131          6           0        9.466848   -3.935138   -5.220962
    132          6           0        9.944513   -1.579354   -4.667254
    133          1           0        9.565902   -0.567933   -4.534728
    134          1           0       10.327649   -1.929937   -3.701317
    135          8           0        9.261568   -4.518791   -6.291693
    136          6           0       11.049468   -1.628293   -5.714481
    137          1           0       11.238725   -2.677040   -5.955997
    138          1           0       10.710084   -1.149014   -6.636293
    139          6           0       12.328144   -0.963019   -5.248925
    140          1           0       12.663996   -1.429637   -4.319966
    141          1           0       13.121220   -1.099342   -5.993140
    142          7           0       12.079874    0.474401   -5.007909
    143          1           0       11.449822    0.902689   -5.669531
    144          7           0       14.141184    0.799384   -3.959955
    145          1           0       14.931782    1.418155   -3.865917
    146          1           0       14.375088   -0.156822   -4.178700
    147          7           0       12.812347    2.637331   -4.563281
    148          1           0       13.332612    3.176878   -3.885590
    149          1           0       11.845241    2.927856   -4.641668
    150          6           0       13.018674    1.294565   -4.520903
    151          8           0       10.080916   -4.315733   -4.214971
    152          1           0        2.619613   -5.136803    2.343415
 ---------------------------------------------------------------------

 SCF Done:  E(RB3LYP) =  -3586.68454074     A.U. after    1 cycles

 Alpha  occ. eigenvalues --  -19.26088 -19.23278 -19.20752 -19.18385 -19.17948
 Alpha  occ. eigenvalues --  -19.17135 -19.16599 -19.16276 -19.15092 -19.12403
 Alpha  occ. eigenvalues --  -19.10976 -19.01839 -19.01254 -14.64201 -14.50501
 Alpha  occ. eigenvalues --  -14.50312 -14.49504 -14.49138 -14.45469 -14.42699
 Alpha  occ. eigenvalues --  -14.41010 -14.40392 -14.39098 -14.36027 -14.35086
 Alpha  occ. eigenvalues --  -10.46185 -10.43290 -10.41535 -10.37854 -10.36075
 Alpha  occ. eigenvalues --  -10.35498 -10.34874 -10.33384 -10.33135 -10.32773
 Alpha  occ. eigenvalues --  -10.31931 -10.31907 -10.30936 -10.30907 -10.30007
 Alpha  occ. eigenvalues --  -10.29693 -10.28350 -10.28040 -10.28012 -10.27975
 Alpha  occ. eigenvalues --  -10.27927 -10.27826 -10.27706 -10.27637 -10.27616
 Alpha  occ. eigenvalues --  -10.27462 -10.27123 -10.26760 -10.24613 -10.24593
 Alpha  occ. eigenvalues --  -10.24262 -10.24213 -10.24160 -10.24078 -10.23613
 Alpha  occ. eigenvalues --  -10.22642 -10.22565 -10.22203 -10.21934 -10.20388
 Alpha  occ. eigenvalues --  -10.20351 -10.19911 -10.19875 -10.19456 -10.18885
 Alpha  occ. eigenvalues --  -10.18595 -10.18560 -10.18541 -10.18002 -10.17323
 Alpha  occ. eigenvalues --   -1.20270  -1.17252  -1.14943  -1.14696  -1.13250
 Alpha  occ. eigenvalues --   -1.10518  -1.09108  -1.08180  -1.06643  -1.05668
 Alpha  occ. eigenvalues --   -1.05524  -1.05462  -1.04556  -1.03821  -1.03736
 Alpha  occ. eigenvalues --   -1.02316  -1.02117  -0.99238  -0.97894  -0.96965
 Alpha  occ. eigenvalues --   -0.96610  -0.96304  -0.95405  -0.94886  -0.91592
 Alpha  occ. eigenvalues --   -0.91103  -0.90557  -0.88274  -0.87662  -0.87124
 Alpha  occ. eigenvalues --   -0.86216  -0.85737  -0.85279  -0.85128  -0.83512
 Alpha  occ. eigenvalues --   -0.83254  -0.82211  -0.81772  -0.81325  -0.79937
 Alpha  occ. eigenvalues --   -0.79478  -0.79028  -0.78217  -0.78199  -0.77631
 Alpha  occ. eigenvalues --   -0.77068  -0.75933  -0.74328  -0.74179  -0.73692
 Alpha  occ. eigenvalues --   -0.72750  -0.72193  -0.71671  -0.71641  -0.71024
 Alpha  occ. eigenvalues --   -0.70667  -0.70152  -0.69731  -0.69485  -0.69444
 Alpha  occ. eigenvalues --   -0.68177  -0.67688  -0.67435  -0.67153  -0.65891
 Alpha  occ. eigenvalues --   -0.65164  -0.64734  -0.64236  -0.63730  -0.63385
 Alpha  occ. eigenvalues --   -0.62749  -0.62534  -0.62272  -0.62195  -0.61973
 Alpha  occ. eigenvalues --   -0.61811  -0.61125  -0.60928  -0.60511  -0.59711
 Alpha  occ. eigenvalues --   -0.59481  -0.58906  -0.58539  -0.58427  -0.57868
 Alpha  occ. eigenvalues --   -0.57516  -0.57455  -0.57059  -0.56276  -0.55857
 Alpha  occ. eigenvalues --   -0.55673  -0.55408  -0.54935  -0.54310  -0.54142
 Alpha  occ. eigenvalues --   -0.54027  -0.53947  -0.53684  -0.53488  -0.53142
 Alpha  occ. eigenvalues --   -0.52645  -0.52590  -0.52490  -0.52113  -0.52062
 Alpha  occ. eigenvalues --   -0.51810  -0.51492  -0.51050  -0.50939  -0.50848
 Alpha  occ. eigenvalues --   -0.50512  -0.50320  -0.49973  -0.49817  -0.49535
 Alpha  occ. eigenvalues --   -0.49236  -0.49091  -0.48905  -0.48601  -0.48523
 Alpha  occ. eigenvalues --   -0.48262  -0.47659  -0.47613  -0.47459  -0.47347
 Alpha  occ. eigenvalues --   -0.47296  -0.47055  -0.46960  -0.46864  -0.46341
 Alpha  occ. eigenvalues --   -0.46013  -0.45764  -0.45696  -0.45322  -0.45089
 Alpha  occ. eigenvalues --   -0.44983  -0.44624  -0.44367  -0.44142  -0.43918
 Alpha  occ. eigenvalues --   -0.43733  -0.43474  -0.43420  -0.43299  -0.42938
 Alpha  occ. eigenvalues --   -0.42674  -0.42643  -0.42279  -0.42245  -0.42052
 Alpha  occ. eigenvalues --   -0.41706  -0.41524  -0.41444  -0.41251  -0.41180
 Alpha  occ. eigenvalues --   -0.41067  -0.40715  -0.40350  -0.40316  -0.40174
 Alpha  occ. eigenvalues --   -0.40129  -0.39984  -0.39943  -0.39840  -0.39689
 Alpha  occ. eigenvalues --   -0.39255  -0.39146  -0.38479  -0.38299  -0.38052
 Alpha  occ. eigenvalues --   -0.38013  -0.37641  -0.37100  -0.36901  -0.36506
 Alpha  occ. eigenvalues --   -0.36318  -0.35926  -0.35829  -0.35680  -0.35557
 Alpha  occ. eigenvalues --   -0.35202  -0.34129  -0.33968  -0.33899  -0.33402
 Alpha  occ. eigenvalues --   -0.33190  -0.33173  -0.32399  -0.32097  -0.31868
 Alpha  occ. eigenvalues --   -0.31848  -0.31498  -0.31325  -0.31047  -0.29858
 Alpha  occ. eigenvalues --   -0.29413  -0.29189  -0.28192  -0.27929  -0.25949
 Alpha  occ. eigenvalues --   -0.25732  -0.24434  -0.24375  -0.21129  -0.17750
 Alpha  occ. eigenvalues --   -0.16557  -0.15230
 Alpha virt. eigenvalues --   -0.14245  -0.12573  -0.11796  -0.09480  -0.09131
 Alpha virt. eigenvalues --   -0.08359  -0.07263  -0.07081  -0.06513  -0.04935
 Alpha virt. eigenvalues --   -0.04476  -0.03215  -0.03032  -0.02543  -0.02344

 Mulliken charges:
               1
     1  N   -0.721167
     2  H    0.433941
     3  H    0.433155
     4  H    0.426322
     5  C   -0.145448
     6  H    0.207771
     7  C    0.616864
     8  C   -0.101741
     9  H    0.159061
    10  O   -0.508462
    11  C   -0.487184
    12  H    0.195921
    13  H    0.199875
    14  H    0.125589
    15  C   -0.476869
    16  H    0.188617
    17  H    0.156419
    18  H    0.190395
    19  N   -0.585457
    20  H    0.352481
    21  C   -0.057610
    22  H    0.177904
    23  C    0.617682
    24  C   -0.078061
    25  H    0.137259
    26  O   -0.532919
    27  C   -0.278584
    28  H    0.172077
    29  H    0.151181
    30  C   -0.461861
    31  H    0.185998
    32  H    0.121529
    33  H    0.161236
    34  C   -0.444175
    35  H    0.173602
    36  H    0.122962
    37  H    0.143534
    38  N   -0.595366
    39  H    0.342270
    40  C   -0.042562
    41  H    0.169346
    42  C    0.643642
    43  C   -0.411415
    44  H    0.186382
    45  H    0.182365
    46  O   -0.538198
    47  C    0.195754
    48  C   -0.175037
    49  H    0.141239
    50  C   -0.208000
    51  H    0.138223
    52  C   -0.138610
    53  H    0.145841
    54  C   -0.132948
    55  H    0.140834
    56  C   -0.138149
    57  H    0.137192
    58  N   -0.585432
    59  H    0.336409
    60  C   -0.068099
    61  H    0.173654
    62  C    0.629310
    63  C   -0.259458
    64  H    0.143877
    65  H    0.141107
    66  O   -0.537810
    67  C   -0.096109
    68  H    0.158044
    69  C   -0.437602
    70  H    0.131931
    71  H    0.133001
    72  H    0.164498
    73  C   -0.444279
    74  H    0.136149
    75  H    0.156494
    76  H    0.144236
    77  N   -0.588854
    78  H    0.351118
    79  C   -0.095421
    80  H    0.185115
    81  C    0.627213
    82  C   -0.265672
    83  H    0.162734
    84  H    0.177180
    85  O   -0.530075
    86  C   -0.389846
    87  H    0.178234
    88  H    0.213344
    89  C    0.580081
    90  O   -0.455091
    91  O   -0.566185
    92  N   -0.591737
    93  H    0.340424
    94  C   -0.051594
    95  H    0.196508
    96  C    0.599108
    97  C   -0.345079
    98  H    0.179113
    99  H    0.153313
   100  O   -0.562778
   101  C    0.543204
   102  N   -0.742252
   103  H    0.359199
   104  H    0.350340
   105  O   -0.498206
   106  N   -0.577745
   107  H    0.353339
   108  C   -0.062210
   109  H    0.166695
   110  C    0.626844
   111  C   -0.369230
   112  H    0.143628
   113  H    0.165883
   114  O   -0.550273
   115  C    0.164122
   116  C   -0.173288
   117  H    0.143737
   118  C   -0.204301
   119  H    0.111403
   120  C   -0.128210
   121  H    0.147935
   122  C   -0.185072
   123  H    0.104519
   124  O   -0.641664
   125  H    0.400736
   126  C    0.368359
   127  N   -0.595303
   128  H    0.333303
   129  C   -0.027315
   130  H    0.147077
   131  C    0.533779
   132  C   -0.260289
   133  H    0.086989
   134  H    0.146580
   135  O   -0.587277
   136  C   -0.320508
   137  H    0.238499
   138  H    0.139644
   139  C   -0.189732
   140  H    0.198016
   141  H    0.176523
   142  N   -0.554420
   143  H    0.368737
   144  N   -0.728077
   145  H    0.377702
   146  H    0.396314
   147  N   -0.731535
   148  H    0.372125
   149  H    0.380498
   150  C    0.748039
   151  O   -0.615955
   152  H    0.413381
 Sum of Mulliken charges =   1.00000

 Dipole moment (field-independent basis, Debye):
    X=            -20.2234    Y=             27.6978    Z=             35.3903  Tot=             49.2811
 Quadrupole moment (field-independent basis, Debye-Ang):
   XX=            386.3914   YY=           -450.1173   ZZ=           -283.5639
   XY=             97.8211   XZ=           -344.0232   YZ=            -29.1676

 Normal termination of Gaussian 16 at Sat Aug 13 18:46:25 2022.
