 Gaussian 16, Revision C.01,
 Gaussian 16:  ES64L-G16RevC.01  3-Jul-2019

 ----------------------------------------------------------------------
 # B3LYP/6-31G* empiricaldispersion=gd3 guess=read geom=check nosymm in
 tegral(ultrafinegrid)
 ----------------------------------------------------------------------

 ------------------------------------------------------
 Candidate Structure: Conf:869 Charge calc in gas phase
 ------------------------------------------------------
 Structure from the checkpoint file:  "conf-869.chk"
 Charge =  1 Multiplicity = 1

                          Input orientation:
 ---------------------------------------------------------------------
 Center     Atomic      Atomic             Coordinates (Angstroms)
 Number     Number       Type             X           Y           Z
 ---------------------------------------------------------------------
      1          7           0       -7.846412    2.700456    6.430854
      2          1           0       -8.024006    1.711745    6.146792
      3          1           0       -6.856903    2.716088    6.730533
      4          1           0       -8.421001    2.961531    7.234608
      5          6           0       -8.114389    3.532727    5.198365
      6          1           0       -9.182236    3.776519    5.226713
      7          6           0       -7.883911    2.522449    4.047549
      8          6           0       -7.285286    4.833460    5.184919
      9          1           0       -7.648649    5.397223    4.314229
     10          8           0       -7.918001    1.316110    4.319242
     11          6           0       -7.595563    5.680335    6.430757
     12          1           0       -7.203789    5.212451    7.343524
     13          1           0       -7.116226    6.659658    6.348947
     14          1           0       -8.671610    5.845830    6.558939
     15          6           0       -5.772953    4.602112    5.023675
     16          1           0       -5.351484    4.050594    5.871749
     17          1           0       -5.514682    4.059663    4.108989
     18          1           0       -5.261342    5.568374    4.988863
     19          7           0       -7.661906    3.015129    2.822289
     20          1           0       -7.527164    4.010629    2.707827
     21          6           0       -7.118502    2.156444    1.752605
     22          1           0       -7.668492    1.214728    1.806237
     23          6           0       -5.642310    1.910366    2.131249
     24          6           0       -7.326565    2.775303    0.350990
     25          1           0       -8.403443    2.682071    0.151340
     26          8           0       -4.750887    2.721858    1.861115
     27          6           0       -6.572277    1.964882   -0.725707
     28          1           0       -5.498292    2.159146   -0.623923
     29          1           0       -6.865947    2.371060   -1.700711
     30          6           0       -6.947365    4.263806    0.260144
     31          1           0       -5.906136    4.423220    0.549794
     32          1           0       -7.593799    4.904004    0.876179
     33          1           0       -7.076344    4.611634   -0.769508
     34          6           0       -6.831738    0.453495   -0.711562
     35          1           0       -6.374979   -0.020447   -1.586316
     36          1           0       -6.402669   -0.031905    0.173239
     37          1           0       -7.904938    0.228498   -0.737061
     38          7           0       -5.414661    0.785095    2.845779
     39          1           0       -6.201483    0.203934    3.105213
     40          6           0       -4.096165    0.447590    3.389097
     41          1           0       -3.601385    1.397168    3.624087
     42          6           0       -3.247511   -0.279026    2.314057
     43          6           0       -4.229586   -0.428959    4.639035
     44          1           0       -3.222806   -0.776330    4.895129
     45          1           0       -4.778922   -1.338938    4.373969
     46          8           0       -2.888413   -1.447440    2.463075
     47          6           0       -4.849310    0.231012    5.855093
     48          6           0       -4.306366    1.402174    6.404417
     49          1           0       -3.474345    1.895884    5.908663
     50          6           0       -5.912396   -0.384401    6.533210
     51          1           0       -6.348678   -1.292531    6.125825
     52          6           0       -4.779284    1.918754    7.616302
     53          1           0       -4.307159    2.798180    8.047025
     54          6           0       -6.386457    0.118390    7.748635
     55          1           0       -7.178205   -0.406880    8.276273
     56          6           0       -5.812519    1.267357    8.304352
     57          1           0       -6.143631    1.635978    9.271926
     58          7           0       -2.962601    0.465856    1.223700
     59          1           0       -3.251208    1.440420    1.209567
     60          6           0       -2.303502   -0.093631    0.037317
     61          1           0       -2.592367   -1.149058   -0.000160
     62          6           0       -0.768500   -0.053403    0.204109
     63          6           0       -2.817685    0.624652   -1.212331
     64          1           0       -2.624914    1.701179   -1.114954
     65          1           0       -3.907980    0.490645   -1.216447
     66          8           0       -0.032809    0.641986   -0.501786
     67          6           0       -2.249779    0.142920   -2.564429
     68          1           0       -1.250155    0.576743   -2.660850
     69          6           0       -2.126667   -1.386287   -2.654276
     70          1           0       -3.086907   -1.876147   -2.445414
     71          1           0       -1.380054   -1.788350   -1.958842
     72          1           0       -1.829082   -1.689798   -3.665755
     73          6           0       -3.120825    0.694318   -3.701897
     74          1           0       -4.128497    0.258411   -3.670610
     75          1           0       -2.688081    0.458271   -4.680411
     76          1           0       -3.223500    1.784185   -3.635241
     77          7           0       -0.311802   -0.846520    1.196865
     78          1           0       -0.977711   -1.444090    1.679565
     79          6           0        1.108652   -1.043550    1.420951
     80          1           0        1.559801   -0.079693    1.691405
     81          6           0        1.762400   -1.559417    0.122979
     82          6           0        1.301017   -2.050896    2.564121
     83          1           0        0.856179   -3.008008    2.266454
     84          1           0        0.748632   -1.703037    3.443634
     85          8           0        1.197820   -2.359002   -0.615871
     86          6           0        2.766538   -2.261994    2.947575
     87          1           0        3.339018   -2.748119    2.151506
     88          1           0        3.272724   -1.303860    3.133108
     89          6           0        2.895852   -3.085471    4.213551
     90          8           0        1.995492   -3.329224    4.987345
     91          8           0        4.165748   -3.507861    4.392005
     92          7           0        3.004647   -1.069222   -0.102379
     93          1           0        3.466936   -0.453568    0.559863
     94          6           0        3.841934   -1.475050   -1.207706
     95          1           0        3.574028   -2.498419   -1.490646
     96          6           0        5.305029   -1.395874   -0.727633
     97          6           0        3.663961   -0.530792   -2.433992
     98          1           0        3.566546    0.495656   -2.068120
     99          1           0        4.550558   -0.583625   -3.071124
    100          8           0        5.623807   -0.626890    0.178544
    101          6           0        2.476291   -0.947630   -3.283208
    102          7           0        1.284592   -0.396795   -2.996992
    103          1           0        0.479112   -0.832917   -3.427626
    104          1           0        1.107115    0.067804   -2.108542
    105          8           0        2.619439   -1.772453   -4.205875
    106          7           0        6.148992   -2.169030   -1.430596
    107          1           0        5.802820   -2.830672   -2.116099
    108          6           0        7.601029   -2.168485   -1.305565
    109          1           0        7.917770   -1.167609   -1.001077
    110          6           0        8.130454   -2.501854   -2.715780
    111          6           0        8.080402   -3.187674   -0.225812
    112          1           0        7.593874   -2.895224    0.712573
    113          1           0        7.711510   -4.182238   -0.503754
    114          8           0        7.414552   -3.230248   -3.453235
    115          6           0        9.582902   -3.152491   -0.139032
    116          6           0       10.354197   -4.038811   -0.902220
    117          1           0        9.876143   -4.895771   -1.373614
    118          6           0       10.219579   -2.056544    0.461262
    119          1           0        9.637516   -1.369489    1.074526
    120          6           0       11.693645   -3.773818   -1.164868
    121          1           0       12.261478   -4.390943   -1.853019
    122          6           0       11.560708   -1.780899    0.201647
    123          1           0       12.040114   -0.887570    0.589986
    124          8           0       13.479833   -2.171918   -1.169004
    125          1           0       13.266829   -1.959700   -2.123838
    126          6           0       12.276881   -2.590489   -0.689152
    127          7           0        9.305693   -2.013942   -3.090122
    128          1           0        9.915820   -1.528923   -2.429603
    129          6           0       10.014036   -2.414566   -4.317905
    130          1           0        9.653931   -3.402057   -4.609540
    131          6           0       11.553796   -2.500687   -3.999956
    132          6           0        9.820095   -1.380226   -5.438311
    133          1           0       10.271065   -0.442334   -5.095150
    134          1           0       10.413171   -1.718660   -6.298220
    135          8           0       12.161355   -3.454366   -4.497422
    136          6           0        8.372103   -1.114591   -5.869481
    137          1           0        7.771828   -0.826812   -4.996802
    138          1           0        8.349609   -0.260463   -6.561058
    139          6           0        7.712158   -2.315873   -6.555656
    140          1           0        8.281849   -2.625226   -7.436906
    141          1           0        7.664870   -3.174837   -5.883938
    142          7           0        6.345126   -2.010054   -7.024240
    143          1           0        6.289785   -1.428152   -7.850505
    144          7           0        5.281722   -2.446961   -4.988948
    145          1           0        4.389131   -2.444711   -4.490769
    146          1           0        6.144989   -2.727411   -4.495389
    147          7           0        4.103266   -1.464212   -6.710731
    148          1           0        3.286012   -1.522871   -6.107039
    149          1           0        3.944027   -1.450840   -7.707448
    150          6           0        5.261269   -1.985183   -6.231045
    151          8           0       11.964299   -1.535137   -3.282513
    152          1           0        4.185530   -4.008414    5.229665
 ---------------------------------------------------------------------

 SCF Done:  E(RB3LYP) =  -3586.83191115     A.U. after    3 cycles

 Alpha  occ. eigenvalues --  -19.28974 -19.25114 -19.24648 -19.22189 -19.20076
 Alpha  occ. eigenvalues --  -19.20014 -19.19669 -19.18118 -19.17685 -19.16290
 Alpha  occ. eigenvalues --  -19.11558 -19.06751 -19.05733 -14.60823 -14.52281
 Alpha  occ. eigenvalues --  -14.49174 -14.45866 -14.45106 -14.44395 -14.43376
 Alpha  occ. eigenvalues --  -14.42801 -14.42631 -14.42497 -14.41574 -14.38988
 Alpha  occ. eigenvalues --  -10.45836 -10.42239 -10.41677 -10.40719 -10.39162
 Alpha  occ. eigenvalues --  -10.37940 -10.37138 -10.36775 -10.36630 -10.36469
 Alpha  occ. eigenvalues --  -10.35442 -10.35413 -10.34897 -10.32879 -10.32770
 Alpha  occ. eigenvalues --  -10.32726 -10.32443 -10.32324 -10.32111 -10.32042
 Alpha  occ. eigenvalues --  -10.32004 -10.31903 -10.31782 -10.31171 -10.30933
 Alpha  occ. eigenvalues --  -10.30901 -10.30819 -10.28383 -10.28271 -10.28110
 Alpha  occ. eigenvalues --  -10.27599 -10.27377 -10.27162 -10.26914 -10.26739
 Alpha  occ. eigenvalues --  -10.26608 -10.26308 -10.24591 -10.24505 -10.24491
 Alpha  occ. eigenvalues --  -10.23034 -10.22623 -10.22176 -10.22037 -10.20641
 Alpha  occ. eigenvalues --  -10.19306 -10.19071 -10.18663 -10.17856 -10.17123
 Alpha  occ. eigenvalues --   -1.21346  -1.16629  -1.16079  -1.15339  -1.13956
 Alpha  occ. eigenvalues --   -1.11798  -1.11153  -1.10226  -1.09371  -1.09257
 Alpha  occ. eigenvalues --   -1.08763  -1.07360  -1.07170  -1.05408  -1.02369
 Alpha  occ. eigenvalues --   -1.00718  -1.00182  -0.99580  -0.99526  -0.98946
 Alpha  occ. eigenvalues --   -0.98624  -0.98192  -0.97722  -0.97226  -0.96781
 Alpha  occ. eigenvalues --   -0.94925  -0.93209  -0.91362  -0.91048  -0.89243
 Alpha  occ. eigenvalues --   -0.88551  -0.87892  -0.87441  -0.86762  -0.85905
 Alpha  occ. eigenvalues --   -0.85007  -0.84266  -0.83636  -0.83549  -0.83219
 Alpha  occ. eigenvalues --   -0.82346  -0.80870  -0.80197  -0.77653  -0.77123
 Alpha  occ. eigenvalues --   -0.76051  -0.76047  -0.75613  -0.75470  -0.74712
 Alpha  occ. eigenvalues --   -0.74127  -0.73931  -0.73754  -0.73513  -0.73301
 Alpha  occ. eigenvalues --   -0.72420  -0.72048  -0.71665  -0.71006  -0.70389
 Alpha  occ. eigenvalues --   -0.69416  -0.69130  -0.68854  -0.67568  -0.67205
 Alpha  occ. eigenvalues --   -0.67024  -0.66735  -0.66104  -0.65557  -0.64822
 Alpha  occ. eigenvalues --   -0.64699  -0.64548  -0.64246  -0.63612  -0.63167
 Alpha  occ. eigenvalues --   -0.62933  -0.62465  -0.62136  -0.61297  -0.61110
 Alpha  occ. eigenvalues --   -0.60802  -0.60757  -0.60658  -0.60244  -0.60052
 Alpha  occ. eigenvalues --   -0.59368  -0.59220  -0.58361  -0.58213  -0.58040
 Alpha  occ. eigenvalues --   -0.57865  -0.57628  -0.57366  -0.57144  -0.57131
 Alpha  occ. eigenvalues --   -0.56623  -0.56301  -0.56248  -0.55200  -0.55020
 Alpha  occ. eigenvalues --   -0.54729  -0.54225  -0.53702  -0.53653  -0.53558
 Alpha  occ. eigenvalues --   -0.53531  -0.53397  -0.53355  -0.53142  -0.52947
 Alpha  occ. eigenvalues --   -0.52822  -0.52698  -0.52648  -0.52288  -0.51831
 Alpha  occ. eigenvalues --   -0.51626  -0.51340  -0.51117  -0.51035  -0.50942
 Alpha  occ. eigenvalues --   -0.50800  -0.50565  -0.50354  -0.49920  -0.49788
 Alpha  occ. eigenvalues --   -0.49501  -0.49431  -0.49167  -0.49150  -0.48865
 Alpha  occ. eigenvalues --   -0.48678  -0.48543  -0.48248  -0.48117  -0.48044
 Alpha  occ. eigenvalues --   -0.47948  -0.47717  -0.47490  -0.46801  -0.46705
 Alpha  occ. eigenvalues --   -0.46592  -0.46260  -0.46175  -0.46149  -0.46077
 Alpha  occ. eigenvalues --   -0.45865  -0.45517  -0.45132  -0.45066  -0.44786
 Alpha  occ. eigenvalues --   -0.44619  -0.44359  -0.44138  -0.44086  -0.43923
 Alpha  occ. eigenvalues --   -0.43769  -0.43629  -0.43465  -0.43316  -0.43265
 Alpha  occ. eigenvalues --   -0.43055  -0.42383  -0.42264  -0.41864  -0.41806
 Alpha  occ. eigenvalues --   -0.41494  -0.41417  -0.40614  -0.40562  -0.40123
 Alpha  occ. eigenvalues --   -0.39968  -0.39605  -0.39570  -0.39373  -0.38387
 Alpha  occ. eigenvalues --   -0.38340  -0.37872  -0.37752  -0.37424  -0.37371
 Alpha  occ. eigenvalues --   -0.37347  -0.36941  -0.36775  -0.36171  -0.35364
 Alpha  occ. eigenvalues --   -0.35236  -0.35041  -0.34439  -0.34201  -0.33884
 Alpha  occ. eigenvalues --   -0.33642  -0.33480  -0.33113  -0.32915  -0.32712
 Alpha  occ. eigenvalues --   -0.32584  -0.31685  -0.31579  -0.30821  -0.30234
 Alpha  occ. eigenvalues --   -0.29433  -0.26190  -0.24595  -0.22315  -0.21933
 Alpha  occ. eigenvalues --   -0.20783  -0.19779
 Alpha virt. eigenvalues --   -0.15635  -0.14002  -0.13745  -0.11511  -0.10746
 Alpha virt. eigenvalues --   -0.08610  -0.07291  -0.06785  -0.06342  -0.05592
 Alpha virt. eigenvalues --   -0.05155  -0.04722  -0.04139  -0.03959  -0.03617

 Mulliken charges:
               1
     1  N   -0.768284
     2  H    0.432876
     3  H    0.416498
     4  H    0.410101
     5  C   -0.110188
     6  H    0.227141
     7  C    0.660885
     8  C   -0.127417
     9  H    0.173471
    10  O   -0.544233
    11  C   -0.470487
    12  H    0.145655
    13  H    0.203142
    14  H    0.170507
    15  C   -0.494727
    16  H    0.151521
    17  H    0.187853
    18  H    0.195150
    19  N   -0.608611
    20  H    0.364707
    21  C   -0.066156
    22  H    0.189394
    23  C    0.633835
    24  C   -0.089684
    25  H    0.152390
    26  O   -0.555861
    27  C   -0.280906
    28  H    0.163750
    29  H    0.159833
    30  C   -0.493925
    31  H    0.195409
    32  H    0.126810
    33  H    0.178862
    34  C   -0.468311
    35  H    0.173455
    36  H    0.137702
    37  H    0.156110
    38  N   -0.579613
    39  H    0.361900
    40  C   -0.080494
    41  H    0.187124
    42  C    0.646897
    43  C   -0.392211
    44  H    0.213981
    45  H    0.180964
    46  O   -0.532289
    47  C    0.182048
    48  C   -0.178354
    49  H    0.158924
    50  C   -0.184612
    51  H    0.162441
    52  C   -0.179663
    53  H    0.166722
    54  C   -0.159149
    55  H    0.166568
    56  C   -0.185132
    57  H    0.162896
    58  N   -0.628826
    59  H    0.373574
    60  C   -0.079109
    61  H    0.194284
    62  C    0.661947
    63  C   -0.290171
    64  H    0.150190
    65  H    0.145457
    66  O   -0.559618
    67  C   -0.084190
    68  H    0.156990
    69  C   -0.489073
    70  H    0.143622
    71  H    0.179750
    72  H    0.149755
    73  C   -0.448693
    74  H    0.137912
    75  H    0.151843
    76  H    0.145001
    77  N   -0.632257
    78  H    0.379769
    79  C   -0.014839
    80  H    0.156639
    81  C    0.622753
    82  C   -0.300875
    83  H    0.179906
    84  H    0.173092
    85  O   -0.540622
    86  C   -0.374621
    87  H    0.197043
    88  H    0.185636
    89  C    0.586772
    90  O   -0.462660
    91  O   -0.558377
    92  N   -0.606754
    93  H    0.353629
    94  C   -0.072003
    95  H    0.193642
    96  C    0.618822
    97  C   -0.360027
    98  H    0.182660
    99  H    0.181007
   100  O   -0.537212
   101  C    0.609988
   102  N   -0.752115
   103  H    0.353705
   104  H    0.406439
   105  O   -0.563322
   106  N   -0.612320
   107  H    0.340912
   108  C   -0.044014
   109  H    0.185514
   110  C    0.625983
   111  C   -0.345281
   112  H    0.159891
   113  H    0.146512
   114  O   -0.618463
   115  C    0.138642
   116  C   -0.195016
   117  H    0.120927
   118  C   -0.214341
   119  H    0.114692
   120  C   -0.172320
   121  H    0.166288
   122  C   -0.159245
   123  H    0.130079
   124  O   -0.698127
   125  H    0.440230
   126  C    0.363088
   127  N   -0.572322
   128  H    0.372125
   129  C   -0.053535
   130  H    0.158426
   131  C    0.594032
   132  C   -0.271661
   133  H    0.166814
   134  H    0.158246
   135  O   -0.566800
   136  C   -0.264453
   137  H    0.137936
   138  H    0.129952
   139  C   -0.183479
   140  H    0.176108
   141  H    0.212519
   142  N   -0.592627
   143  H    0.343972
   144  N   -0.841533
   145  H    0.390111
   146  H    0.448196
   147  N   -0.792982
   148  H    0.398073
   149  H    0.352382
   150  C    0.782521
   151  O   -0.637039
   152  H    0.417707
 Sum of Mulliken charges =   1.00000

 Dipole moment (field-independent basis, Debye):
    X=            -57.6298    Y=             19.5703    Z=             20.0892  Tot=             64.0919
 Quadrupole moment (field-independent basis, Debye-Ang):
   XX=           -498.1797   YY=           -404.6019   ZZ=           -182.1995
   XY=            -49.5354   XZ=           -170.8503   YZ=             75.3143

 Normal termination of Gaussian 16 at Sat Aug 13 18:48:16 2022.
