 Gaussian 16, Revision C.01,
 Gaussian 16:  ES64L-G16RevC.01  3-Jul-2019

 ----------------------------------------------------------------------
 # B3LYP/6-31G* empiricaldispersion=gd3 guess=read geom=check nosymm in
 tegral(ultrafinegrid)
 ----------------------------------------------------------------------

 ------------------------------------------------------
 Candidate Structure: Conf:564 Charge calc in gas phase
 ------------------------------------------------------
 Structure from the checkpoint file:  "conf-564.chk"
 Charge =  1 Multiplicity = 1

                          Input orientation:
 ---------------------------------------------------------------------
 Center     Atomic      Atomic             Coordinates (Angstroms)
 Number     Number       Type             X           Y           Z
 ---------------------------------------------------------------------
      1          7           0       -7.241564   -3.253185   -3.169184
      2          1           0       -7.407381   -2.292696   -2.773626
      3          1           0       -7.893549   -3.925001   -2.756067
      4          1           0       -7.394316   -3.168511   -4.194601
      5          6           0       -5.789578   -3.667273   -3.032181
      6          1           0       -5.463142   -3.379321   -2.030279
      7          6           0       -5.120799   -2.818933   -4.138375
      8          6           0       -5.640124   -5.164833   -3.279786
      9          1           0       -4.585142   -5.441589   -3.197343
     10          1           0       -6.199779   -5.752681   -2.544044
     11          1           0       -5.979559   -5.420564   -4.288647
     12          8           0       -5.748807   -2.682202   -5.191266
     13          7           0       -3.942790   -2.256594   -3.855191
     14          1           0       -3.443594   -2.436996   -2.988096
     15          6           0       -3.431736   -1.121126   -4.606581
     16          1           0       -3.671891   -1.266659   -5.661926
     17          6           0       -1.924429   -1.064257   -4.335038
     18          6           0       -4.055676    0.227056   -4.071301
     19          1           0       -3.488594    0.533614   -3.187823
     20          1           0       -3.876977    1.005679   -4.819321
     21          8           0       -1.473689   -1.572133   -3.311280
     22          6           0       -5.510751    0.122677   -3.733571
     23          6           0       -6.014433   -0.144417   -2.495435
     24          1           0       -5.498197   -0.228477   -1.548029
     25          6           0       -6.640363    0.171485   -4.645319
     26          6           0       -7.805664   -0.081421   -3.890455
     27          6           0       -6.752348    0.389516   -6.024692
     28          1           0       -5.868574    0.568861   -6.629597
     29          7           0       -7.411212   -0.373108   -2.561084
     30          1           0       -7.997177   -0.055568   -1.793834
     31          6           0       -9.168181    0.134617   -5.827790
     32          1           0      -10.143449    0.139236   -6.304931
     33          6           0       -9.078896   -0.107022   -4.457594
     34          1           0       -9.967171   -0.289879   -3.858557
     35          6           0       -8.017343    0.373993   -6.602109
     36          1           0       -8.123337    0.549717   -7.668207
     37          7           0       -1.169057   -0.369194   -5.226931
     38          1           0       -1.681644    0.215140   -5.877865
     39          6           0        0.078905    0.223497   -4.736365
     40          1           0        0.696351   -0.591513   -4.346879
     41          6           0       -0.286913    1.202569   -3.601047
     42          6           0        0.806286    0.923508   -5.900483
     43          1           0        0.854958    0.199582   -6.721925
     44          1           0        0.198005    1.767919   -6.244746
     45          8           0       -1.353163    1.815543   -3.631425
     46          6           0        2.238793    1.403200   -5.594186
     47          1           0        2.744381    0.729300   -4.890427
     48          1           0        2.842007    1.364735   -6.507177
     49          6           0        2.443488    2.809812   -5.049280
     50          8           0        3.533060    3.323207   -4.935460
     51          8           0        1.291725    3.433138   -4.713619
     52          7           0        0.631532    1.316649   -2.623190
     53          1           0        1.524551    0.843356   -2.699901
     54          6           0        0.616040    2.412955   -1.666392
     55          1           0       -0.159925    3.109147   -1.997128
     56          6           0        1.996382    3.065101   -1.752441
     57          6           0        0.283684    1.931830   -0.227417
     58          1           0        0.339240    2.819864    0.416996
     59          8           0        3.001916    2.374486   -1.942194
     60          6           0       -1.154669    1.392709   -0.193822
     61          1           0       -1.247070    0.513403   -0.843020
     62          1           0       -1.424558    1.095347    0.825591
     63          1           0       -1.875431    2.143015   -0.538660
     64          6           0        1.276939    0.884895    0.297945
     65          1           0        1.236304   -0.023701   -0.315589
     66          1           0        2.311562    1.238135    0.312625
     67          1           0        1.007575    0.601362    1.321166
     68          7           0        2.037544    4.410535   -1.623218
     69          1           0        1.208467    4.935049   -1.365275
     70          6           0        3.295620    5.148313   -1.505471
     71          1           0        4.045168    4.593605   -2.077614
     72          6           0        3.694802    5.211801   -0.007092
     73          6           0        3.102229    6.565403   -2.074905
     74          1           0        4.053096    7.099324   -1.934643
     75          8           0        3.726736    6.288196    0.602177
     76          6           0        2.726292    6.567178   -3.551458
     77          1           0        3.390292    5.924739   -4.139154
     78          1           0        1.690852    6.219017   -3.663326
     79          1           0        2.761395    7.585551   -3.948194
     80          8           0        2.052095    7.217436   -1.366820
     81          1           0        2.399864    7.309876   -0.456276
     82          7           0        3.908123    4.012575    0.558269
     83          1           0        3.963827    3.170304   -0.011833
     84          6           0        4.078046    3.784037    1.989959
     85          1           0        4.590126    4.650038    2.420987
     86          6           0        4.934897    2.507974    2.092339
     87          6           0        2.716520    3.573574    2.729884
     88          1           0        2.330380    2.598698    2.399905
     89          8           0        4.834657    1.640827    1.205206
     90          6           0        2.903377    3.542672    4.255926
     91          1           0        3.287402    4.507360    4.612561
     92          1           0        3.592606    2.771888    4.609812
     93          1           0        1.935941    3.376837    4.743952
     94          6           0        1.684121    4.649158    2.358893
     95          1           0        2.045858    5.648317    2.620923
     96          1           0        0.748433    4.467324    2.900463
     97          1           0        1.454717    4.651682    1.288487
     98          7           0        5.737176    2.412264    3.158120
     99          1           0        5.607727    3.023141    3.980462
    100          6           0        6.283089    1.150452    3.650485
    101          1           0        5.633530    0.328595    3.326336
    102          6           0        6.265345    1.226560    5.238489
    103          6           0        7.707492    0.890252    3.167362
    104          1           0        8.062548    0.004693    3.706165
    105          1           0        8.342582    1.733569    3.476018
    106          8           0        6.773395    0.244207    5.803041
    107          6           0        7.816409    0.698934    1.652494
    108          1           0        7.200782   -0.153509    1.338241
    109          1           0        7.407592    1.573514    1.133926
    110          6           0        9.276731    0.477513    1.224843
    111          1           0        9.883130    1.336210    1.548709
    112          1           0        9.678537   -0.414788    1.726400
    113          6           0        9.378267    0.317452   -0.279630
    114          1           0        9.022909    1.198140   -0.820167
    115          1           0        8.850631   -0.565914   -0.647384
    116          7           0       10.850364    0.133023   -0.696815
    117          1           0       10.970718    0.020278   -1.710402
    118          1           0       11.406888    0.942912   -0.397990
    119          1           0       11.250041   -0.691972   -0.233741
    120          8           0        5.751612    2.284193    5.698486
    121          1           0        1.538554    4.298919   -4.332936
 ---------------------------------------------------------------------

 SCF Done:  E(RB3LYP) =  -2843.73796110     A.U. after    2 cycles

 Alpha  occ. eigenvalues --  -19.25901 -19.24875 -19.21791 -19.19739 -19.18324
 Alpha  occ. eigenvalues --  -19.17975 -19.17701 -19.15745 -19.13168 -19.05075
 Alpha  occ. eigenvalues --  -19.04076 -14.61696 -14.58329 -14.49340 -14.48369
 Alpha  occ. eigenvalues --  -14.45242 -14.42551 -14.42534 -14.38928 -14.35399
 Alpha  occ. eigenvalues --  -10.42165 -10.39844 -10.38611 -10.38426 -10.37999
 Alpha  occ. eigenvalues --  -10.35505 -10.34925 -10.34378 -10.32674 -10.32645
 Alpha  occ. eigenvalues --  -10.32564 -10.32400 -10.31560 -10.29877 -10.29589
 Alpha  occ. eigenvalues --  -10.29420 -10.29399 -10.29032 -10.29000 -10.28825
 Alpha  occ. eigenvalues --  -10.28364 -10.28279 -10.28233 -10.27893 -10.27779
 Alpha  occ. eigenvalues --  -10.27743 -10.27694 -10.25336 -10.24934 -10.23997
 Alpha  occ. eigenvalues --  -10.23088 -10.22710 -10.22579 -10.21786 -10.21291
 Alpha  occ. eigenvalues --  -10.20634 -10.20233 -10.19913 -10.18034  -1.17638
 Alpha  occ. eigenvalues --   -1.16664  -1.15494  -1.13889  -1.12483  -1.10565
 Alpha  occ. eigenvalues --   -1.09760  -1.08189  -1.07687  -1.07539  -1.05171
 Alpha  occ. eigenvalues --   -1.05107  -1.04474  -1.01839  -0.99337  -0.98621
 Alpha  occ. eigenvalues --   -0.98114  -0.95388  -0.93979  -0.92370  -0.92332
 Alpha  occ. eigenvalues --   -0.90942  -0.90753  -0.89385  -0.88633  -0.86233
 Alpha  occ. eigenvalues --   -0.85850  -0.83451  -0.83022  -0.82457  -0.82163
 Alpha  occ. eigenvalues --   -0.81663  -0.80865  -0.79829  -0.77947  -0.76663
 Alpha  occ. eigenvalues --   -0.76518  -0.75598  -0.74154  -0.74015  -0.73049
 Alpha  occ. eigenvalues --   -0.72786  -0.72469  -0.72013  -0.71750  -0.71134
 Alpha  occ. eigenvalues --   -0.70766  -0.69801  -0.69280  -0.68457  -0.67990
 Alpha  occ. eigenvalues --   -0.67355  -0.66376  -0.66089  -0.65407  -0.64596
 Alpha  occ. eigenvalues --   -0.64480  -0.63812  -0.63336  -0.62700  -0.62356
 Alpha  occ. eigenvalues --   -0.61985  -0.61420  -0.60817  -0.59692  -0.59148
 Alpha  occ. eigenvalues --   -0.58683  -0.58593  -0.58197  -0.57831  -0.57550
 Alpha  occ. eigenvalues --   -0.57324  -0.56893  -0.56280  -0.55566  -0.55357
 Alpha  occ. eigenvalues --   -0.55157  -0.54857  -0.54758  -0.53866  -0.53621
 Alpha  occ. eigenvalues --   -0.53315  -0.53128  -0.52914  -0.52412  -0.52071
 Alpha  occ. eigenvalues --   -0.51721  -0.51641  -0.51334  -0.51236  -0.50953
 Alpha  occ. eigenvalues --   -0.50864  -0.50679  -0.50488  -0.49790  -0.49658
 Alpha  occ. eigenvalues --   -0.49232  -0.49000  -0.48702  -0.48185  -0.47912
 Alpha  occ. eigenvalues --   -0.47684  -0.47413  -0.47133  -0.46988  -0.46733
 Alpha  occ. eigenvalues --   -0.46580  -0.46399  -0.45809  -0.45532  -0.45257
 Alpha  occ. eigenvalues --   -0.45019  -0.44787  -0.44623  -0.44359  -0.43787
 Alpha  occ. eigenvalues --   -0.43738  -0.43310  -0.43150  -0.43123  -0.42986
 Alpha  occ. eigenvalues --   -0.42528  -0.42213  -0.42186  -0.42005  -0.41349
 Alpha  occ. eigenvalues --   -0.41284  -0.40974  -0.40313  -0.40134  -0.39592
 Alpha  occ. eigenvalues --   -0.39353  -0.39194  -0.38873  -0.38580  -0.38462
 Alpha  occ. eigenvalues --   -0.37857  -0.37638  -0.37371  -0.37271  -0.37110
 Alpha  occ. eigenvalues --   -0.36297  -0.35969  -0.35803  -0.35164  -0.35109
 Alpha  occ. eigenvalues --   -0.34897  -0.34484  -0.33731  -0.33411  -0.33006
 Alpha  occ. eigenvalues --   -0.32759  -0.32485  -0.32245  -0.31461  -0.31063
 Alpha  occ. eigenvalues --   -0.30969  -0.28817  -0.28528  -0.27016  -0.26556
 Alpha  occ. eigenvalues --   -0.20272  -0.19859  -0.18398
 Alpha virt. eigenvalues --   -0.12437  -0.11988  -0.11610  -0.08944  -0.08406
 Alpha virt. eigenvalues --   -0.08118  -0.05796  -0.05561  -0.05370  -0.05263
 Alpha virt. eigenvalues --   -0.04665  -0.04125  -0.03652  -0.02849  -0.02629

 Mulliken charges:
               1
     1  N   -0.765088
     2  H    0.441892
     3  H    0.400212
     4  H    0.423225
     5  C   -0.107817
     6  H    0.199129
     7  C    0.656466
     8  C   -0.469512
     9  H    0.212201
    10  H    0.182671
    11  H    0.200556
    12  O   -0.527132
    13  N   -0.597206
    14  H    0.360232
    15  C   -0.075189
    16  H    0.195924
    17  C    0.639979
    18  C   -0.376188
    19  H    0.209045
    20  H    0.182580
    21  O   -0.529047
    22  C    0.111895
    23  C   -0.078441
    24  H    0.171192
    25  C    0.143277
    26  C    0.214940
    27  C   -0.184118
    28  H    0.139756
    29  N   -0.722189
    30  H    0.357164
    31  C   -0.142900
    32  H    0.155691
    33  C   -0.190613
    34  H    0.142734
    35  C   -0.133926
    36  H    0.153917
    37  N   -0.590721
    38  H    0.339341
    39  C   -0.070382
    40  H    0.180147
    41  C    0.663246
    42  C   -0.290028
    43  H    0.165786
    44  H    0.177426
    45  O   -0.561180
    46  C   -0.382271
    47  H    0.188062
    48  H    0.195400
    49  C    0.605600
    50  O   -0.461332
    51  O   -0.585730
    52  N   -0.595605
    53  H    0.350224
    54  C   -0.064880
    55  H    0.171281
    56  C    0.641774
    57  C   -0.086451
    58  H    0.151516
    59  O   -0.561202
    60  C   -0.454876
    61  H    0.153300
    62  H    0.146950
    63  H    0.143933
    64  C   -0.478107
    65  H    0.134768
    66  H    0.200026
    67  H    0.153665
    68  N   -0.611856
    69  H    0.349493
    70  C   -0.095688
    71  H    0.194155
    72  C    0.631940
    73  C    0.127967
    74  H    0.144448
    75  O   -0.555460
    76  C   -0.478425
    77  H    0.171697
    78  H    0.134280
    79  H    0.171369
    80  O   -0.656747
    81  H    0.422656
    82  N   -0.633985
    83  H    0.379534
    84  C   -0.035081
    85  H    0.170411
    86  C    0.595818
    87  C   -0.085912
    88  H    0.136419
    89  O   -0.584968
    90  C   -0.475173
    91  H    0.146543
    92  H    0.202910
    93  H    0.134483
    94  C   -0.448355
    95  H    0.167955
    96  H    0.136668
    97  H    0.119037
    98  N   -0.597334
    99  H    0.359705
   100  C   -0.081412
   101  H    0.142726
   102  C    0.583836
   103  C   -0.256014
   104  H    0.165618
   105  H    0.128002
   106  O   -0.588784
   107  C   -0.261364
   108  H    0.153117
   109  H    0.165241
   110  C   -0.291000
   111  H    0.158955
   112  H    0.161788
   113  C   -0.205391
   114  H    0.226762
   115  H    0.222779
   116  N   -0.731305
   117  H    0.420477
   118  H    0.423089
   119  H    0.422617
   120  O   -0.605786
   121  H    0.432550
 Sum of Mulliken charges =   1.00000

 Dipole moment (field-independent basis, Debye):
    X=             -5.0623    Y=            -14.9608    Z=            -32.6825  Tot=             36.2988
 Quadrupole moment (field-independent basis, Debye-Ang):
   XX=            197.7473   YY=           -328.8355   ZZ=           -383.6220
   XY=             53.3684   XZ=            -60.7024   YZ=              8.0478

 Normal termination of Gaussian 16 at Sat Jun 25 09:16:28 2022.
