 Gaussian 16, Revision C.01,
 Gaussian 16:  ES64L-G16RevC.01  3-Jul-2019

 ----------------------------------------------------------------------
 # B3LYP/6-31G* empiricaldispersion=gd3 guess=read geom=check nosymm in
 tegral(ultrafinegrid)
 ----------------------------------------------------------------------

 ------------------------------------------------------
 Candidate Structure: Conf:156 Charge calc in gas phase
 ------------------------------------------------------
 Structure from the checkpoint file:  "conf-156.chk"
 Charge =  1 Multiplicity = 1

                          Input orientation:
 ---------------------------------------------------------------------
 Center     Atomic      Atomic             Coordinates (Angstroms)
 Number     Number       Type             X           Y           Z
 ---------------------------------------------------------------------
      1          7           0       -4.126717   -4.036938   -6.344317
      2          1           0       -3.519075   -3.360977   -6.902851
      3          1           0       -4.613914   -4.700999   -6.950369
      4          1           0       -3.521407   -4.559083   -5.702628
      5          6           0       -5.045590   -3.084600   -5.598664
      6          1           0       -6.017598   -3.124100   -6.098866
      7          6           0       -4.363432   -1.712283   -5.858551
      8          6           0       -5.155735   -3.448344   -4.120050
      9          1           0       -5.924936   -2.832448   -3.643579
     10          1           0       -5.453384   -4.493902   -3.990426
     11          1           0       -4.206733   -3.256561   -3.608321
     12          8           0       -3.434534   -1.674285   -6.676958
     13          7           0       -4.813285   -0.675172   -5.158092
     14          1           0       -5.584803   -0.803948   -4.512664
     15          6           0       -4.009144    0.530810   -5.004478
     16          1           0       -3.899639    1.006290   -5.984455
     17          6           0       -2.627476    0.121677   -4.440656
     18          6           0       -4.685946    1.515958   -3.997453
     19          1           0       -4.407252    1.214067   -2.980806
     20          1           0       -4.246413    2.505439   -4.156634
     21          8           0       -2.461266   -0.966973   -3.883654
     22          6           0       -6.178972    1.562693   -4.109483
     23          6           0       -6.952343    2.387877   -4.890077
     24          1           0       -6.658189    3.212887   -5.524577
     25          6           0       -7.084925    0.646227   -3.460241
     26          6           0       -8.396921    0.965136   -3.906803
     27          6           0       -6.910544   -0.416192   -2.549648
     28          1           0       -5.926932   -0.645088   -2.146176
     29          7           0       -8.279642    2.031958   -4.773754
     30          1           0       -9.050465    2.523125   -5.201271
     31          6           0       -9.319168   -0.801050   -2.594840
     32          1           0      -10.173697   -1.370395   -2.242041
     33          6           0       -9.521963    0.252419   -3.480086
     34          1           0      -10.518787    0.512124   -3.824715
     35          6           0       -8.028366   -1.131413   -2.130958
     36          1           0       -7.911971   -1.938312   -1.412904
     37          7           0       -1.670825    1.066960   -4.538264
     38          1           0       -1.906515    1.972885   -4.926114
     39          6           0       -0.382184    0.968274   -3.832150
     40          1           0       -0.076692   -0.081369   -3.893125
     41          6           0       -0.602836    1.346903   -2.349644
     42          6           0        0.661270    1.869073   -4.488193
     43          1           0        0.284694    2.896532   -4.532489
     44          1           0        1.543289    1.902765   -3.840881
     45          8           0       -0.287720    2.454055   -1.911799
     46          6           0        1.048798    1.387403   -5.890516
     47          1           0        1.708257    0.515237   -5.851439
     48          1           0        0.156861    1.079818   -6.455716
     49          6           0        1.704240    2.488811   -6.700871
     50          8           0        1.439286    3.667149   -6.611922
     51          8           0        2.604890    1.995142   -7.580320
     52          7           0       -1.187156    0.377845   -1.607588
     53          1           0       -1.361060   -0.517256   -2.050559
     54          6           0       -1.357910    0.469899   -0.150697
     55          1           0       -1.655120    1.499801    0.075010
     56          6           0        0.044095    0.159393    0.431574
     57          6           0       -2.425986   -0.513182    0.346131
     58          1           0       -2.027565   -1.522665    0.178634
     59          8           0        0.397386   -0.991255    0.673526
     60          6           0       -2.632323   -0.333143    1.856381
     61          1           0       -2.998220    0.675609    2.086531
     62          1           0       -3.370450   -1.050094    2.231475
     63          1           0       -1.698609   -0.497467    2.401773
     64          6           0       -3.747904   -0.355931   -0.420487
     65          1           0       -4.136832    0.667022   -0.332226
     66          1           0       -3.629815   -0.584917   -1.486007
     67          1           0       -4.506639   -1.032774   -0.010543
     68          7           0        0.849258    1.244159    0.491114
     69          1           0        0.469164    2.172387    0.338724
     70          6           0        2.290534    1.191921    0.629540
     71          1           0        2.556674    0.339372    1.262054
     72          6           0        2.728918    2.523185    1.262708
     73          6           0        2.991270    1.039991   -0.757514
     74          1           0        4.073451    1.067841   -0.579770
     75          8           0        1.989675    3.503981    1.250583
     76          6           0        2.643738   -0.271280   -1.464941
     77          1           0        2.877023   -1.140890   -0.843136
     78          1           0        1.576906   -0.316279   -1.704329
     79          1           0        3.211725   -0.331065   -2.398983
     80          8           0        2.728313    2.163837   -1.591581
     81          1           0        1.775796    2.370025   -1.563905
     82          7           0        3.978641    2.513579    1.783892
     83          1           0        4.590622    1.723508    1.599250
     84          6           0        4.709085    3.735042    2.083924
     85          1           0        4.207779    4.559060    1.563164
     86          6           0        6.126580    3.540689    1.514952
     87          6           0        4.747438    4.059269    3.603399
     88          1           0        5.326028    4.988556    3.706662
     89          8           0        6.536287    2.426637    1.179301
     90          6           0        3.332067    4.312281    4.137140
     91          1           0        2.724795    3.403445    4.068922
     92          1           0        2.818406    5.092282    3.566355
     93          1           0        3.371536    4.616127    5.189296
     94          6           0        5.457459    2.957764    4.401307
     95          1           0        4.919484    2.007498    4.304861
     96          1           0        5.490077    3.217478    5.464744
     97          1           0        6.486096    2.799166    4.059817
     98          7           0        6.887837    4.653626    1.461686
     99          1           0        6.508042    5.565856    1.687424
    100          6           0        8.267154    4.639479    1.004193
    101          1           0        8.767940    3.759524    1.413906
    102          6           0        8.958767    5.896092    1.502205
    103          6           0        8.350872    4.593624   -0.557139
    104          1           0        7.523486    5.200834   -0.944536
    105          1           0        8.141080    3.558542   -0.842628
    106          8           0       10.266338    5.716643    1.635909
    107          6           0        9.679839    5.081879   -1.176922
    108          1           0       10.513520    4.778075   -0.536848
    109          1           0        9.826211    4.567458   -2.133627
    110          6           0        9.720179    6.616928   -1.429997
    111          1           0        9.453437    6.802177   -2.477199
    112          1           0        8.943619    7.119558   -0.841003
    113          6           0       11.061541    7.322632   -1.149253
    114          1           0       11.174581    8.178846   -1.829722
    115          1           0       11.899010    6.643836   -1.346970
    116          7           0       11.171902    7.766306    0.265224
    117          1           0       12.076678    8.205243    0.430237
    118          1           0       10.460048    8.471272    0.460116
    119          1           0       10.735656    6.581199    1.333068
    120          8           0        8.372535    6.961360    1.629107
    121          1           0        2.957574    2.757829   -8.077769
 ---------------------------------------------------------------------

 SCF Done:  E(RB3LYP) =  -2843.81644457     A.U. after    2 cycles

 Alpha  occ. eigenvalues --  -19.27391 -19.25798 -19.23112 -19.20043 -19.19908
 Alpha  occ. eigenvalues --  -19.19856 -19.18470 -19.16941 -19.16684 -19.16033
 Alpha  occ. eigenvalues --  -19.15932 -14.60456 -14.49795 -14.47748 -14.47366
 Alpha  occ. eigenvalues --  -14.44062 -14.40774 -14.40163 -14.39797 -14.39306
 Alpha  occ. eigenvalues --  -10.43963 -10.41537 -10.40079 -10.38396 -10.36888
 Alpha  occ. eigenvalues --  -10.35712 -10.34752 -10.33992 -10.33457 -10.33118
 Alpha  occ. eigenvalues --  -10.32901 -10.32390 -10.31913 -10.31624 -10.30984
 Alpha  occ. eigenvalues --  -10.29809 -10.28838 -10.28501 -10.28437 -10.28434
 Alpha  occ. eigenvalues --  -10.28387 -10.27995 -10.27877 -10.27798 -10.27240
 Alpha  occ. eigenvalues --  -10.27078 -10.27000 -10.26570 -10.26398 -10.26164
 Alpha  occ. eigenvalues --  -10.25150 -10.23384 -10.23291 -10.22806 -10.22732
 Alpha  occ. eigenvalues --  -10.22351 -10.22293 -10.20695 -10.20337  -1.19956
 Alpha  occ. eigenvalues --   -1.16611  -1.15036  -1.14124  -1.12229  -1.11733
 Alpha  occ. eigenvalues --   -1.08883  -1.08151  -1.07718  -1.07649  -1.07465
 Alpha  occ. eigenvalues --   -1.06889  -1.05856  -1.03712  -1.03504  -1.00389
 Alpha  occ. eigenvalues --   -0.97379  -0.96865  -0.96525  -0.94787  -0.94006
 Alpha  occ. eigenvalues --   -0.93491  -0.91030  -0.88791  -0.87330  -0.86432
 Alpha  occ. eigenvalues --   -0.84856  -0.83624  -0.83236  -0.82415  -0.82129
 Alpha  occ. eigenvalues --   -0.81721  -0.80890  -0.79387  -0.78201  -0.77305
 Alpha  occ. eigenvalues --   -0.76445  -0.75236  -0.75045  -0.74513  -0.74195
 Alpha  occ. eigenvalues --   -0.72657  -0.72118  -0.71906  -0.71582  -0.71217
 Alpha  occ. eigenvalues --   -0.70005  -0.68708  -0.67607  -0.67105  -0.66918
 Alpha  occ. eigenvalues --   -0.65863  -0.65609  -0.65039  -0.64951  -0.64358
 Alpha  occ. eigenvalues --   -0.63895  -0.63810  -0.63211  -0.63044  -0.62720
 Alpha  occ. eigenvalues --   -0.62138  -0.61295  -0.60876  -0.60334  -0.59794
 Alpha  occ. eigenvalues --   -0.58856  -0.58677  -0.58059  -0.57584  -0.57076
 Alpha  occ. eigenvalues --   -0.56688  -0.55898  -0.55499  -0.55168  -0.54949
 Alpha  occ. eigenvalues --   -0.54718  -0.54386  -0.54344  -0.53852  -0.53771
 Alpha  occ. eigenvalues --   -0.53595  -0.53376  -0.53064  -0.52842  -0.52706
 Alpha  occ. eigenvalues --   -0.52231  -0.52208  -0.51872  -0.51589  -0.51412
 Alpha  occ. eigenvalues --   -0.51052  -0.50642  -0.50242  -0.50050  -0.49956
 Alpha  occ. eigenvalues --   -0.49913  -0.49403  -0.49239  -0.48889  -0.48577
 Alpha  occ. eigenvalues --   -0.48155  -0.47902  -0.47797  -0.47547  -0.47313
 Alpha  occ. eigenvalues --   -0.47154  -0.46915  -0.46742  -0.46522  -0.46104
 Alpha  occ. eigenvalues --   -0.45680  -0.45620  -0.45225  -0.44982  -0.44748
 Alpha  occ. eigenvalues --   -0.44673  -0.44456  -0.43849  -0.43405  -0.43354
 Alpha  occ. eigenvalues --   -0.43254  -0.42994  -0.42916  -0.42839  -0.42360
 Alpha  occ. eigenvalues --   -0.41957  -0.41742  -0.41596  -0.41310  -0.41058
 Alpha  occ. eigenvalues --   -0.40775  -0.40539  -0.40511  -0.40416  -0.40223
 Alpha  occ. eigenvalues --   -0.39915  -0.39585  -0.38117  -0.38057  -0.37811
 Alpha  occ. eigenvalues --   -0.37723  -0.37389  -0.37340  -0.37088  -0.37014
 Alpha  occ. eigenvalues --   -0.36861  -0.36710  -0.36479  -0.34813  -0.33832
 Alpha  occ. eigenvalues --   -0.33373  -0.32912  -0.32041  -0.32033  -0.31567
 Alpha  occ. eigenvalues --   -0.31003  -0.30904  -0.30375  -0.30150  -0.29762
 Alpha  occ. eigenvalues --   -0.29336  -0.29071  -0.28579
 Alpha virt. eigenvalues --   -0.13266  -0.11376  -0.10726  -0.09334  -0.07569
 Alpha virt. eigenvalues --   -0.06702  -0.06385  -0.05192  -0.04808  -0.04173
 Alpha virt. eigenvalues --   -0.03141  -0.03006  -0.02333  -0.01992  -0.01496

 Mulliken charges:
               1
     1  N   -0.754248
     2  H    0.436776
     3  H    0.415660
     4  H    0.418709
     5  C   -0.114736
     6  H    0.230154
     7  C    0.674850
     8  C   -0.502502
     9  H    0.212182
    10  H    0.186215
    11  H    0.217169
    12  O   -0.538216
    13  N   -0.609172
    14  H    0.374132
    15  C   -0.039770
    16  H    0.189505
    17  C    0.657555
    18  C   -0.419201
    19  H    0.195809
    20  H    0.178299
    21  O   -0.564552
    22  C    0.067511
    23  C    0.014880
    24  H    0.173568
    25  C    0.037714
    26  C    0.322480
    27  C   -0.253074
    28  H    0.158439
    29  N   -0.685324
    30  H    0.347350
    31  C   -0.152935
    32  H    0.151262
    33  C   -0.154629
    34  H    0.151070
    35  C   -0.150481
    36  H    0.141568
    37  N   -0.598772
    38  H    0.349299
    39  C   -0.069684
    40  H    0.182852
    41  C    0.625502
    42  C   -0.310278
    43  H    0.188484
    44  H    0.203584
    45  O   -0.535263
    46  C   -0.364530
    47  H    0.182456
    48  H    0.172990
    49  C    0.581561
    50  O   -0.454099
    51  O   -0.561806
    52  N   -0.616068
    53  H    0.363973
    54  C   -0.032720
    55  H    0.166383
    56  C    0.627906
    57  C   -0.101932
    58  H    0.153773
    59  O   -0.542201
    60  C   -0.460985
    61  H    0.146583
    62  H    0.150066
    63  H    0.181254
    64  C   -0.472891
    65  H    0.152516
    66  H    0.139057
    67  H    0.148413
    68  N   -0.609960
    69  H    0.366314
    70  C   -0.105501
    71  H    0.180755
    72  C    0.644229
    73  C    0.140256
    74  H    0.155974
    75  O   -0.537981
    76  C   -0.456536
    77  H    0.163324
    78  H    0.129953
    79  H    0.149732
    80  O   -0.651538
    81  H    0.423487
    82  N   -0.606788
    83  H    0.353272
    84  C   -0.068270
    85  H    0.178341
    86  C    0.631795
    87  C   -0.071485
    88  H    0.130186
    89  O   -0.555272
    90  C   -0.441771
    91  H    0.153470
    92  H    0.157467
    93  H    0.143019
    94  C   -0.461366
    95  H    0.149021
    96  H    0.151070
    97  H    0.159204
    98  N   -0.619417
    99  H    0.349215
   100  C    0.000909
   101  H    0.187077
   102  C    0.572184
   103  C   -0.282445
   104  H    0.147589
   105  H    0.173566
   106  O   -0.600765
   107  C   -0.285828
   108  H    0.169594
   109  H    0.141796
   110  C   -0.290847
   111  H    0.146725
   112  H    0.164046
   113  C   -0.140054
   114  H    0.143401
   115  H    0.161195
   116  N   -0.776931
   117  H    0.330217
   118  H    0.340932
   119  H    0.455389
   120  O   -0.508037
   121  H    0.416652
 Sum of Mulliken charges =   1.00000

 Dipole moment (field-independent basis, Debye):
    X=            -19.4567    Y=             -6.3260    Z=            -28.4987  Tot=             35.0821
 Quadrupole moment (field-independent basis, Debye-Ang):
   XX=            -85.8643   YY=           -243.3693   ZZ=           -179.6813
   XY=            110.0804   XZ=            121.0975   YZ=             55.3722

 Normal termination of Gaussian 16 at Sat Jun 25 08:59:03 2022.
