 Gaussian 16, Revision C.01,
 Gaussian 16:  ES64L-G16RevC.01  3-Jul-2019

 ----------------------------------------------------------------------
 # B3LYP/6-31G* empiricaldispersion=gd3 guess=read geom=check nosymm in
 tegral(ultrafinegrid)
 ----------------------------------------------------------------------

 -----------------------------------------------------
 Candidate Structure: Conf:34 Charge calc in gas phase
 -----------------------------------------------------
 Structure from the checkpoint file:  "conf-34.chk"
 Charge =  1 Multiplicity = 1

                          Input orientation:
 ---------------------------------------------------------------------
 Center     Atomic      Atomic             Coordinates (Angstroms)
 Number     Number       Type             X           Y           Z
 ---------------------------------------------------------------------
      1          7           0       -3.969808   -0.747143   -8.927810
      2          1           0       -4.175665    0.245114   -8.714909
      3          1           0       -3.987331   -0.919564   -9.935785
      4          1           0       -2.981234   -0.894895   -8.578821
      5          6           0       -4.998072   -1.564720   -8.179513
      6          1           0       -5.900472   -1.574431   -8.800016
      7          6           0       -5.259801   -0.732349   -6.896661
      8          6           0       -4.483814   -2.982036   -7.926807
      9          1           0       -5.305309   -3.625059   -7.598326
     10          1           0       -4.083003   -3.422732   -8.845112
     11          1           0       -3.718017   -2.990564   -7.146045
     12          8           0       -4.826225    0.422089   -6.859541
     13          7           0       -5.918254   -1.327979   -5.880666
     14          1           0       -6.006145   -2.336760   -5.929124
     15          6           0       -5.650560   -0.841222   -4.513336
     16          1           0       -5.712716    0.246426   -4.538512
     17          6           0       -4.210944   -1.291906   -4.193223
     18          6           0       -6.646620   -1.410460   -3.486664
     19          1           0       -7.651086   -1.046554   -3.736569
     20          1           0       -6.659801   -2.504526   -3.570048
     21          8           0       -3.830697   -2.408043   -4.563680
     22          6           0       -6.224989   -1.011002   -2.103215
     23          6           0       -5.756269   -1.846451   -1.119124
     24          1           0       -5.688830   -2.925794   -1.109244
     25          6           0       -6.072724    0.336775   -1.609063
     26          6           0       -5.506770    0.240861   -0.308500
     27          6           0       -6.341742    1.612883   -2.139061
     28          1           0       -6.799370    1.723314   -3.119282
     29          7           0       -5.325062   -1.102034   -0.040593
     30          1           0       -4.989515   -1.479509    0.832095
     31          6           0       -5.491502    2.612463   -0.085126
     32          1           0       -5.278047    3.508417    0.490046
     33          6           0       -5.220737    1.367060    0.468102
     34          1           0       -4.803413    1.271564    1.466144
     35          6           0       -6.044917    2.735328   -1.376150
     36          1           0       -6.252533    3.724711   -1.772933
     37          7           0       -3.412389   -0.382584   -3.603159
     38          1           0       -3.791693    0.462458   -3.180856
     39          6           0       -2.011466   -0.656067   -3.326609
     40          1           0       -1.905341   -1.733742   -3.162930
     41          6           0       -1.643016    0.127946   -2.057194
     42          6           0       -1.097841   -0.229239   -4.508496
     43          1           0       -1.065940    0.865333   -4.559509
     44          1           0       -0.077209   -0.576798   -4.317494
     45          8           0       -2.276839    1.128078   -1.730754
     46          6           0       -1.629506   -0.795014   -5.830317
     47          1           0       -1.781843   -1.877988   -5.740834
     48          1           0       -2.615067   -0.371757   -6.037955
     49          6           0       -0.829821   -0.584060   -7.082583
     50          8           0       -1.304135   -0.729469   -8.210128
     51          8           0        0.447701   -0.266571   -6.894959
     52          7           0       -0.584799   -0.360982   -1.372866
     53          1           0       -0.048651   -1.144950   -1.727284
     54          6           0       -0.019987    0.295720   -0.202614
     55          1           0       -0.370783    1.333335   -0.208794
     56          6           0        1.501080    0.229230   -0.366371
     57          6           0       -0.479166   -0.380700    1.124666
     58          1           0       -0.096425   -1.410929    1.104370
     59          8           0        2.024208   -0.733442   -0.946152
     60          6           0        0.095694    0.333505    2.357537
     61          1           0       -0.195669    1.392175    2.371504
     62          1           0       -0.293793   -0.123617    3.272593
     63          1           0        1.187094    0.280841    2.404191
     64          6           0       -2.012627   -0.425254    1.193952
     65          1           0       -2.436589    0.583171    1.142856
     66          1           0       -2.440661   -1.002698    0.369780
     67          1           0       -2.328424   -0.887675    2.136367
     68          7           0        2.210844    1.240788    0.164318
     69          1           0        1.747040    2.018968    0.622482
     70          6           0        3.661610    1.209424    0.354506
     71          1           0        3.958863    0.183981    0.604838
     72          6           0        3.941873    2.177796    1.515814
     73          6           0        4.422484    1.613955   -0.937746
     74          1           0        3.939748    2.555308   -1.281380
     75          8           0        3.255910    3.203783    1.624166
     76          6           0        5.912387    1.859127   -0.710551
     77          1           0        6.108740    2.675584   -0.007697
     78          1           0        6.382305    0.945750   -0.327244
     79          1           0        6.381672    2.080651   -1.673687
     80          8           0        4.294096    0.629097   -1.938547
     81          1           0        3.537502    0.043172   -1.734523
     82          7           0        4.937777    1.821195    2.339862
     83          1           0        5.464394    0.993474    2.095704
     84          6           0        5.474567    2.644132    3.429313
     85          1           0        4.759213    2.625284    4.259582
     86          6           0        5.648569    4.102063    2.970085
     87          6           0        6.816520    2.026752    3.910607
     88          1           0        7.427287    1.867055    3.008775
     89          8           0        6.001666    4.338507    1.781068
     90          6           0        7.591075    2.973712    4.842221
     91          1           0        6.981635    3.333674    5.678432
     92          1           0        7.954121    3.856358    4.308287
     93          1           0        8.461058    2.450517    5.252467
     94          6           0        6.569319    0.674688    4.600597
     95          1           0        6.001539    0.819877    5.527279
     96          1           0        7.521140    0.201259    4.861907
     97          1           0        6.010101   -0.035211    3.977518
     98          7           0        5.410252    4.975575    3.932536
     99          1           0        5.269350    4.679394    4.934692
    100          6           0        5.706142    6.408855    4.064558
    101          1           0        6.665199    6.627379    3.580708
    102          6           0        5.826977    6.642007    5.630614
    103          6           0        4.610047    7.312385    3.447644
    104          1           0        4.986203    8.338901    3.445977
    105          1           0        3.707586    7.290781    4.070677
    106          8           0        6.088365    7.802503    5.960355
    107          6           0        4.343437    6.731144    2.066491
    108          1           0        5.328979    6.626156    1.601853
    109          1           0        3.987003    5.717931    2.273001
    110          6           0        3.395689    7.269898    0.996203
    111          1           0        2.427051    7.582339    1.403828
    112          1           0        3.812169    8.129489    0.456364
    113          6           0        3.129400    6.090717    0.040407
    114          1           0        2.717144    6.389899   -0.927329
    115          1           0        2.470126    5.357409    0.509080
    116          7           0        4.403832    5.302023   -0.248698
    117          1           0        4.194919    4.478297   -0.819982
    118          1           0        5.092594    5.871341   -0.749003
    119          1           0        4.897058    4.938880    0.629811
    120          8           0        5.602338    5.596728    6.317561
    121          1           0        0.879896   -0.185497   -7.768216
 ---------------------------------------------------------------------

 SCF Done:  E(RB3LYP) =  -2843.77444237     A.U. after    3 cycles

 Alpha  occ. eigenvalues --  -19.33039 -19.28061 -19.27071 -19.22369 -19.22266
 Alpha  occ. eigenvalues --  -19.21433 -19.21259 -19.20763 -19.17275 -19.07399
 Alpha  occ. eigenvalues --  -19.05854 -14.58423 -14.53273 -14.49589 -14.46349
 Alpha  occ. eigenvalues --  -14.46290 -14.46009 -14.45866 -14.45108 -14.38614
 Alpha  occ. eigenvalues --  -10.45951 -10.43891 -10.40884 -10.39323 -10.39179
 Alpha  occ. eigenvalues --  -10.38740 -10.38248 -10.34493 -10.33994 -10.33834
 Alpha  occ. eigenvalues --  -10.33595 -10.33284 -10.33074 -10.32897 -10.32884
 Alpha  occ. eigenvalues --  -10.31584 -10.30683 -10.30239 -10.29690 -10.29621
 Alpha  occ. eigenvalues --  -10.29585 -10.28639 -10.26908 -10.26734 -10.26365
 Alpha  occ. eigenvalues --  -10.26310 -10.26310 -10.25929 -10.25779 -10.25750
 Alpha  occ. eigenvalues --  -10.25691 -10.25520 -10.25031 -10.24935 -10.23463
 Alpha  occ. eigenvalues --  -10.23162 -10.23098 -10.21387 -10.21233  -1.24255
 Alpha  occ. eigenvalues --   -1.19328  -1.15029  -1.14590  -1.14338  -1.13300
 Alpha  occ. eigenvalues --   -1.12868  -1.12812  -1.08897  -1.08312  -1.07329
 Alpha  occ. eigenvalues --   -1.06198  -1.05882  -1.03020  -1.02541  -1.02427
 Alpha  occ. eigenvalues --   -1.01366  -1.00378  -0.95569  -0.93321  -0.91901
 Alpha  occ. eigenvalues --   -0.91548  -0.91478  -0.89929  -0.89755  -0.87623
 Alpha  occ. eigenvalues --   -0.87349  -0.85806  -0.85448  -0.84395  -0.81506
 Alpha  occ. eigenvalues --   -0.81465  -0.81263  -0.80985  -0.79734  -0.79142
 Alpha  occ. eigenvalues --   -0.77285  -0.76838  -0.76668  -0.75364  -0.74669
 Alpha  occ. eigenvalues --   -0.73581  -0.73396  -0.73077  -0.72178  -0.70486
 Alpha  occ. eigenvalues --   -0.70135  -0.69978  -0.69925  -0.69190  -0.68394
 Alpha  occ. eigenvalues --   -0.68181  -0.67609  -0.67096  -0.67036  -0.66578
 Alpha  occ. eigenvalues --   -0.66339  -0.66227  -0.65312  -0.64308  -0.64135
 Alpha  occ. eigenvalues --   -0.62779  -0.62401  -0.61905  -0.61580  -0.60991
 Alpha  occ. eigenvalues --   -0.60932  -0.60280  -0.60158  -0.59852  -0.59218
 Alpha  occ. eigenvalues --   -0.58675  -0.58487  -0.58237  -0.57821  -0.57591
 Alpha  occ. eigenvalues --   -0.57077  -0.56627  -0.56279  -0.56129  -0.55685
 Alpha  occ. eigenvalues --   -0.54971  -0.54696  -0.54625  -0.54460  -0.54346
 Alpha  occ. eigenvalues --   -0.53875  -0.53352  -0.53219  -0.52845  -0.52414
 Alpha  occ. eigenvalues --   -0.52267  -0.51955  -0.51508  -0.51171  -0.51082
 Alpha  occ. eigenvalues --   -0.50723  -0.50692  -0.50423  -0.50161  -0.49984
 Alpha  occ. eigenvalues --   -0.49529  -0.49318  -0.49095  -0.48906  -0.48652
 Alpha  occ. eigenvalues --   -0.48508  -0.48464  -0.48307  -0.48008  -0.47621
 Alpha  occ. eigenvalues --   -0.47435  -0.47104  -0.46937  -0.46823  -0.46760
 Alpha  occ. eigenvalues --   -0.46423  -0.46078  -0.45937  -0.45788  -0.45572
 Alpha  occ. eigenvalues --   -0.45291  -0.44814  -0.44318  -0.43687  -0.43281
 Alpha  occ. eigenvalues --   -0.43169  -0.42983  -0.42921  -0.42492  -0.42177
 Alpha  occ. eigenvalues --   -0.42019  -0.41910  -0.41616  -0.41354  -0.41152
 Alpha  occ. eigenvalues --   -0.41043  -0.40804  -0.39945  -0.39806  -0.39124
 Alpha  occ. eigenvalues --   -0.38554  -0.38336  -0.37470  -0.37030  -0.37022
 Alpha  occ. eigenvalues --   -0.36761  -0.36130  -0.36080  -0.35884  -0.35339
 Alpha  occ. eigenvalues --   -0.34989  -0.34853  -0.34714  -0.34472  -0.34408
 Alpha  occ. eigenvalues --   -0.33451  -0.31151  -0.29933  -0.29894  -0.28307
 Alpha  occ. eigenvalues --   -0.22497  -0.22189  -0.20087
 Alpha virt. eigenvalues --   -0.13640  -0.12546  -0.09123  -0.09094  -0.08901
 Alpha virt. eigenvalues --   -0.08541  -0.07404  -0.06514  -0.06158  -0.05251
 Alpha virt. eigenvalues --   -0.04583  -0.04204  -0.03661  -0.03172  -0.02153

 Mulliken charges:
               1
     1  N   -0.769951
     2  H    0.417305
     3  H    0.403956
     4  H    0.446749
     5  C   -0.117603
     6  H    0.226580
     7  C    0.649936
     8  C   -0.491926
     9  H    0.198045
    10  H    0.187634
    11  H    0.219769
    12  O   -0.523908
    13  N   -0.573882
    14  H    0.353001
    15  C   -0.076899
    16  H    0.198819
    17  C    0.627477
    18  C   -0.359318
    19  H    0.178813
    20  H    0.156755
    21  O   -0.568643
    22  C    0.041018
    23  C    0.009983
    24  H    0.164259
    25  C    0.065550
    26  C    0.327005
    27  C   -0.231552
    28  H    0.126945
    29  N   -0.689219
    30  H    0.340403
    31  C   -0.145062
    32  H    0.140461
    33  C   -0.150532
    34  H    0.138466
    35  C   -0.131086
    36  H    0.136228
    37  N   -0.601339
    38  H    0.380083
    39  C   -0.065006
    40  H    0.185218
    41  C    0.625997
    42  C   -0.264371
    43  H    0.172867
    44  H    0.177138
    45  O   -0.525661
    46  C   -0.411212
    47  H    0.223999
    48  H    0.193196
    49  C    0.624516
    50  O   -0.522340
    51  O   -0.524438
    52  N   -0.613685
    53  H    0.352697
    54  C   -0.053269
    55  H    0.179531
    56  C    0.626389
    57  C   -0.073843
    58  H    0.145900
    59  O   -0.563852
    60  C   -0.467810
    61  H    0.151180
    62  H    0.169549
    63  H    0.155863
    64  C   -0.465086
    65  H    0.171204
    66  H    0.149646
    67  H    0.147960
    68  N   -0.608480
    69  H    0.357937
    70  C   -0.101158
    71  H    0.178480
    72  C    0.625373
    73  C    0.193430
    74  H    0.074152
    75  O   -0.572241
    76  C   -0.500801
    77  H    0.183464
    78  H    0.155553
    79  H    0.170273
    80  O   -0.660072
    81  H    0.432459
    82  N   -0.612365
    83  H    0.344956
    84  C   -0.004444
    85  H    0.180306
    86  C    0.635516
    87  C   -0.121650
    88  H    0.138185
    89  O   -0.631081
    90  C   -0.475921
    91  H    0.199312
    92  H    0.169661
    93  H    0.152018
    94  C   -0.455193
    95  H    0.168165
    96  H    0.166812
    97  H    0.123460
    98  N   -0.592487
    99  H    0.378179
   100  C   -0.087197
   101  H    0.152475
   102  C    0.597986
   103  C   -0.258958
   104  H    0.169881
   105  H    0.148344
   106  O   -0.567963
   107  C   -0.312351
   108  H    0.137828
   109  H    0.171483
   110  C   -0.270315
   111  H    0.174198
   112  H    0.155512
   113  C   -0.193627
   114  H    0.176077
   115  H    0.220015
   116  N   -0.797708
   117  H    0.401299
   118  H    0.391058
   119  H    0.478424
   120  O   -0.619485
   121  H    0.434630
 Sum of Mulliken charges =   1.00000

 Dipole moment (field-independent basis, Debye):
    X=            -18.5782    Y=            -10.2635    Z=            -41.7524  Tot=             46.8375
 Quadrupole moment (field-independent basis, Debye-Ang):
   XX=           -288.8575   YY=           -380.8573   ZZ=           -167.8612
   XY=            -16.9461   XZ=             37.4456   YZ=            -78.5294

 Normal termination of Gaussian 16 at Sat Jun 25 08:35:26 2022.
