 Gaussian 16, Revision C.01,
 Gaussian 16:  ES64L-G16RevC.01  3-Jul-2019

 ----------------------------------------------------------------------
 # B3LYP/6-31G* empiricaldispersion=gd3 guess=read geom=check nosymm in
 tegral(ultrafinegrid)
 ----------------------------------------------------------------------

 ------------------------------------------------------
 Candidate Structure: Conf:474 Charge calc in gas phase
 ------------------------------------------------------
 Structure from the checkpoint file:  "conf-474.chk"
 Charge =  1 Multiplicity = 1

                          Input orientation:
 ---------------------------------------------------------------------
 Center     Atomic      Atomic             Coordinates (Angstroms)
 Number     Number       Type             X           Y           Z
 ---------------------------------------------------------------------
      1          7           0       -7.671286    1.029279   -5.540764
      2          1           0       -7.855385    1.657444   -4.727033
      3          1           0       -8.548385    0.784267   -6.007174
      4          1           0       -7.035300    1.565218   -6.169126
      5          6           0       -6.855726   -0.168812   -5.117052
      6          1           0       -7.204079   -0.462620   -4.124238
      7          6           0       -5.416496    0.399428   -5.058637
      8          6           0       -6.992407   -1.301413   -6.131967
      9          1           0       -6.368171   -2.143491   -5.820558
     10          1           0       -8.026311   -1.656700   -6.199555
     11          1           0       -6.653511   -0.979144   -7.122259
     12          8           0       -5.154479    1.398840   -5.737211
     13          7           0       -4.571211   -0.252492   -4.264698
     14          1           0       -4.876738   -1.033759   -3.685019
     15          6           0       -3.286336    0.283482   -3.831391
     16          1           0       -2.660735    0.495088   -4.703986
     17          6           0       -2.655913   -0.837622   -2.987736
     18          6           0       -3.472297    1.597478   -2.995685
     19          1           0       -2.530753    1.823903   -2.485116
     20          1           0       -3.647334    2.409309   -3.706918
     21          8           0       -3.337288   -1.771076   -2.565732
     22          6           0       -4.630342    1.497879   -2.044468
     23          6           0       -4.698840    0.758731   -0.886639
     24          1           0       -3.917452    0.208573   -0.382596
     25          6           0       -5.954758    2.024048   -2.268102
     26          6           0       -6.786489    1.543742   -1.213581
     27          6           0       -6.519361    2.875572   -3.235267
     28          1           0       -5.902391    3.291736   -4.026215
     29          7           0       -5.988763    0.780719   -0.392896
     30          1           0       -6.283592    0.348950    0.470229
     31          6           0       -8.691705    2.657590   -2.125782
     32          1           0       -9.743750    2.923074   -2.084678
     33          6           0       -8.152112    1.842557   -1.137480
     34          1           0       -8.768071    1.460481   -0.328408
     35          6           0       -7.881120    3.181540   -3.161282
     36          1           0       -8.312920    3.887586   -3.867888
     37          7           0       -1.327024   -0.713238   -2.760394
     38          1           0       -0.891816    0.192196   -2.924277
     39          6           0       -0.656705   -1.538061   -1.769911
     40          1           0       -0.981180   -2.575058   -1.904442
     41          6           0       -1.023784   -1.047345   -0.347748
     42          6           0        0.870243   -1.377147   -1.944696
     43          1           0        1.106725   -0.325434   -1.773999
     44          1           0        1.406795   -1.938901   -1.175157
     45          8           0       -1.671709   -0.007704   -0.170960
     46          6           0        1.407110   -1.763427   -3.323446
     47          1           0        1.494417   -2.846149   -3.455539
     48          1           0        0.738446   -1.407529   -4.118136
     49          6           0        2.757699   -1.110050   -3.563552
     50          8           0        3.153339   -0.102723   -3.012977
     51          8           0        3.467768   -1.769103   -4.498291
     52          7           0       -0.474531   -1.730132    0.688526
     53          1           0        0.122626   -2.515757    0.454115
     54          6           0       -0.037144   -0.990727    1.897549
     55          1           0       -0.871529   -0.355770    2.207018
     56          6           0        1.150697   -0.153222    1.374240
     57          6           0        0.361505   -1.935158    3.036161
     58          1           0        1.188666   -2.555743    2.665083
     59          8           0        2.271765   -0.649389    1.252583
     60          6           0        0.884867   -1.118427    4.227559
     61          1           0        0.112451   -0.437999    4.608354
     62          1           0        1.171043   -1.785421    5.046529
     63          1           0        1.766262   -0.528318    3.956231
     64          6           0       -0.811659   -2.834713    3.445292
     65          1           0       -1.643636   -2.235867    3.836818
     66          1           0       -1.190854   -3.425065    2.604535
     67          1           0       -0.500939   -3.528215    4.233124
     68          7           0        0.836732    1.081071    0.902189
     69          1           0       -0.088111    1.444050    1.089769
     70          6           0        1.712498    1.818602   -0.016808
     71          1           0        2.307434    1.068150   -0.550013
     72          6           0        2.685160    2.705621    0.791348
     73          6           0        0.878352    2.612202   -1.049546
     74          1           0        0.382138    3.445277   -0.531473
     75          8           0        2.646501    3.947425    0.719380
     76          6           0        1.753225    3.146691   -2.174895
     77          1           0        2.490467    3.848978   -1.782319
     78          1           0        2.268207    2.318359   -2.672777
     79          1           0        1.126089    3.663901   -2.907078
     80          8           0       -0.108119    1.773299   -1.672558
     81          1           0       -0.706350    1.387663   -1.004287
     82          7           0        3.505626    2.007208    1.581497
     83          1           0        3.491794    0.994432    1.485317
     84          6           0        4.503195    2.601769    2.463439
     85          1           0        4.045672    3.480203    2.931730
     86          6           0        5.722824    3.049636    1.628858
     87          6           0        4.878956    1.580731    3.575380
     88          1           0        3.913556    1.202909    3.947343
     89          8           0        6.031046    2.453552    0.598861
     90          6           0        5.683045    0.388159    3.033374
     91          1           0        6.659703    0.708946    2.658005
     92          1           0        5.172029   -0.135572    2.216881
     93          1           0        5.850228   -0.336871    3.836708
     94          6           0        5.601534    2.258307    4.747867
     95          1           0        6.558645    2.704712    4.462650
     96          1           0        5.792483    1.523177    5.537061
     97          1           0        4.994816    3.062788    5.179491
     98          7           0        6.343170    4.176200    2.090836
     99          1           0        6.264829    4.431799    3.121002
    100          6           0        7.771302    4.468906    1.834391
    101          1           0        8.283205    3.536835    1.570392
    102          6           0        8.321008    4.980326    3.239148
    103          6           0        8.038851    5.512577    0.747311
    104          1           0        9.094848    5.766753    0.873547
    105          1           0        7.493583    6.439066    0.990151
    106          8           0        9.496286    5.354700    3.247915
    107          6           0        7.764230    5.076052   -0.714951
    108          1           0        8.645567    5.310307   -1.323335
    109          1           0        7.637139    3.987796   -0.757104
    110          6           0        6.563991    5.739792   -1.417928
    111          1           0        6.609210    6.833334   -1.302983
    112          1           0        6.637642    5.550106   -2.496619
    113          6           0        5.179400    5.238091   -1.012585
    114          1           0        5.151407    4.146603   -0.986816
    115          1           0        4.406417    5.598788   -1.698244
    116          7           0        4.761664    5.681233    0.366264
    117          1           0        4.696642    6.698640    0.442750
    118          1           0        3.853870    5.228477    0.607212
    119          1           0        5.438850    5.311281    1.095502
    120          8           0        7.449318    4.939436    4.166395
    121          1           0        4.307389   -1.284669   -4.618835
 ---------------------------------------------------------------------

 SCF Done:  E(RB3LYP) =  -2843.80732777     A.U. after    3 cycles

 Alpha  occ. eigenvalues --  -19.27866 -19.26169 -19.24190 -19.24148 -19.23472
 Alpha  occ. eigenvalues --  -19.22469 -19.21923 -19.21126 -19.17136 -19.08181
 Alpha  occ. eigenvalues --  -19.06670 -14.59188 -14.49761 -14.49150 -14.48511
 Alpha  occ. eigenvalues --  -14.47580 -14.46914 -14.46564 -14.43546 -14.38502
 Alpha  occ. eigenvalues --  -10.43182 -10.40717 -10.40708 -10.40564 -10.40231
 Alpha  occ. eigenvalues --  -10.38857 -10.37654 -10.35346 -10.34610 -10.33565
 Alpha  occ. eigenvalues --  -10.33564 -10.33423 -10.33237 -10.32872 -10.32306
 Alpha  occ. eigenvalues --  -10.31775 -10.31211 -10.30102 -10.30098 -10.29928
 Alpha  occ. eigenvalues --  -10.29738 -10.29622 -10.29433 -10.29346 -10.29236
 Alpha  occ. eigenvalues --  -10.29203 -10.28551 -10.28217 -10.25659 -10.25639
 Alpha  occ. eigenvalues --  -10.25589 -10.25367 -10.25191 -10.25170 -10.23052
 Alpha  occ. eigenvalues --  -10.22461 -10.22066 -10.21039 -10.20673  -1.18848
 Alpha  occ. eigenvalues --   -1.18651  -1.16232  -1.15137  -1.13829  -1.13406
 Alpha  occ. eigenvalues --   -1.12227  -1.11157  -1.09865  -1.08524  -1.08446
 Alpha  occ. eigenvalues --   -1.06118  -1.05210  -1.04011  -1.03948  -1.02510
 Alpha  occ. eigenvalues --   -1.01085  -1.00232  -0.95281  -0.95021  -0.93357
 Alpha  occ. eigenvalues --   -0.92097  -0.91371  -0.90549  -0.89334  -0.87302
 Alpha  occ. eigenvalues --   -0.87181  -0.85731  -0.85403  -0.84675  -0.83855
 Alpha  occ. eigenvalues --   -0.82673  -0.81197  -0.80774  -0.79862  -0.78779
 Alpha  occ. eigenvalues --   -0.77828  -0.76620  -0.76342  -0.74379  -0.73727
 Alpha  occ. eigenvalues --   -0.73607  -0.73083  -0.72620  -0.72131  -0.71852
 Alpha  occ. eigenvalues --   -0.70604  -0.70101  -0.69894  -0.69427  -0.68503
 Alpha  occ. eigenvalues --   -0.68311  -0.67803  -0.66967  -0.66776  -0.66248
 Alpha  occ. eigenvalues --   -0.65489  -0.64618  -0.64487  -0.64352  -0.63648
 Alpha  occ. eigenvalues --   -0.63221  -0.62678  -0.62127  -0.61598  -0.60877
 Alpha  occ. eigenvalues --   -0.60262  -0.60092  -0.59728  -0.59375  -0.59048
 Alpha  occ. eigenvalues --   -0.58819  -0.58336  -0.58097  -0.57580  -0.57441
 Alpha  occ. eigenvalues --   -0.56570  -0.56471  -0.56336  -0.56119  -0.55885
 Alpha  occ. eigenvalues --   -0.55450  -0.55214  -0.54703  -0.54217  -0.54107
 Alpha  occ. eigenvalues --   -0.53866  -0.53342  -0.52885  -0.52456  -0.52398
 Alpha  occ. eigenvalues --   -0.52092  -0.52002  -0.51721  -0.51549  -0.51454
 Alpha  occ. eigenvalues --   -0.51357  -0.50931  -0.50760  -0.50629  -0.49929
 Alpha  occ. eigenvalues --   -0.49663  -0.49251  -0.49145  -0.48936  -0.48277
 Alpha  occ. eigenvalues --   -0.48137  -0.48073  -0.47913  -0.47703  -0.47555
 Alpha  occ. eigenvalues --   -0.47400  -0.47184  -0.46888  -0.46695  -0.46553
 Alpha  occ. eigenvalues --   -0.46131  -0.45992  -0.45895  -0.45398  -0.45222
 Alpha  occ. eigenvalues --   -0.45040  -0.44580  -0.44382  -0.44273  -0.44166
 Alpha  occ. eigenvalues --   -0.43154  -0.43018  -0.42882  -0.42306  -0.42020
 Alpha  occ. eigenvalues --   -0.41948  -0.41683  -0.41237  -0.40805  -0.40610
 Alpha  occ. eigenvalues --   -0.40105  -0.39368  -0.39125  -0.38868  -0.38671
 Alpha  occ. eigenvalues --   -0.38570  -0.38240  -0.38079  -0.38011  -0.37430
 Alpha  occ. eigenvalues --   -0.37394  -0.37274  -0.36995  -0.36784  -0.36287
 Alpha  occ. eigenvalues --   -0.36082  -0.36013  -0.35147  -0.34772  -0.34115
 Alpha  occ. eigenvalues --   -0.33568  -0.33271  -0.31056  -0.30959  -0.30030
 Alpha  occ. eigenvalues --   -0.23176  -0.23010  -0.20754
 Alpha virt. eigenvalues --   -0.12480  -0.12233  -0.11430  -0.10079  -0.09418
 Alpha virt. eigenvalues --   -0.08665  -0.08121  -0.07315  -0.06842  -0.04753
 Alpha virt. eigenvalues --   -0.04595  -0.03829  -0.03295  -0.02649  -0.02004

 Mulliken charges:
               1
     1  N   -0.750670
     2  H    0.410059
     3  H    0.403640
     4  H    0.416339
     5  C   -0.120496
     6  H    0.217772
     7  C    0.672922
     8  C   -0.470949
     9  H    0.212463
    10  H    0.188039
    11  H    0.196801
    12  O   -0.543325
    13  N   -0.611942
    14  H    0.369299
    15  C   -0.047175
    16  H    0.194363
    17  C    0.642933
    18  C   -0.398116
    19  H    0.189283
    20  H    0.185374
    21  O   -0.541948
    22  C    0.044475
    23  C    0.015009
    24  H    0.209646
    25  C    0.075282
    26  C    0.313703
    27  C   -0.257051
    28  H    0.165415
    29  N   -0.685397
    30  H    0.346058
    31  C   -0.148937
    32  H    0.155086
    33  C   -0.160935
    34  H    0.154552
    35  C   -0.224638
    36  H    0.152681
    37  N   -0.621798
    38  H    0.374399
    39  C   -0.068629
    40  H    0.196539
    41  C    0.637918
    42  C   -0.338304
    43  H    0.209333
    44  H    0.171755
    45  O   -0.561291
    46  C   -0.358024
    47  H    0.189134
    48  H    0.191036
    49  C    0.589351
    50  O   -0.456220
    51  O   -0.554225
    52  N   -0.577143
    53  H    0.348772
    54  C   -0.040673
    55  H    0.167488
    56  C    0.618597
    57  C   -0.098419
    58  H    0.156025
    59  O   -0.543804
    60  C   -0.472132
    61  H    0.145671
    62  H    0.171365
    63  H    0.174562
    64  C   -0.450366
    65  H    0.147129
    66  H    0.149910
    67  H    0.168274
    68  N   -0.611286
    69  H    0.345068
    70  C   -0.108779
    71  H    0.221463
    72  C    0.669191
    73  C    0.126911
    74  H    0.145948
    75  O   -0.595703
    76  C   -0.487676
    77  H    0.166244
    78  H    0.188360
    79  H    0.157655
    80  O   -0.687833
    81  H    0.435965
    82  N   -0.604814
    83  H    0.394931
    84  C   -0.043248
    85  H    0.157531
    86  C    0.602040
    87  C   -0.117099
    88  H    0.132863
    89  O   -0.526328
    90  C   -0.462954
    91  H    0.176899
    92  H    0.149081
    93  H    0.153929
    94  C   -0.465150
    95  H    0.203813
    96  H    0.148262
    97  H    0.146833
    98  N   -0.709477
    99  H    0.381469
   100  C   -0.066109
   101  H    0.160302
   102  C    0.594441
   103  C   -0.294191
   104  H    0.199511
   105  H    0.103516
   106  O   -0.556509
   107  C   -0.277539
   108  H    0.150576
   109  H    0.174661
   110  C   -0.281109
   111  H    0.143792
   112  H    0.160588
   113  C   -0.197351
   114  H    0.224032
   115  H    0.172947
   116  N   -0.796100
   117  H    0.380061
   118  H    0.431504
   119  H    0.445207
   120  O   -0.616023
   121  H    0.423839
 Sum of Mulliken charges =   1.00000

 Dipole moment (field-independent basis, Debye):
    X=            -37.5493    Y=             -2.2654    Z=            -24.0549  Tot=             44.6511
 Quadrupole moment (field-independent basis, Debye-Ang):
   XX=           -259.2648   YY=           -330.0063   ZZ=           -263.3871
   XY=            -70.8705   XZ=             40.0765   YZ=            -56.9451

 Normal termination of Gaussian 16 at Sat Jun 25 08:59:42 2022.
