 Gaussian 16, Revision C.01,
 Gaussian 16:  ES64L-G16RevC.01  3-Jul-2019

 ----------------------------------------------------------------------
 # B3LYP/6-31G* empiricaldispersion=gd3 guess=read geom=check nosymm in
 tegral(ultrafinegrid)
 ----------------------------------------------------------------------

 ------------------------------------------------------
 Candidate Structure: Conf:123 Charge calc in gas phase
 ------------------------------------------------------
 Structure from the checkpoint file:  "conf-123.chk"
 Charge =  1 Multiplicity = 1

                          Input orientation:
 ---------------------------------------------------------------------
 Center     Atomic      Atomic             Coordinates (Angstroms)
 Number     Number       Type             X           Y           Z
 ---------------------------------------------------------------------
      1          7           0       -7.850503   -0.151871   -5.870319
      2          1           0       -7.757224    0.519916   -5.065502
      3          1           0       -8.835425   -0.374089   -6.036550
      4          1           0       -7.434284    0.332003   -6.691443
      5          6           0       -6.985294   -1.381037   -5.671832
      6          1           0       -7.104115   -1.697158   -4.632952
      7          6           0       -5.575738   -0.815271   -5.959628
      8          6           0       -7.384135   -2.474674   -6.657454
      9          1           0       -6.736766   -3.344661   -6.514421
     10          1           0       -8.419527   -2.797701   -6.503562
     11          1           0       -7.258293   -2.124989   -7.687155
     12          8           0       -5.484105    0.011688   -6.870064
     13          7           0       -4.574726   -1.218293   -5.171307
     14          1           0       -4.686828   -1.945440   -4.470223
     15          6           0       -3.339424   -0.460618   -5.056902
     16          1           0       -3.085701   -0.064971   -6.042826
     17          6           0       -2.279239   -1.423305   -4.511390
     18          6           0       -3.499094    0.712077   -4.012667
     19          1           0       -3.371655    0.290894   -3.011377
     20          1           0       -2.665368    1.408217   -4.150998
     21          8           0       -2.618144   -2.426266   -3.890143
     22          6           0       -4.814283    1.421045   -4.110081
     23          6           0       -5.922673    1.133264   -3.371281
     24          1           0       -6.036217    0.446906   -2.542399
     25          6           0       -5.199344    2.445320   -5.065313
     26          6           0       -6.565302    2.729294   -4.854222
     27          6           0       -4.507557    3.122454   -6.077961
     28          1           0       -3.459978    2.910515   -6.269851
     29          7           0       -7.048164    1.844474   -3.857435
     30          1           0       -7.735525    2.186837   -3.191537
     31          6           0       -6.547505    4.353094   -6.591554
     32          1           0       -7.049406    5.109731   -7.186863
     33          6           0       -7.261573    3.675952   -5.603857
     34          1           0       -8.310428    3.892288   -5.418407
     35          6           0       -5.188368    4.074721   -6.828732
     36          1           0       -4.665500    4.615768   -7.611343
     37          7           0       -0.987315   -1.049400   -4.694076
     38          1           0       -0.831191   -0.107848   -5.034147
     39          6           0        0.034223   -1.552442   -3.779891
     40          1           0        0.094045   -2.640057   -3.889178
     41          6           0       -0.362210   -1.163673   -2.337877
     42          6           0        1.376292   -0.872972   -4.137941
     43          1           0        1.498105   -0.922887   -5.226456
     44          1           0        1.304674    0.186527   -3.870856
     45          8           0       -1.024182   -0.149840   -2.121638
     46          6           0        2.618517   -1.466981   -3.464574
     47          1           0        2.436540   -1.745277   -2.421495
     48          1           0        2.975787   -2.366329   -3.975588
     49          6           0        3.748913   -0.463348   -3.355767
     50          8           0        3.626623    0.744587   -3.402200
     51          8           0        4.924326   -1.079856   -3.142127
     52          7           0        0.146450   -1.936425   -1.345423
     53          1           0        0.737995   -2.717628   -1.599177
     54          6           0        0.357852   -1.377827   -0.000179
     55          1           0       -0.566281   -0.866538    0.284910
     56          6           0        1.518195   -0.373077   -0.153235
     57          6           0        0.683339   -2.483614    1.014733
     58          1           0        1.590693   -2.988603    0.654850
     59          8           0        2.683139   -0.776308   -0.265073
     60          6           0        1.004957   -1.868090    2.383561
     61          1           0        0.160558   -1.276691    2.759876
     62          1           0        1.211488   -2.655939    3.115176
     63          1           0        1.884458   -1.220537    2.332903
     64          6           0       -0.464282   -3.497115    1.114322
     65          1           0       -1.373417   -3.016290    1.497120
     66          1           0       -0.707879   -3.944052    0.144634
     67          1           0       -0.199078   -4.305861    1.803324
     68          7           0        1.169011    0.921857   -0.251999
     69          1           0        0.198627    1.208928   -0.189322
     70          6           0        2.127073    1.984371   -0.558204
     71          1           0        2.889193    1.573368   -1.226993
     72          6           0        2.775939    2.453421    0.760603
     73          6           0        1.383262    3.149728   -1.241193
     74          1           0        2.102431    3.977503   -1.325619
     75          8           0        2.426686    3.500712    1.318904
     76          6           0        0.861491    2.790488   -2.626125
     77          1           0        1.688497    2.482289   -3.273477
     78          1           0        0.132619    1.975370   -2.563686
     79          1           0        0.365740    3.663594   -3.062017
     80          8           0        0.271820    3.537426   -0.437399
     81          1           0        0.678422    3.847228    0.397483
     82          7           0        3.703565    1.608788    1.251038
     83          1           0        3.910398    0.744423    0.754787
     84          6           0        4.373948    1.803789    2.528301
     85          1           0        4.309344    2.869384    2.771013
     86          6           0        5.828233    1.357562    2.322541
     87          6           0        3.707050    0.980467    3.666486
     88          1           0        3.787441   -0.075294    3.369998
     89          8           0        6.085072    0.346043    1.670291
     90          6           0        4.443987    1.169380    5.000849
     91          1           0        4.444896    2.225810    5.300333
     92          1           0        5.483426    0.831877    4.953924
     93          1           0        3.943591    0.603370    5.793875
     94          6           0        2.223571    1.346101    3.814312
     95          1           0        2.106230    2.402665    4.079477
     96          1           0        1.762703    0.740088    4.602803
     97          1           0        1.666354    1.172710    2.889611
     98          7           0        6.771864    2.117192    2.922804
     99          1           0        6.528652    2.955577    3.437210
    100          6           0        8.182617    1.770585    2.905558
    101          1           0        8.281744    0.685864    2.987820
    102          6           0        8.865563    2.434675    4.088215
    103          6           0        8.869167    2.245013    1.582662
    104          1           0        8.409078    3.200754    1.302904
    105          1           0        8.581042    1.520407    0.814828
    106          8           0        9.944870    1.764744    4.471252
    107          6           0       10.404546    2.411904    1.639291
    108          1           0       10.832883    1.626801    2.269441
    109          1           0       10.809062    2.251040    0.633343
    110          6           0       10.857795    3.815487    2.135606
    111          1           0       11.070727    4.440100    1.260074
    112          1           0       10.034017    4.318748    2.655953
    113          6           0       12.093645    3.849855    3.056148
    114          1           0       12.640751    4.790634    2.900129
    115          1           0       12.780794    3.034243    2.803638
    116          7           0       11.725556    3.695333    4.488204
    117          1           0       12.561431    3.692628    5.071174
    118          1           0       11.159976    4.491593    4.784565
    119          1           0       10.665176    2.451421    4.735010
    120          8           0        8.511929    3.519460    4.526960
    121          1           0        5.590856   -0.385407   -2.979771
 ---------------------------------------------------------------------

 SCF Done:  E(RB3LYP) =  -2843.83414744     A.U. after    2 cycles

 Alpha  occ. eigenvalues --  -19.25631 -19.25098 -19.21929 -19.20306 -19.20138
 Alpha  occ. eigenvalues --  -19.20027 -19.18156 -19.18131 -19.17066 -19.16669
 Alpha  occ. eigenvalues --  -19.15455 -14.58512 -14.49511 -14.48635 -14.45659
 Alpha  occ. eigenvalues --  -14.44483 -14.42660 -14.40280 -14.40207 -14.39420
 Alpha  occ. eigenvalues --  -10.42402 -10.40069 -10.38826 -10.38623 -10.37030
 Alpha  occ. eigenvalues --  -10.35141 -10.34874 -10.34595 -10.33538 -10.32842
 Alpha  occ. eigenvalues --  -10.32753 -10.32711 -10.32529 -10.32419 -10.30250
 Alpha  occ. eigenvalues --  -10.29801 -10.29734 -10.29141 -10.28964 -10.28631
 Alpha  occ. eigenvalues --  -10.28392 -10.28334 -10.27979 -10.27790 -10.27705
 Alpha  occ. eigenvalues --  -10.27321 -10.27158 -10.27095 -10.26670 -10.25945
 Alpha  occ. eigenvalues --  -10.23830 -10.23671 -10.23174 -10.22975 -10.22932
 Alpha  occ. eigenvalues --  -10.22458 -10.22029 -10.21572 -10.21378  -1.17873
 Alpha  occ. eigenvalues --   -1.16707  -1.14139  -1.12684  -1.12345  -1.11992
 Alpha  occ. eigenvalues --   -1.10019  -1.08504  -1.08343  -1.07711  -1.07412
 Alpha  occ. eigenvalues --   -1.05626  -1.05352  -1.03828  -1.02368  -1.00772
 Alpha  occ. eigenvalues --   -0.98691  -0.96870  -0.96630  -0.94896  -0.94108
 Alpha  occ. eigenvalues --   -0.92553  -0.90974  -0.88973  -0.87030  -0.86332
 Alpha  occ. eigenvalues --   -0.85135  -0.83882  -0.83571  -0.82658  -0.82521
 Alpha  occ. eigenvalues --   -0.81408  -0.80085  -0.79576  -0.78283  -0.76908
 Alpha  occ. eigenvalues --   -0.76489  -0.74752  -0.74406  -0.72999  -0.72973
 Alpha  occ. eigenvalues --   -0.72450  -0.72291  -0.72116  -0.71416  -0.71001
 Alpha  occ. eigenvalues --   -0.69436  -0.68998  -0.67618  -0.67045  -0.66956
 Alpha  occ. eigenvalues --   -0.65747  -0.65473  -0.64946  -0.64583  -0.64228
 Alpha  occ. eigenvalues --   -0.63792  -0.63429  -0.63348  -0.62941  -0.62215
 Alpha  occ. eigenvalues --   -0.61834  -0.61174  -0.60904  -0.59607  -0.58983
 Alpha  occ. eigenvalues --   -0.58779  -0.58161  -0.57706  -0.57522  -0.57153
 Alpha  occ. eigenvalues --   -0.56714  -0.56351  -0.55902  -0.55537  -0.55522
 Alpha  occ. eigenvalues --   -0.55129  -0.54993  -0.54634  -0.54228  -0.53850
 Alpha  occ. eigenvalues --   -0.53268  -0.53225  -0.53030  -0.52804  -0.52619
 Alpha  occ. eigenvalues --   -0.52164  -0.51829  -0.51538  -0.51178  -0.51094
 Alpha  occ. eigenvalues --   -0.50699  -0.50565  -0.50404  -0.50012  -0.49933
 Alpha  occ. eigenvalues --   -0.49669  -0.49469  -0.49228  -0.49119  -0.48805
 Alpha  occ. eigenvalues --   -0.48339  -0.47989  -0.47802  -0.47371  -0.47267
 Alpha  occ. eigenvalues --   -0.46899  -0.46786  -0.46518  -0.46258  -0.46147
 Alpha  occ. eigenvalues --   -0.45630  -0.45478  -0.45024  -0.44944  -0.44849
 Alpha  occ. eigenvalues --   -0.44576  -0.44325  -0.44080  -0.43923  -0.43477
 Alpha  occ. eigenvalues --   -0.43292  -0.43217  -0.43106  -0.42731  -0.42635
 Alpha  occ. eigenvalues --   -0.42490  -0.42033  -0.41748  -0.41310  -0.41165
 Alpha  occ. eigenvalues --   -0.40704  -0.40234  -0.40107  -0.39845  -0.39802
 Alpha  occ. eigenvalues --   -0.39394  -0.39060  -0.38636  -0.38092  -0.37865
 Alpha  occ. eigenvalues --   -0.37827  -0.37553  -0.37460  -0.37304  -0.37302
 Alpha  occ. eigenvalues --   -0.37070  -0.36265  -0.35479  -0.35343  -0.34143
 Alpha  occ. eigenvalues --   -0.33819  -0.33481  -0.33216  -0.33129  -0.31689
 Alpha  occ. eigenvalues --   -0.31614  -0.31526  -0.31322  -0.30956  -0.30397
 Alpha  occ. eigenvalues --   -0.29227  -0.28991  -0.28611
 Alpha virt. eigenvalues --   -0.12190  -0.11778  -0.09101  -0.08568  -0.08289
 Alpha virt. eigenvalues --   -0.06747  -0.05457  -0.04871  -0.04537  -0.03885
 Alpha virt. eigenvalues --   -0.03187  -0.03049  -0.02725  -0.02253  -0.01272

 Mulliken charges:
               1
     1  N   -0.764982
     2  H    0.441781
     3  H    0.400143
     4  H    0.423475
     5  C   -0.108138
     6  H    0.197894
     7  C    0.657497
     8  C   -0.469408
     9  H    0.212409
    10  H    0.182619
    11  H    0.201488
    12  O   -0.525783
    13  N   -0.597001
    14  H    0.359167
    15  C   -0.079722
    16  H    0.198245
    17  C    0.648722
    18  C   -0.375897
    19  H    0.206148
    20  H    0.182884
    21  O   -0.530703
    22  C    0.114082
    23  C   -0.078430
    24  H    0.167783
    25  C    0.144652
    26  C    0.215749
    27  C   -0.184480
    28  H    0.140359
    29  N   -0.722993
    30  H    0.357010
    31  C   -0.142510
    32  H    0.156235
    33  C   -0.189883
    34  H    0.142511
    35  C   -0.133298
    36  H    0.155108
    37  N   -0.601385
    38  H    0.342944
    39  C   -0.046452
    40  H    0.178387
    41  C    0.644575
    42  C   -0.325669
    43  H    0.170483
    44  H    0.200045
    45  O   -0.540610
    46  C   -0.386003
    47  H    0.203820
    48  H    0.183771
    49  C    0.606503
    50  O   -0.469867
    51  O   -0.551559
    52  N   -0.600391
    53  H    0.340627
    54  C   -0.027710
    55  H    0.163635
    56  C    0.631282
    57  C   -0.101344
    58  H    0.151470
    59  O   -0.566574
    60  C   -0.476327
    61  H    0.144477
    62  H    0.159217
    63  H    0.185194
    64  C   -0.448729
    65  H    0.145235
    66  H    0.147394
    67  H    0.159728
    68  N   -0.586625
    69  H    0.360392
    70  C   -0.098108
    71  H    0.200283
    72  C    0.640641
    73  C    0.117321
    74  H    0.143271
    75  O   -0.559085
    76  C   -0.499352
    77  H    0.174679
    78  H    0.163206
    79  H    0.151107
    80  O   -0.657283
    81  H    0.419544
    82  N   -0.617174
    83  H    0.377077
    84  C   -0.050652
    85  H    0.167546
    86  C    0.622217
    87  C   -0.080130
    88  H    0.147670
    89  O   -0.547419
    90  C   -0.462357
    91  H    0.145327
    92  H    0.161423
    93  H    0.152001
    94  C   -0.448725
    95  H    0.159023
    96  H    0.142357
    97  H    0.142841
    98  N   -0.614383
    99  H    0.347938
   100  C   -0.002074
   101  H    0.187480
   102  C    0.570750
   103  C   -0.280585
   104  H    0.146841
   105  H    0.168057
   106  O   -0.600787
   107  C   -0.285334
   108  H    0.169918
   109  H    0.141464
   110  C   -0.291230
   111  H    0.147560
   112  H    0.164134
   113  C   -0.140308
   114  H    0.144462
   115  H    0.161428
   116  N   -0.777138
   117  H    0.330476
   118  H    0.341082
   119  H    0.455381
   120  O   -0.507084
   121  H    0.422037
 Sum of Mulliken charges =   1.00000

 Dipole moment (field-independent basis, Debye):
    X=            -20.3852    Y=             -0.0967    Z=            -20.7363  Tot=             29.0785
 Quadrupole moment (field-independent basis, Debye-Ang):
   XX=             15.9454   YY=           -323.7709   ZZ=           -207.0959
   XY=             45.2669   XZ=            177.9825   YZ=             11.5618

 Normal termination of Gaussian 16 at Sat Jun 25 08:59:35 2022.
