 Gaussian 16, Revision C.01,
 Gaussian 16:  ES64L-G16RevC.01  3-Jul-2019

 ----------------------------------------------------------------------
 # B3LYP/6-31G* empiricaldispersion=gd3 guess=read geom=check nosymm in
 tegral(ultrafinegrid)
 ----------------------------------------------------------------------

 ------------------------------------------------------
 Candidate Structure: Conf:315 Charge calc in gas phase
 ------------------------------------------------------
 Structure from the checkpoint file:  "conf-315.chk"
 Charge =  1 Multiplicity = 1

                          Input orientation:
 ---------------------------------------------------------------------
 Center     Atomic      Atomic             Coordinates (Angstroms)
 Number     Number       Type             X           Y           Z
 ---------------------------------------------------------------------
      1          7           0       -6.805490   -0.527107   -9.518947
      2          1           0       -7.696662   -1.003048   -9.686332
      3          1           0       -6.381260   -0.292582  -10.420409
      4          1           0       -6.994413    0.346523   -8.935536
      5          6           0       -5.879359   -1.298193   -8.597666
      6          1           0       -6.197577   -2.342793   -8.580344
      7          6           0       -6.105016   -0.591136   -7.234761
      8          6           0       -4.424213   -1.149624   -9.049852
      9          1           0       -3.746232   -1.591493   -8.312294
     10          1           0       -4.253920   -1.644124  -10.011719
     11          1           0       -4.157283   -0.089995   -9.134138
     12          8           0       -6.642419    0.524051   -7.255533
     13          7           0       -5.638732   -1.239441   -6.174319
     14          1           0       -5.050003   -2.061271   -6.314775
     15          6           0       -5.345598   -0.599906   -4.891776
     16          1           0       -5.540892    0.468979   -5.001972
     17          6           0       -3.846194   -0.877978   -4.673857
     18          6           0       -6.208196   -1.180339   -3.743471
     19          1           0       -5.907297   -2.221381   -3.574892
     20          1           0       -5.950167   -0.626383   -2.830658
     21          8           0       -3.321543   -1.837120   -5.255319
     22          6           0       -7.674285   -1.104182   -4.032100
     23          6           0       -8.522721   -2.170167   -4.200670
     24          1           0       -8.318417   -3.229410   -4.119141
     25          6           0       -8.463810    0.087640   -4.228660
     26          6           0       -9.790477   -0.335124   -4.513756
     27          6           0       -8.186245    1.465006   -4.183802
     28          1           0       -7.186227    1.823303   -3.953515
     29          7           0       -9.791572   -1.718171   -4.505693
     30          1           0      -10.617301   -2.295910   -4.545779
     31          6           0      -10.523653    1.924418   -4.698376
     32          1           0      -11.308707    2.655091   -4.869944
     33          6           0      -10.830491    0.569520   -4.749500
     34          1           0      -11.841010    0.227294   -4.955707
     35          6           0       -9.214348    2.368305   -4.418259
     36          1           0       -9.012627    3.434747   -4.378630
     37          7           0       -3.188619   -0.035302   -3.867919
     38          1           0       -3.669083    0.664493   -3.305696
     39          6           0       -1.782067   -0.206377   -3.525010
     40          1           0       -1.539978   -1.271834   -3.564110
     41          6           0       -1.620959    0.348307   -2.099019
     42          6           0       -0.851945    0.561109   -4.494523
     43          1           0       -1.035320    1.635816   -4.379649
     44          1           0        0.184659    0.369645   -4.199362
     45          8           0       -2.476993    1.095737   -1.621563
     46          6           0       -1.036164    0.178397   -5.965802
     47          1           0       -2.055103    0.374890   -6.311415
     48          1           0       -0.377057    0.794081   -6.592151
     49          6           0       -0.690830   -1.268807   -6.239425
     50          8           0       -0.034080   -1.981639   -5.516183
     51          8           0       -1.167476   -1.685161   -7.444440
     52          7           0       -0.487823   -0.017428   -1.471041
     53          1           0        0.211055   -0.581082   -1.944828
     54          6           0       -0.061521    0.534513   -0.189296
     55          1           0       -0.644834    1.444408   -0.015433
     56          6           0        1.434338    0.846928   -0.351064
     57          6           0       -0.302419   -0.457789    0.983933
     58          1           0        0.326317   -1.337399    0.785064
     59          8           0        2.149438    0.108907   -1.022931
     60          6           0        0.114083    0.152917    2.330802
     61          1           0       -0.458386    1.066016    2.540818
     62          1           0       -0.091712   -0.553430    3.141710
     63          1           0        1.175085    0.411359    2.379228
     64          6           0       -1.771861   -0.899436    1.023510
     65          1           0       -2.435339   -0.038412    1.163398
     66          1           0       -2.068196   -1.404891    0.099611
     67          1           0       -1.933109   -1.594716    1.854375
     68          7           0        1.875587    1.977350    0.271547
     69          1           0        1.286046    2.385736    0.992557
     70          6           0        3.297518    2.240591    0.482416
     71          1           0        3.856444    1.442758   -0.013948
     72          6           0        3.531912    2.258383    2.000146
     73          6           0        3.676194    3.595737   -0.176159
     74          1           0        3.137016    4.388632    0.370597
     75          8           0        2.626972    2.602241    2.763998
     76          6           0        5.171900    3.879822   -0.141041
     77          1           0        5.538121    3.991832    0.882969
     78          1           0        5.721397    3.067905   -0.632163
     79          1           0        5.375402    4.803948   -0.689000
     80          8           0        3.292410    3.578983   -1.541363
     81          1           0        2.361830    3.300116   -1.564025
     82          7           0        4.765130    1.906553    2.414588
     83          1           0        5.492471    1.651705    1.757296
     84          6           0        5.164636    1.957601    3.814275
     85          1           0        4.699092    2.838447    4.268342
     86          6           0        6.683050    2.095282    3.844667
     87          6           0        4.674634    0.695563    4.594433
     88          1           0        3.610966    0.626694    4.333470
     89          8           0        7.363485    1.705017    2.851222
     90          6           0        5.380107   -0.580531    4.119186
     91          1           0        6.440169   -0.574112    4.400726
     92          1           0        5.315920   -0.696981    3.031392
     93          1           0        4.922365   -1.461038    4.581986
     94          6           0        4.773473    0.866246    6.117059
     95          1           0        5.805895    0.905419    6.481392
     96          1           0        4.283793    0.021790    6.614265
     97          1           0        4.266017    1.780384    6.448449
     98          7           0        7.231902    2.566970    4.950637
     99          1           0        6.724178    2.724542    5.830408
    100          6           0        8.655266    2.430318    5.212634
    101          1           0        8.970480    1.508244    4.733080
    102          6           0        8.852981    2.138752    6.742854
    103          6           0        9.423777    3.652523    4.677527
    104          1           0        9.118964    4.513814    5.284170
    105          1           0        9.087854    3.867446    3.650130
    106          8           0        9.990128    1.691514    7.010765
    107          6           0       10.952361    3.524416    4.715751
    108          1           0       11.395529    4.523519    4.623789
    109          1           0       11.237817    3.120608    5.691863
    110          6           0       11.569306    2.655133    3.606799
    111          1           0       11.380556    3.100205    2.616164
    112          1           0       12.658673    2.660993    3.729037
    113          6           0       11.137515    1.181544    3.593066
    114          1           0       10.846339    0.850644    4.595207
    115          1           0       11.931800    0.531381    3.216288
    116          7           0        9.958076    0.940078    2.655055
    117          1           0        9.729377   -0.057769    2.613336
    118          1           0        9.027718    1.418981    2.895981
    119          1           0       10.200124    1.234523    1.704189
    120          8           0        7.843088    2.361434    7.452462
    121          1           0       -0.870988   -2.610542   -7.538276
 ---------------------------------------------------------------------

 SCF Done:  E(RB3LYP) =  -2843.77289835     A.U. after    2 cycles

 Alpha  occ. eigenvalues --  -19.27546 -19.27125 -19.22199 -19.21587 -19.19691
 Alpha  occ. eigenvalues --  -19.19562 -19.19209 -19.18821 -19.17680 -19.08187
 Alpha  occ. eigenvalues --  -19.07602 -14.60676 -14.52757 -14.49413 -14.45887
 Alpha  occ. eigenvalues --  -14.45647 -14.43664 -14.42904 -14.42002 -14.40474
 Alpha  occ. eigenvalues --  -10.43723 -10.41509 -10.39886 -10.39187 -10.36835
 Alpha  occ. eigenvalues --  -10.35828 -10.34898 -10.34802 -10.34471 -10.33724
 Alpha  occ. eigenvalues --  -10.32011 -10.31889 -10.30027 -10.29873 -10.29816
 Alpha  occ. eigenvalues --  -10.29269 -10.29217 -10.29092 -10.28711 -10.28530
 Alpha  occ. eigenvalues --  -10.28014 -10.26390 -10.26325 -10.26045 -10.26016
 Alpha  occ. eigenvalues --  -10.25870 -10.25819 -10.25773 -10.25441 -10.25051
 Alpha  occ. eigenvalues --  -10.24352 -10.24174 -10.23169 -10.22962 -10.22951
 Alpha  occ. eigenvalues --  -10.22427 -10.22164 -10.22146 -10.20703  -1.19648
 Alpha  occ. eigenvalues --   -1.18119  -1.14590  -1.14035  -1.11738  -1.10805
 Alpha  occ. eigenvalues --   -1.10107  -1.09306  -1.09222  -1.07391  -1.07109
 Alpha  occ. eigenvalues --   -1.06469  -1.05476  -1.02383  -1.01480  -1.00239
 Alpha  occ. eigenvalues --   -0.99096  -0.98461  -0.97145  -0.93792  -0.92849
 Alpha  occ. eigenvalues --   -0.91119  -0.90019  -0.88715  -0.86901  -0.86379
 Alpha  occ. eigenvalues --   -0.85571  -0.85387  -0.83188  -0.82376  -0.81495
 Alpha  occ. eigenvalues --   -0.80951  -0.80681  -0.79568  -0.78648  -0.77483
 Alpha  occ. eigenvalues --   -0.76202  -0.75684  -0.74492  -0.74232  -0.73899
 Alpha  occ. eigenvalues --   -0.73744  -0.73423  -0.72523  -0.71248  -0.69773
 Alpha  occ. eigenvalues --   -0.69538  -0.68780  -0.67559  -0.66812  -0.66787
 Alpha  occ. eigenvalues --   -0.66614  -0.66235  -0.65870  -0.65575  -0.64999
 Alpha  occ. eigenvalues --   -0.64601  -0.64091  -0.63862  -0.63548  -0.63381
 Alpha  occ. eigenvalues --   -0.62444  -0.61753  -0.61392  -0.61316  -0.60302
 Alpha  occ. eigenvalues --   -0.59315  -0.58840  -0.58184  -0.58053  -0.57474
 Alpha  occ. eigenvalues --   -0.57465  -0.56821  -0.56191  -0.55929  -0.55577
 Alpha  occ. eigenvalues --   -0.55359  -0.55033  -0.54713  -0.54451  -0.54232
 Alpha  occ. eigenvalues --   -0.54067  -0.53319  -0.53090  -0.52708  -0.52567
 Alpha  occ. eigenvalues --   -0.52485  -0.52145  -0.52043  -0.51917  -0.51421
 Alpha  occ. eigenvalues --   -0.50703  -0.50539  -0.50420  -0.50168  -0.49837
 Alpha  occ. eigenvalues --   -0.49643  -0.49487  -0.49171  -0.48970  -0.48397
 Alpha  occ. eigenvalues --   -0.48310  -0.48028  -0.47955  -0.47734  -0.47375
 Alpha  occ. eigenvalues --   -0.46813  -0.46408  -0.46311  -0.46300  -0.45671
 Alpha  occ. eigenvalues --   -0.45481  -0.45450  -0.45421  -0.45076  -0.44861
 Alpha  occ. eigenvalues --   -0.44757  -0.44626  -0.44285  -0.44018  -0.43944
 Alpha  occ. eigenvalues --   -0.43784  -0.43439  -0.43187  -0.42527  -0.42434
 Alpha  occ. eigenvalues --   -0.41988  -0.41721  -0.41668  -0.40719  -0.40539
 Alpha  occ. eigenvalues --   -0.40432  -0.40369  -0.39744  -0.39636  -0.39503
 Alpha  occ. eigenvalues --   -0.39465  -0.39140  -0.39087  -0.38412  -0.38198
 Alpha  occ. eigenvalues --   -0.37893  -0.37764  -0.37581  -0.37232  -0.36647
 Alpha  occ. eigenvalues --   -0.36018  -0.35528  -0.34900  -0.34616  -0.34368
 Alpha  occ. eigenvalues --   -0.33854  -0.33675  -0.33114  -0.32767  -0.31826
 Alpha  occ. eigenvalues --   -0.31608  -0.30921  -0.30395  -0.29550  -0.27908
 Alpha  occ. eigenvalues --   -0.23450  -0.22876  -0.21777
 Alpha virt. eigenvalues --   -0.12488  -0.11619  -0.08673  -0.07970  -0.06749
 Alpha virt. eigenvalues --   -0.06416  -0.05811  -0.04964  -0.04808  -0.04692
 Alpha virt. eigenvalues --   -0.04591  -0.04417  -0.03329  -0.02480  -0.01648

 Mulliken charges:
               1
     1  N   -0.751292
     2  H    0.418488
     3  H    0.414984
     4  H    0.434376
     5  C   -0.115589
     6  H    0.218567
     7  C    0.648604
     8  C   -0.493190
     9  H    0.238183
    10  H    0.191045
    11  H    0.191714
    12  O   -0.523494
    13  N   -0.567461
    14  H    0.364676
    15  C   -0.102356
    16  H    0.200591
    17  C    0.641043
    18  C   -0.365911
    19  H    0.163687
    20  H    0.179127
    21  O   -0.557038
    22  C    0.078882
    23  C   -0.012183
    24  H    0.156239
    25  C    0.089329
    26  C    0.302407
    27  C   -0.199223
    28  H    0.117256
    29  N   -0.689168
    30  H    0.337115
    31  C   -0.151876
    32  H    0.140186
    33  C   -0.165160
    34  H    0.134872
    35  C   -0.140583
    36  H    0.135467
    37  N   -0.608023
    38  H    0.362432
    39  C   -0.078247
    40  H    0.210435
    41  C    0.623393
    42  C   -0.261797
    43  H    0.157829
    44  H    0.182305
    45  O   -0.543263
    46  C   -0.361030
    47  H    0.161115
    48  H    0.193200
    49  C    0.628405
    50  O   -0.460342
    51  O   -0.591120
    52  N   -0.609733
    53  H    0.360931
    54  C   -0.056387
    55  H    0.175581
    56  C    0.602019
    57  C   -0.073787
    58  H    0.142749
    59  O   -0.524813
    60  C   -0.475972
    61  H    0.150450
    62  H    0.159659
    63  H    0.169583
    64  C   -0.445357
    65  H    0.160056
    66  H    0.141986
    67  H    0.153154
    68  N   -0.627178
    69  H    0.358733
    70  C   -0.092129
    71  H    0.183756
    72  C    0.633534
    73  C    0.153304
    74  H    0.129951
    75  O   -0.546026
    76  C   -0.467984
    77  H    0.157530
    78  H    0.148195
    79  H    0.174804
    80  O   -0.622704
    81  H    0.397940
    82  N   -0.613208
    83  H    0.351149
    84  C   -0.043631
    85  H    0.185680
    86  C    0.638790
    87  C   -0.078299
    88  H    0.159161
    89  O   -0.643929
    90  C   -0.453870
    91  H    0.142793
    92  H    0.136868
    93  H    0.156656
    94  C   -0.482998
    95  H    0.191527
    96  H    0.152872
    97  H    0.152901
    98  N   -0.574206
    99  H    0.370900
   100  C   -0.078876
   101  H    0.089719
   102  C    0.595158
   103  C   -0.270168
   104  H    0.166569
   105  H    0.114949
   106  O   -0.586079
   107  C   -0.271575
   108  H    0.140488
   109  H    0.212757
   110  C   -0.288111
   111  H    0.130885
   112  H    0.176550
   113  C   -0.202388
   114  H    0.258263
   115  H    0.180200
   116  N   -0.776928
   117  H    0.395827
   118  H    0.462043
   119  H    0.387801
   120  O   -0.589563
   121  H    0.413872
 Sum of Mulliken charges =   1.00000

 Dipole moment (field-independent basis, Debye):
    X=            -20.2104    Y=             -6.5781    Z=            -44.6589  Tot=             49.4585
 Quadrupole moment (field-independent basis, Debye-Ang):
   XX=            -32.5804   YY=           -332.8938   ZZ=           -120.7624
   XY=             38.2724   XZ=            165.5590   YZ=             16.6808

 Normal termination of Gaussian 16 at Sat Jun 25 08:58:56 2022.
