 Gaussian 16, Revision C.01,
 Gaussian 16:  ES64L-G16RevC.01  3-Jul-2019

 ----------------------------------------------------------------------
 # B3LYP/6-31G* empiricaldispersion=gd3 guess=read geom=check nosymm in
 tegral(ultrafinegrid)
 ----------------------------------------------------------------------

 ------------------------------------------------------
 Candidate Structure: Conf:126 Charge calc in gas phase
 ------------------------------------------------------
 Structure from the checkpoint file:  "conf-126.chk"
 Charge =  1 Multiplicity = 1

                          Input orientation:
 ---------------------------------------------------------------------
 Center     Atomic      Atomic             Coordinates (Angstroms)
 Number     Number       Type             X           Y           Z
 ---------------------------------------------------------------------
      1          7           0       -1.823859    2.094946   -2.903216
      2          1           0       -2.814860    2.275927   -2.707031
      3          1           0       -1.406511    2.885218   -3.399942
      4          1           0       -1.353768    1.975174   -1.942819
      5          6           0       -1.697072    0.810366   -3.680594
      6          1           0       -2.156013    0.975810   -4.662402
      7          6           0       -2.570187   -0.185870   -2.898194
      8          6           0       -0.223647    0.419952   -3.809874
      9          1           0       -0.130607   -0.484251   -4.417618
     10          1           0        0.341679    1.208492   -4.318419
     11          1           0        0.236541    0.232010   -2.835672
     12          8           0       -3.264832    0.233885   -1.965106
     13          7           0       -2.522006   -1.466654   -3.283181
     14          1           0       -2.039175   -1.728001   -4.134292
     15          6           0       -3.418953   -2.482591   -2.702832
     16          1           0       -4.287886   -1.943334   -2.317029
     17          6           0       -2.612254   -3.087624   -1.527199
     18          6           0       -3.834884   -3.527236   -3.759439
     19          1           0       -3.138406   -4.369488   -3.696217
     20          1           0       -4.817046   -3.914113   -3.460680
     21          8           0       -2.022720   -4.155343   -1.610569
     22          6           0       -3.863022   -2.993957   -5.166496
     23          6           0       -3.300236   -3.611577   -6.259049
     24          1           0       -2.784648   -4.560804   -6.316123
     25          6           0       -4.432491   -1.755478   -5.650186
     26          6           0       -4.172808   -1.693516   -7.047827
     27          6           0       -5.098685   -0.674958   -5.040516
     28          1           0       -5.327420   -0.690637   -3.978641
     29          7           0       -3.486199   -2.841547   -7.387937
     30          1           0       -3.216651   -3.105682   -8.323307
     31          6           0       -5.206619    0.449819   -7.203261
     32          1           0       -5.523828    1.308839   -7.787212
     33          6           0       -4.555254   -0.602309   -7.835764
     34          1           0       -4.351741   -0.579257   -8.902745
     35          6           0       -5.474217    0.414525   -5.817723
     36          1           0       -6.003897    1.244541   -5.357983
     37          7           0       -2.500732   -2.241007   -0.461458
     38          1           0       -2.921233   -1.316909   -0.537706
     39          6           0       -1.317253   -2.297672    0.387034
     40          1           0       -1.227082   -3.298566    0.820159
     41          6           0       -1.466582   -1.214360    1.452160
     42          6           0       -0.058363   -1.942417   -0.458732
     43          1           0       -0.098712   -2.552261   -1.364776
     44          1           0       -0.157204   -0.895791   -0.758519
     45          8           0       -1.964749   -0.114441    1.163408
     46          6           0        1.301952   -2.143662    0.214025
     47          1           0        1.320980   -1.795665    1.253895
     48          1           0        1.599423   -3.197327    0.237538
     49          6           0        2.386586   -1.340662   -0.475500
     50          8           0        2.191644   -0.413486   -1.245705
     51          8           0        3.611673   -1.733106   -0.101160
     52          7           0       -0.931754   -1.463232    2.665566
     53          1           0       -0.473721   -2.353428    2.818755
     54          6           0       -0.571427   -0.366353    3.582566
     55          1           0       -1.445998    0.285569    3.672628
     56          6           0        0.587009    0.351577    2.863976
     57          6           0       -0.167522   -0.898933    4.964585
     58          1           0        0.693854   -1.563947    4.811544
     59          8           0        1.717021   -0.146196    2.836000
     60          6           0        0.286459    0.263546    5.858935
     61          1           0       -0.519727    0.995536    5.994460
     62          1           0        0.565602   -0.108498    6.849368
     63          1           0        1.157454    0.778371    5.441755
     64          6           0       -1.316327   -1.683151    5.613327
     65          1           0       -2.182810   -1.033112    5.786026
     66          1           0       -1.650027   -2.525334    4.997713
     67          1           0       -1.000254   -2.082591    6.582063
     68          7           0        0.259849    1.456003    2.153170
     69          1           0       -0.684223    1.810858    2.226647
     70          6           0        1.139518    1.981376    1.104943
     71          1           0        1.698584    1.126444    0.711287
     72          6           0        2.157674    2.994370    1.679014
     73          6           0        0.326778    2.583554   -0.051991
     74          1           0       -0.215329    3.465376    0.314760
     75          8           0        2.172490    4.173552    1.325878
     76          6           0        1.211827    2.955190   -1.237207
     77          1           0        1.984171    3.671614   -0.960545
     78          1           0        1.681746    2.050596   -1.633347
     79          1           0        0.606534    3.416521   -2.027874
     80          8           0       -0.620706    1.614821   -0.570598
     81          1           0       -1.140669    1.135760    0.115237
     82          7           0        3.033862    2.450234    2.552796
     83          1           0        2.986216    1.445406    2.712575
     84          6           0        4.261275    3.152381    2.955569
     85          1           0        4.046604    4.223071    2.887193
     86          6           0        5.301420    2.742440    1.885876
     87          6           0        4.687983    2.789941    4.384122
     88          1           0        4.924351    1.717478    4.391122
     89          8           0        6.133966    1.862429    2.079774
     90          6           0        5.960446    3.559327    4.767712
     91          1           0        5.787272    4.642829    4.731617
     92          1           0        6.788933    3.313718    4.098789
     93          1           0        6.263269    3.306388    5.789341
     94          6           0        3.555872    3.069869    5.381361
     95          1           0        3.310359    4.139271    5.403388
     96          1           0        3.856436    2.775388    6.392489
     97          1           0        2.640837    2.525242    5.125901
     98          7           0        5.125910    3.349939    0.679488
     99          1           0        4.343784    3.984256    0.543806
    100          6           0        5.746701    2.816306   -0.519982
    101          1           0        6.828370    2.761303   -0.380118
    102          6           0        5.431360    3.707913   -1.705340
    103          6           0        5.207744    1.382678   -0.854487
    104          1           0        4.130644    1.383640   -0.647622
    105          1           0        5.679790    0.717653   -0.123988
    106          8           0        4.347331    4.254712   -1.857104
    107          6           0        5.449680    0.890578   -2.301261
    108          1           0        6.410909    1.275039   -2.655545
    109          1           0        5.553682   -0.202884   -2.297660
    110          6           0        4.313013    1.268782   -3.293009
    111          1           0        3.623170    0.421037   -3.363642
    112          1           0        3.716616    2.090322   -2.881504
    113          6           0        4.758976    1.670166   -4.712316
    114          1           0        3.983815    1.378874   -5.437764
    115          1           0        5.671860    1.133046   -4.993083
    116          7           0        5.048589    3.123272   -4.812123
    117          1           0        5.393807    3.356317   -5.742092
    118          1           0        4.192168    3.658361   -4.668134
    119          1           0        5.980487    3.703566   -3.537538
    120          8           0        6.404033    3.674593   -2.607399
    121          1           0        4.261278   -1.130939   -0.512969
 ---------------------------------------------------------------------

 SCF Done:  E(RB3LYP) =  -2843.86262095     A.U. after    1 cycles

 Alpha  occ. eigenvalues --  -19.28759 -19.27569 -19.25167 -19.23992 -19.23821
 Alpha  occ. eigenvalues --  -19.22845 -19.22674 -19.21303 -19.19963 -19.19800
 Alpha  occ. eigenvalues --  -19.17461 -14.56798 -14.48894 -14.48321 -14.47470
 Alpha  occ. eigenvalues --  -14.46635 -14.44826 -14.43495 -14.42363 -14.41545
 Alpha  occ. eigenvalues --  -10.42342 -10.41894 -10.40800 -10.39567 -10.39245
 Alpha  occ. eigenvalues --  -10.38175 -10.37577 -10.37175 -10.35298 -10.34490
 Alpha  occ. eigenvalues --  -10.33988 -10.33892 -10.33832 -10.33307 -10.31833
 Alpha  occ. eigenvalues --  -10.30760 -10.30515 -10.29865 -10.29563 -10.29338
 Alpha  occ. eigenvalues --  -10.29289 -10.28920 -10.28751 -10.28421 -10.27363
 Alpha  occ. eigenvalues --  -10.27273 -10.27251 -10.27160 -10.26860 -10.26766
 Alpha  occ. eigenvalues --  -10.26699 -10.26001 -10.25975 -10.25900 -10.25872
 Alpha  occ. eigenvalues --  -10.25736 -10.24955 -10.23110 -10.22163  -1.19985
 Alpha  occ. eigenvalues --   -1.17625  -1.16087  -1.15097  -1.14526  -1.14031
 Alpha  occ. eigenvalues --   -1.13132  -1.11822  -1.11329  -1.10925  -1.09339
 Alpha  occ. eigenvalues --   -1.06599  -1.06507  -1.05404  -1.04419  -1.03399
 Alpha  occ. eigenvalues --   -1.01979  -1.00207  -0.98185  -0.97917  -0.92437
 Alpha  occ. eigenvalues --   -0.91981  -0.90941  -0.89484  -0.89109  -0.88469
 Alpha  occ. eigenvalues --   -0.87156  -0.86227  -0.85690  -0.83697  -0.82416
 Alpha  occ. eigenvalues --   -0.82075  -0.81939  -0.80804  -0.79441  -0.79364
 Alpha  occ. eigenvalues --   -0.77718  -0.76919  -0.76106  -0.75736  -0.74254
 Alpha  occ. eigenvalues --   -0.73648  -0.72114  -0.72060  -0.71391  -0.71021
 Alpha  occ. eigenvalues --   -0.70733  -0.70138  -0.69637  -0.68972  -0.68556
 Alpha  occ. eigenvalues --   -0.67851  -0.67540  -0.67425  -0.66668  -0.66447
 Alpha  occ. eigenvalues --   -0.65681  -0.65490  -0.65110  -0.63870  -0.63664
 Alpha  occ. eigenvalues --   -0.63278  -0.62725  -0.61930  -0.61501  -0.61114
 Alpha  occ. eigenvalues --   -0.60721  -0.60094  -0.59733  -0.59280  -0.59074
 Alpha  occ. eigenvalues --   -0.58730  -0.58341  -0.58026  -0.57841  -0.56957
 Alpha  occ. eigenvalues --   -0.56877  -0.56471  -0.56203  -0.55643  -0.55383
 Alpha  occ. eigenvalues --   -0.54982  -0.54653  -0.54152  -0.53753  -0.53423
 Alpha  occ. eigenvalues --   -0.53310  -0.52953  -0.52834  -0.52643  -0.52588
 Alpha  occ. eigenvalues --   -0.52278  -0.52070  -0.51954  -0.51743  -0.51555
 Alpha  occ. eigenvalues --   -0.51222  -0.51084  -0.50746  -0.50645  -0.50494
 Alpha  occ. eigenvalues --   -0.50448  -0.49949  -0.49747  -0.49452  -0.49150
 Alpha  occ. eigenvalues --   -0.48899  -0.48652  -0.48565  -0.48525  -0.48233
 Alpha  occ. eigenvalues --   -0.47993  -0.47834  -0.47695  -0.47105  -0.47034
 Alpha  occ. eigenvalues --   -0.46827  -0.46722  -0.46367  -0.46273  -0.45687
 Alpha  occ. eigenvalues --   -0.45567  -0.45443  -0.45102  -0.44644  -0.44460
 Alpha  occ. eigenvalues --   -0.44159  -0.43753  -0.43645  -0.43352  -0.43192
 Alpha  occ. eigenvalues --   -0.42992  -0.42574  -0.42414  -0.42048  -0.41999
 Alpha  occ. eigenvalues --   -0.41680  -0.41431  -0.41059  -0.40663  -0.40267
 Alpha  occ. eigenvalues --   -0.39968  -0.39800  -0.39541  -0.39434  -0.39222
 Alpha  occ. eigenvalues --   -0.39011  -0.38518  -0.38331  -0.37272  -0.37112
 Alpha  occ. eigenvalues --   -0.36219  -0.35951  -0.35570  -0.34955  -0.34562
 Alpha  occ. eigenvalues --   -0.34497  -0.34212  -0.33369  -0.32853  -0.31066
 Alpha  occ. eigenvalues --   -0.30922  -0.30150  -0.29087
 Alpha virt. eigenvalues --   -0.11664  -0.10862  -0.09592  -0.08993  -0.08746
 Alpha virt. eigenvalues --   -0.08431  -0.07706  -0.07571  -0.06099  -0.06063
 Alpha virt. eigenvalues --   -0.03707  -0.03423  -0.03034  -0.02781  -0.02351

 Mulliken charges:
               1
     1  N   -0.763833
     2  H    0.409836
     3  H    0.395644
     4  H    0.466688
     5  C   -0.134617
     6  H    0.227324
     7  C    0.670392
     8  C   -0.490849
     9  H    0.183875
    10  H    0.173468
    11  H    0.242820
    12  O   -0.552378
    13  N   -0.594455
    14  H    0.353293
    15  C   -0.079256
    16  H    0.198000
    17  C    0.624962
    18  C   -0.380468
    19  H    0.194339
    20  H    0.184808
    21  O   -0.503906
    22  C    0.015609
    23  C    0.001448
    24  H    0.172307
    25  C    0.080931
    26  C    0.309424
    27  C   -0.233907
    28  H    0.137635
    29  N   -0.681967
    30  H    0.342377
    31  C   -0.155342
    32  H    0.143075
    33  C   -0.161587
    34  H    0.143053
    35  C   -0.157952
    36  H    0.132726
    37  N   -0.623965
    38  H    0.381567
    39  C   -0.038386
    40  H    0.181530
    41  C    0.634553
    42  C   -0.311383
    43  H    0.184272
    44  H    0.174304
    45  O   -0.577458
    46  C   -0.397139
    47  H    0.209581
    48  H    0.197565
    49  C    0.598134
    50  O   -0.485296
    51  O   -0.554556
    52  N   -0.595393
    53  H    0.353597
    54  C   -0.024505
    55  H    0.171011
    56  C    0.626274
    57  C   -0.110316
    58  H    0.157109
    59  O   -0.550435
    60  C   -0.479375
    61  H    0.149842
    62  H    0.172865
    63  H    0.179476
    64  C   -0.451758
    65  H    0.156369
    66  H    0.147154
    67  H    0.171480
    68  N   -0.599496
    69  H    0.348810
    70  C   -0.097781
    71  H    0.202050
    72  C    0.637439
    73  C    0.130903
    74  H    0.158967
    75  O   -0.534571
    76  C   -0.513871
    77  H    0.242358
    78  H    0.195276
    79  H    0.098865
    80  O   -0.722557
    81  H    0.468395
    82  N   -0.622643
    83  H    0.376354
    84  C   -0.055982
    85  H    0.181105
    86  C    0.626896
    87  C   -0.084177
    88  H    0.148925
    89  O   -0.528789
    90  C   -0.462782
    91  H    0.141429
    92  H    0.179225
    93  H    0.153033
    94  C   -0.461025
    95  H    0.148542
    96  H    0.154730
    97  H    0.145828
    98  N   -0.637402
    99  H    0.366477
   100  C    0.012661
   101  H    0.192665
   102  C    0.570509
   103  C   -0.328433
   104  H    0.149379
   105  H    0.179167
   106  O   -0.506643
   107  C   -0.293827
   108  H    0.181618
   109  H    0.127724
   110  C   -0.295789
   111  H    0.147657
   112  H    0.165712
   113  C   -0.140464
   114  H    0.128394
   115  H    0.167914
   116  N   -0.770932
   117  H    0.332900
   118  H    0.331722
   119  H    0.455617
   120  O   -0.593050
   121  H    0.440736
 Sum of Mulliken charges =   1.00000

 Dipole moment (field-independent basis, Debye):
    X=             -5.8087    Y=              0.8052    Z=            -14.1059  Tot=             15.2763
 Quadrupole moment (field-independent basis, Debye-Ang):
   XX=           -339.1210   YY=           -330.5630   ZZ=           -193.4931
   XY=             -7.2186   XZ=              5.7359   YZ=             -7.5943

 Normal termination of Gaussian 16 at Sat Jun 25 08:58:51 2022.
