 Gaussian 16, Revision C.01,
 Gaussian 16:  ES64L-G16RevC.01  3-Jul-2019

 ----------------------------------------------------------------------
 # B3LYP/6-31G* empiricaldispersion=gd3 guess=read geom=check nosymm in
 tegral(ultrafinegrid)
 ----------------------------------------------------------------------

 ------------------------------------------------------
 Candidate Structure: Conf:472 Charge calc in gas phase
 ------------------------------------------------------
 Structure from the checkpoint file:  "conf-472.chk"
 Charge =  1 Multiplicity = 1

                          Input orientation:
 ---------------------------------------------------------------------
 Center     Atomic      Atomic             Coordinates (Angstroms)
 Number     Number       Type             X           Y           Z
 ---------------------------------------------------------------------
      1          7           0       -4.748001   -0.910203   -7.275818
      2          1           0       -5.121850   -1.038018   -8.219669
      3          1           0       -3.721954   -1.102512   -7.267254
      4          1           0       -4.864947    0.068473   -6.952304
      5          6           0       -5.442574   -1.768884   -6.237580
      6          1           0       -6.516587   -1.665869   -6.427096
      7          6           0       -5.123261   -1.031298   -4.913813
      8          6           0       -5.008144   -3.225399   -6.348315
      9          1           0       -5.607895   -3.850583   -5.678267
     10          1           0       -5.168254   -3.604296   -7.363096
     11          1           0       -3.953090   -3.341239   -6.083153
     12          8           0       -4.887490    0.186520   -4.976738
     13          7           0       -5.127730   -1.757162   -3.799671
     14          1           0       -5.397743   -2.734219   -3.840395
     15          6           0       -4.884641   -1.182602   -2.462285
     16          1           0       -5.333617   -0.184344   -2.463786
     17          6           0       -3.349916   -1.087105   -2.283989
     18          6           0       -5.525799   -2.061058   -1.366108
     19          1           0       -4.860677   -2.911577   -1.184479
     20          1           0       -5.527854   -1.475045   -0.441167
     21          8           0       -2.715049   -1.969360   -1.708799
     22          6           0       -6.902126   -2.534423   -1.726130
     23          6           0       -8.107878   -1.925182   -1.476821
     24          1           0       -8.324653   -1.034034   -0.903423
     25          6           0       -7.192640   -3.698891   -2.525886
     26          6           0       -8.598355   -3.724003   -2.741898
     27          6           0       -6.396196   -4.716405   -3.089606
     28          1           0       -5.328398   -4.767187   -2.879635
     29          7           0       -9.126061   -2.630549   -2.086983
     30          1           0      -10.109972   -2.430422   -1.986802
     31          6           0       -8.402878   -5.695899   -4.072090
     32          1           0       -8.854251   -6.483514   -4.667708
     33          6           0       -9.215598   -4.716939   -3.509180
     34          1           0      -10.291480   -4.727279   -3.658916
     35          6           0       -7.007646   -5.700304   -3.862637
     36          1           0       -6.409377   -6.503872   -4.282728
     37          7           0       -2.772867   -0.013688   -2.873483
     38          1           0       -3.368235    0.692901   -3.287422
     39          6           0       -1.315895    0.149581   -2.944292
     40          1           0       -0.896716   -0.858381   -3.014086
     41          6           0       -0.793433    0.811453   -1.647952
     42          6           0       -0.906066    0.969381   -4.171006
     43          1           0       -1.179705    2.017081   -4.014035
     44          1           0        0.185412    0.944900   -4.234131
     45          8           0       -0.409329    1.980829   -1.625027
     46          6           0       -1.516066    0.478103   -5.490053
     47          1           0       -2.605097    0.582519   -5.498625
     48          1           0       -1.141252    1.091668   -6.320874
     49          6           0       -1.162159   -0.949559   -5.815563
     50          8           0       -0.269491   -1.610675   -5.360920
     51          8           0       -2.006523   -1.491106   -6.790936
     52          7           0       -0.827101    0.002986   -0.565913
     53          1           0       -1.137060   -0.956795   -0.682458
     54          6           0       -0.427002    0.468336    0.764097
     55          1           0       -0.674721    1.534889    0.808804
     56          6           0        1.103635    0.293479    0.854898
     57          6           0       -1.164987   -0.279256    1.886386
     58          1           0       -0.779600   -1.306554    1.900212
     59          8           0        1.617734   -0.722855    1.331486
     60          6           0       -0.839317    0.375038    3.237416
     61          1           0       -1.228396    1.400766    3.277172
     62          1           0       -1.299704   -0.188258    4.055519
     63          1           0        0.237629    0.407642    3.423315
     64          6           0       -2.682721   -0.307638    1.648741
     65          1           0       -3.081490    0.710061    1.545453
     66          1           0       -2.952477   -0.874061    0.751252
     67          1           0       -3.185150   -0.777504    2.501060
     68          7           0        1.821623    1.300633    0.310188
     69          1           0        1.349515    2.093396   -0.114627
     70          6           0        3.262198    1.197958    0.099544
     71          1           0        3.498389    0.154542   -0.140125
     72          6           0        4.019817    1.566478    1.393304
     73          6           0        3.685302    2.109859   -1.069228
     74          1           0        4.783377    2.063116   -1.124670
     75          8           0        4.612250    2.662373    1.497269
     76          6           0        3.092121    1.673156   -2.403563
     77          1           0        3.373488    0.640209   -2.636342
     78          1           0        2.000886    1.755098   -2.384539
     79          1           0        3.468202    2.327494   -3.195286
     80          8           0        3.250242    3.442454   -0.824321
     81          1           0        3.711857    3.705945   -0.006433
     82          7           0        3.962213    0.644330    2.354948
     83          1           0        3.450918   -0.205337    2.128630
     84          6           0        4.731677    0.690639    3.596130
     85          1           0        4.521788    1.640624    4.104262
     86          6           0        6.233177    0.604389    3.228477
     87          6           0        4.313806   -0.483854    4.519495
     88          1           0        4.610881   -1.406137    3.999202
     89          8           0        6.588445   -0.072128    2.272954
     90          6           0        5.043711   -0.424466    5.869718
     91          1           0        4.774079    0.486562    6.418680
     92          1           0        6.132987   -0.433041    5.790173
     93          1           0        4.746287   -1.279910    6.485107
     94          6           0        2.791521   -0.509654    4.741798
     95          1           0        2.447733    0.440401    5.171431
     96          1           0        2.534462   -1.304864    5.449719
     97          1           0        2.228067   -0.695131    3.822441
     98          7           0        7.071939    1.373150    4.003916
     99          1           0        6.874282    1.452366    5.058260
    100          6           0        8.526264    1.084255    4.045112
    101          1           0        8.701464    0.092409    3.618134
    102          6           0        8.886520    1.092900    5.583903
    103          6           0        9.363448    2.128746    3.292725
    104          1           0       10.399855    1.785165    3.325697
    105          1           0        9.363664    3.054066    3.885029
    106          8           0       10.078921    0.954791    5.865184
    107          6           0        8.888201    2.395613    1.840906
    108          1           0        9.632457    2.031815    1.123799
    109          1           0        7.989065    1.806059    1.633440
    110          6           0        8.603487    3.873273    1.493404
    111          1           0        9.543382    4.428056    1.378521
    112          1           0        8.094383    3.922715    0.521763
    113          6           0        7.786877    4.657464    2.526236
    114          1           0        7.442218    5.610128    2.114063
    115          1           0        8.375421    4.868164    3.421527
    116          7           0        6.578985    3.899667    2.998564
    117          1           0        6.040706    4.443450    3.677107
    118          1           0        5.923211    3.600524    2.251148
    119          1           0        6.838906    2.963191    3.469578
    120          8           0        7.868050    1.280740    6.332898
    121          1           0       -1.633774   -2.369791   -7.003520
 ---------------------------------------------------------------------

 SCF Done:  E(RB3LYP) =  -2843.79606976     A.U. after    3 cycles

 Alpha  occ. eigenvalues --  -19.34732 -19.28527 -19.27927 -19.23759 -19.20818
 Alpha  occ. eigenvalues --  -19.20420 -19.19846 -19.19266 -19.16153 -19.07751
 Alpha  occ. eigenvalues --  -19.06047 -14.61266 -14.51904 -14.48742 -14.48277
 Alpha  occ. eigenvalues --  -14.48088 -14.44669 -14.43279 -14.42550 -14.37596
 Alpha  occ. eigenvalues --  -10.45790 -10.45558 -10.42795 -10.40785 -10.37806
 Alpha  occ. eigenvalues --  -10.36530 -10.36419 -10.36081 -10.35027 -10.33856
 Alpha  occ. eigenvalues --  -10.32788 -10.32619 -10.32379 -10.32278 -10.30883
 Alpha  occ. eigenvalues --  -10.30804 -10.30516 -10.30378 -10.30214 -10.30033
 Alpha  occ. eigenvalues --  -10.29353 -10.29189 -10.29076 -10.28808 -10.28677
 Alpha  occ. eigenvalues --  -10.28556 -10.28553 -10.26509 -10.25080 -10.25018
 Alpha  occ. eigenvalues --  -10.24814 -10.24435 -10.23844 -10.23739 -10.22163
 Alpha  occ. eigenvalues --  -10.22099 -10.22031 -10.20590 -10.20227  -1.24231
 Alpha  occ. eigenvalues --   -1.20817  -1.16006  -1.15624  -1.15240  -1.12641
 Alpha  occ. eigenvalues --   -1.11663  -1.10674  -1.08525  -1.08094  -1.07790
 Alpha  occ. eigenvalues --   -1.07422  -1.04340  -1.04293  -1.01222  -1.00506
 Alpha  occ. eigenvalues --   -0.99960  -0.98884  -0.95176  -0.94392  -0.94261
 Alpha  occ. eigenvalues --   -0.92368  -0.91473  -0.91372  -0.88421  -0.87625
 Alpha  occ. eigenvalues --   -0.85837  -0.85130  -0.85054  -0.83961  -0.83844
 Alpha  occ. eigenvalues --   -0.83217  -0.81984  -0.79835  -0.79107  -0.78510
 Alpha  occ. eigenvalues --   -0.77964  -0.76696  -0.75997  -0.75362  -0.75266
 Alpha  occ. eigenvalues --   -0.74687  -0.73256  -0.73239  -0.72532  -0.72175
 Alpha  occ. eigenvalues --   -0.70849  -0.70604  -0.69403  -0.68554  -0.68177
 Alpha  occ. eigenvalues --   -0.67843  -0.66316  -0.66230  -0.65892  -0.65313
 Alpha  occ. eigenvalues --   -0.64993  -0.64904  -0.63879  -0.63715  -0.63403
 Alpha  occ. eigenvalues --   -0.62832  -0.62741  -0.62274  -0.62031  -0.61842
 Alpha  occ. eigenvalues --   -0.61715  -0.61382  -0.60116  -0.59513  -0.59023
 Alpha  occ. eigenvalues --   -0.58723  -0.58578  -0.58271  -0.57927  -0.57326
 Alpha  occ. eigenvalues --   -0.57172  -0.56646  -0.56382  -0.56206  -0.55660
 Alpha  occ. eigenvalues --   -0.55383  -0.55124  -0.54647  -0.54243  -0.54076
 Alpha  occ. eigenvalues --   -0.53996  -0.53772  -0.53673  -0.53172  -0.52720
 Alpha  occ. eigenvalues --   -0.52461  -0.51824  -0.51621  -0.51429  -0.51184
 Alpha  occ. eigenvalues --   -0.50998  -0.50571  -0.50401  -0.50126  -0.49886
 Alpha  occ. eigenvalues --   -0.49538  -0.49188  -0.48984  -0.48588  -0.48178
 Alpha  occ. eigenvalues --   -0.48097  -0.47452  -0.47357  -0.47146  -0.46923
 Alpha  occ. eigenvalues --   -0.46863  -0.46655  -0.46395  -0.45921  -0.45802
 Alpha  occ. eigenvalues --   -0.45473  -0.45437  -0.44988  -0.44876  -0.44583
 Alpha  occ. eigenvalues --   -0.44478  -0.43997  -0.43892  -0.43667  -0.43553
 Alpha  occ. eigenvalues --   -0.42971  -0.42836  -0.42498  -0.42388  -0.42207
 Alpha  occ. eigenvalues --   -0.41882  -0.41183  -0.41069  -0.40844  -0.40707
 Alpha  occ. eigenvalues --   -0.40064  -0.40006  -0.39456  -0.38656  -0.38470
 Alpha  occ. eigenvalues --   -0.38265  -0.37946  -0.37699  -0.37288  -0.37070
 Alpha  occ. eigenvalues --   -0.36877  -0.36353  -0.36064  -0.35388  -0.35215
 Alpha  occ. eigenvalues --   -0.34549  -0.33960  -0.33310  -0.33098  -0.32719
 Alpha  occ. eigenvalues --   -0.32016  -0.31386  -0.30761  -0.30510  -0.29183
 Alpha  occ. eigenvalues --   -0.22760  -0.22510  -0.20074
 Alpha virt. eigenvalues --   -0.15066  -0.12847  -0.11982  -0.10998  -0.10138
 Alpha virt. eigenvalues --   -0.08297  -0.07546  -0.07393  -0.06205  -0.05783
 Alpha virt. eigenvalues --   -0.04802  -0.04680  -0.04079  -0.03408  -0.02427

 Mulliken charges:
               1
     1  N   -0.767500
     2  H    0.410921
     3  H    0.446407
     4  H    0.423823
     5  C   -0.123269
     6  H    0.239292
     7  C    0.661076
     8  C   -0.500107
     9  H    0.223213
    10  H    0.189175
    11  H    0.183839
    12  O   -0.554934
    13  N   -0.607019
    14  H    0.377544
    15  C   -0.058164
    16  H    0.188781
    17  C    0.643963
    18  C   -0.408540
    19  H    0.205049
    20  H    0.188222
    21  O   -0.527319
    22  C    0.064435
    23  C    0.008871
    24  H    0.173208
    25  C    0.060473
    26  C    0.317687
    27  C   -0.272413
    28  H    0.150509
    29  N   -0.686071
    30  H    0.347004
    31  C   -0.156196
    32  H    0.152294
    33  C   -0.156712
    34  H    0.151760
    35  C   -0.144680
    36  H    0.145769
    37  N   -0.610255
    38  H    0.359436
    39  C   -0.081224
    40  H    0.207354
    41  C    0.642921
    42  C   -0.295591
    43  H    0.190616
    44  H    0.199142
    45  O   -0.532721
    46  C   -0.397791
    47  H    0.172310
    48  H    0.210119
    49  C    0.616333
    50  O   -0.409878
    51  O   -0.638978
    52  N   -0.621197
    53  H    0.374796
    54  C   -0.035700
    55  H    0.169983
    56  C    0.633427
    57  C   -0.100189
    58  H    0.163614
    59  O   -0.546451
    60  C   -0.468306
    61  H    0.142628
    62  H    0.159811
    63  H    0.175823
    64  C   -0.466506
    65  H    0.140060
    66  H    0.142053
    67  H    0.158539
    68  N   -0.605238
    69  H    0.374682
    70  C   -0.083229
    71  H    0.186985
    72  C    0.673776
    73  C    0.109500
    74  H    0.143857
    75  O   -0.616471
    76  C   -0.475015
    77  H    0.145004
    78  H    0.168071
    79  H    0.165419
    80  O   -0.643637
    81  H    0.409330
    82  N   -0.599419
    83  H    0.386839
    84  C   -0.011945
    85  H    0.135382
    86  C    0.603516
    87  C   -0.122318
    88  H    0.153984
    89  O   -0.508968
    90  C   -0.465693
    91  H    0.148076
    92  H    0.198628
    93  H    0.151029
    94  C   -0.472440
    95  H    0.139912
    96  H    0.158083
    97  H    0.168599
    98  N   -0.729069
    99  H    0.384152
   100  C   -0.067047
   101  H    0.169859
   102  C    0.592135
   103  C   -0.293318
   104  H    0.186906
   105  H    0.127117
   106  O   -0.558347
   107  C   -0.300584
   108  H    0.157006
   109  H    0.168070
   110  C   -0.280100
   111  H    0.169032
   112  H    0.148530
   113  C   -0.180285
   114  H    0.179879
   115  H    0.203562
   116  N   -0.803880
   117  H    0.379123
   118  H    0.428829
   119  H    0.448372
   120  O   -0.623187
   121  H    0.432376
 Sum of Mulliken charges =   1.00000

 Dipole moment (field-independent basis, Debye):
    X=            -37.5394    Y=             -1.6578    Z=            -37.5328  Tot=             53.1100
 Quadrupole moment (field-independent basis, Debye-Ang):
   XX=           -266.3824   YY=           -292.6416   ZZ=           -201.8732
   XY=             96.9374   XZ=             48.4869   YZ=             64.8477

 Normal termination of Gaussian 16 at Sat Jun 25 08:59:27 2022.
