 Gaussian 16, Revision C.01,
 Gaussian 16:  ES64L-G16RevC.01  3-Jul-2019

 ----------------------------------------------------------------------
 # B3LYP/6-31G* empiricaldispersion=gd3 guess=read geom=check nosymm in
 tegral(ultrafinegrid)
 ----------------------------------------------------------------------

 ------------------------------------------------------
 Candidate Structure: Conf:879 Charge calc in gas phase
 ------------------------------------------------------
 Structure from the checkpoint file:  "conf-879.chk"
 Charge =  1 Multiplicity = 1

                          Input orientation:
 ---------------------------------------------------------------------
 Center     Atomic      Atomic             Coordinates (Angstroms)
 Number     Number       Type             X           Y           Z
 ---------------------------------------------------------------------
      1          7           0       -3.267025   -1.698888   -8.633140
      2          1           0       -3.098030   -0.678698   -8.676911
      3          1           0       -3.336941   -2.100495   -9.571294
      4          1           0       -2.402673   -2.091299   -8.164241
      5          6           0       -4.529608   -1.891293   -7.823644
      6          1           0       -5.367785   -1.733337   -8.510631
      7          6           0       -4.479708   -0.735873   -6.790284
      8          6           0       -4.571367   -3.291532   -7.211234
      9          1           0       -5.572918   -3.501497   -6.825226
     10          1           0       -4.354779   -4.055163   -7.964932
     11          1           0       -3.865695   -3.380450   -6.380322
     12          8           0       -3.649056    0.159120   -6.964621
     13          7           0       -5.323024   -0.790745   -5.736903
     14          1           0       -5.779818   -1.679945   -5.567983
     15          6           0       -4.899267   -0.116542   -4.494750
     16          1           0       -4.550835    0.877493   -4.773335
     17          6           0       -3.731518   -0.962179   -3.948486
     18          6           0       -6.036668   -0.013377   -3.459271
     19          1           0       -6.792295    0.684624   -3.840470
     20          1           0       -6.516626   -0.994689   -3.357229
     21          8           0       -3.797251   -2.194824   -3.988255
     22          6           0       -5.479885    0.407105   -2.128329
     23          6           0       -5.473581   -0.351501   -0.983049
     24          1           0       -5.938053   -1.309487   -0.792969
     25          6           0       -4.688809    1.582160   -1.847640
     26          6           0       -4.228554    1.463080   -0.506827
     27          6           0       -4.286470    2.700357   -2.603283
     28          1           0       -4.646306    2.844504   -3.619274
     29          7           0       -4.731723    0.278025   -0.006209
     30          1           0       -4.612665   -0.051814    0.939155
     31          6           0       -3.002847    3.500484   -0.692146
     32          1           0       -2.352015    4.257052   -0.264441
     33          6           0       -3.398017    2.419376    0.086908
     34          1           0       -3.077519    2.325458    1.120507
     35          6           0       -3.441848    3.639803   -2.024321
     36          1           0       -3.122045    4.502499   -2.600678
     37          7           0       -2.649604   -0.276832   -3.534337
     38          1           0       -2.668232    0.736464   -3.460060
     39          6           0       -1.444299   -0.936522   -3.047450
     40          1           0       -1.746133   -1.904106   -2.634426
     41          6           0       -0.875972   -0.003876   -1.971128
     42          6           0       -0.420903   -1.155764   -4.190532
     43          1           0        0.003688   -0.187507   -4.476687
     44          1           0        0.400791   -1.780596   -3.824758
     45          8           0       -0.770132    1.200404   -2.208446
     46          6           0       -1.112026   -1.804923   -5.395741
     47          1           0       -1.645774   -2.711476   -5.082446
     48          1           0       -1.877662   -1.128458   -5.783124
     49          6           0       -0.285242   -2.192828   -6.586489
     50          8           0       -0.777864   -2.434892   -7.689216
     51          8           0        1.021273   -2.296533   -6.363216
     52          7           0       -0.549736   -0.563309   -0.786406
     53          1           0       -0.578664   -1.568075   -0.675390
     54          6           0       -0.035121    0.242202    0.327535
     55          1           0       -0.568215    1.198400    0.282275
     56          6           0        1.468884    0.471255    0.083124
     57          6           0       -0.300283   -0.436010    1.682353
     58          1           0        0.251789   -1.385458    1.683446
     59          8           0        2.322479   -0.304726    0.525758
     60          6           0        0.247175    0.431855    2.826090
     61          1           0       -0.226612    1.421988    2.828338
     62          1           0        0.038319   -0.038121    3.792331
     63          1           0        1.329025    0.563956    2.746004
     64          6           0       -1.797356   -0.711855    1.888592
     65          1           0       -2.348634    0.233778    1.961337
     66          1           0       -2.238297   -1.293139    1.071311
     67          1           0       -1.954851   -1.262813    2.821379
     68          7           0        1.767475    1.551624   -0.667693
     69          1           0        1.026015    2.131078   -1.049273
     70          6           0        3.132107    1.863671   -1.082830
     71          1           0        3.663751    0.917012   -1.235717
     72          6           0        3.846239    2.645723    0.044370
     73          6           0        3.099351    2.676664   -2.390373
     74          1           0        4.140962    2.948502   -2.622225
     75          8           0        4.163283    3.844948   -0.092912
     76          6           0        2.507907    1.894444   -3.557078
     77          1           0        3.070467    0.970549   -3.732618
     78          1           0        1.460811    1.645011   -3.358802
     79          1           0        2.546913    2.509115   -4.460946
     80          8           0        2.304015    3.842194   -2.212163
     81          1           0        2.758047    4.355928   -1.517700
     82          7           0        4.047336    1.944372    1.162884
     83          1           0        3.764105    0.967619    1.150246
     84          6           0        4.616118    2.502564    2.385408
     85          1           0        4.016298    3.373730    2.671540
     86          6           0        6.060664    2.974474    2.154262
     87          6           0        4.543546    1.458395    3.536901
     88          1           0        3.470877    1.316639    3.737560
     89          8           0        6.842380    2.332950    1.444194
     90          6           0        5.152469    0.098519    3.152379
     91          1           0        6.181345    0.220487    2.800267
     92          1           0        4.583903   -0.423671    2.373465
     93          1           0        5.163898   -0.555799    4.030397
     94          6           0        5.206745    2.001792    4.813018
     95          1           0        6.298918    1.997977    4.715299
     96          1           0        4.954323    1.356324    5.660602
     97          1           0        4.916286    3.028050    5.055565
     98          7           0        6.355820    4.173547    2.733014
     99          1           0        5.662840    4.572809    3.423750
    100          6           0        7.638068    4.496577    3.411218
    101          1           0        8.171779    3.564050    3.626424
    102          6           0        7.191809    5.171388    4.788508
    103          6           0        8.557273    5.442840    2.634191
    104          1           0        9.302246    5.786539    3.356185
    105          1           0        7.978540    6.338824    2.364327
    106          8           0        5.932466    5.256196    4.932998
    107          6           0        9.234853    4.803909    1.395489
    108          1           0       10.303374    4.655936    1.587178
    109          1           0        8.829393    3.795608    1.243888
    110          6           0        9.115199    5.600952    0.080528
    111          1           0        9.689291    6.533065    0.142175
    112          1           0        9.560814    5.014448   -0.733765
    113          6           0        7.681822    5.989335   -0.315808
    114          1           0        7.604507    6.199923   -1.385453
    115          1           0        7.329606    6.866897    0.230729
    116          7           0        6.716480    4.888511    0.014373
    117          1           0        5.794674    4.932260   -0.437066
    118          1           0        7.089278    3.949543   -0.168389
    119          1           0        6.507093    4.860719    1.049732
    120          8           0        8.122947    5.533628    5.513037
    121          1           0        1.457285   -2.578255   -7.191833
 ---------------------------------------------------------------------

 SCF Done:  E(RB3LYP) =  -2843.80381532     A.U. after    2 cycles

 Alpha  occ. eigenvalues --  -19.33247 -19.28262 -19.27405 -19.22663 -19.22303
 Alpha  occ. eigenvalues --  -19.21214 -19.20900 -19.20502 -19.17603 -19.08181
 Alpha  occ. eigenvalues --  -19.06727 -14.58721 -14.50305 -14.49981 -14.47234
 Alpha  occ. eigenvalues --  -14.46986 -14.46557 -14.44710 -14.43353 -14.38579
 Alpha  occ. eigenvalues --  -10.46171 -10.44236 -10.41189 -10.39756 -10.39512
 Alpha  occ. eigenvalues --  -10.37470 -10.37196 -10.34968 -10.34624 -10.33902
 Alpha  occ. eigenvalues --  -10.33584 -10.32421 -10.31961 -10.31867 -10.31863
 Alpha  occ. eigenvalues --  -10.31351 -10.30770 -10.30764 -10.30329 -10.30171
 Alpha  occ. eigenvalues --  -10.29004 -10.28267 -10.27275 -10.27112 -10.27019
 Alpha  occ. eigenvalues --  -10.26953 -10.26537 -10.26426 -10.26156 -10.26011
 Alpha  occ. eigenvalues --  -10.25736 -10.25163 -10.25113 -10.25110 -10.23525
 Alpha  occ. eigenvalues --  -10.23104 -10.22011 -10.21363 -10.20550  -1.24459
 Alpha  occ. eigenvalues --   -1.19669  -1.15245  -1.14977  -1.14194  -1.13162
 Alpha  occ. eigenvalues --   -1.12685  -1.11779  -1.09043  -1.08646  -1.06588
 Alpha  occ. eigenvalues --   -1.06449  -1.05743  -1.03664  -1.03246  -1.01237
 Alpha  occ. eigenvalues --   -1.01107  -0.99800  -0.95379  -0.93663  -0.92270
 Alpha  occ. eigenvalues --   -0.92201  -0.91979  -0.90367  -0.89703  -0.86588
 Alpha  occ. eigenvalues --   -0.86272  -0.86044  -0.85054  -0.84695  -0.81827
 Alpha  occ. eigenvalues --   -0.81453  -0.81008  -0.80342  -0.80249  -0.78927
 Alpha  occ. eigenvalues --   -0.77295  -0.76852  -0.76416  -0.75618  -0.74312
 Alpha  occ. eigenvalues --   -0.73853  -0.73374  -0.72572  -0.72419  -0.70817
 Alpha  occ. eigenvalues --   -0.70566  -0.70343  -0.69372  -0.69038  -0.67878
 Alpha  occ. eigenvalues --   -0.67651  -0.67494  -0.67109  -0.66070  -0.65775
 Alpha  occ. eigenvalues --   -0.65147  -0.64548  -0.64429  -0.63694  -0.63331
 Alpha  occ. eigenvalues --   -0.62947  -0.62631  -0.62198  -0.61785  -0.61258
 Alpha  occ. eigenvalues --   -0.61132  -0.60532  -0.60070  -0.59694  -0.59471
 Alpha  occ. eigenvalues --   -0.59148  -0.58697  -0.58464  -0.58033  -0.57179
 Alpha  occ. eigenvalues --   -0.56832  -0.56644  -0.56036  -0.55747  -0.55249
 Alpha  occ. eigenvalues --   -0.54950  -0.54785  -0.54400  -0.54185  -0.53741
 Alpha  occ. eigenvalues --   -0.53229  -0.53015  -0.52740  -0.52683  -0.52631
 Alpha  occ. eigenvalues --   -0.52428  -0.51845  -0.51636  -0.51476  -0.51376
 Alpha  occ. eigenvalues --   -0.51326  -0.51149  -0.50871  -0.50480  -0.50026
 Alpha  occ. eigenvalues --   -0.49589  -0.49427  -0.49283  -0.48999  -0.48717
 Alpha  occ. eigenvalues --   -0.48339  -0.48217  -0.47739  -0.47521  -0.47378
 Alpha  occ. eigenvalues --   -0.47176  -0.46865  -0.46686  -0.46580  -0.46363
 Alpha  occ. eigenvalues --   -0.46177  -0.46059  -0.45852  -0.45342  -0.45046
 Alpha  occ. eigenvalues --   -0.44872  -0.44544  -0.44242  -0.43507  -0.43221
 Alpha  occ. eigenvalues --   -0.42845  -0.42770  -0.42363  -0.42216  -0.42141
 Alpha  occ. eigenvalues --   -0.42040  -0.41847  -0.41615  -0.41507  -0.41305
 Alpha  occ. eigenvalues --   -0.41230  -0.40686  -0.40312  -0.39020  -0.38555
 Alpha  occ. eigenvalues --   -0.38417  -0.38009  -0.37890  -0.37589  -0.37430
 Alpha  occ. eigenvalues --   -0.36914  -0.36567  -0.36448  -0.36210  -0.36093
 Alpha  occ. eigenvalues --   -0.35145  -0.35121  -0.34619  -0.34097  -0.33528
 Alpha  occ. eigenvalues --   -0.32496  -0.31419  -0.30507  -0.30217  -0.28943
 Alpha  occ. eigenvalues --   -0.23199  -0.23007  -0.20803
 Alpha virt. eigenvalues --   -0.13969  -0.12758  -0.09707  -0.09601  -0.09346
 Alpha virt. eigenvalues --   -0.08340  -0.07494  -0.05924  -0.05905  -0.05374
 Alpha virt. eigenvalues --   -0.04959  -0.04411  -0.03482  -0.02817  -0.02587

 Mulliken charges:
               1
     1  N   -0.768972
     2  H    0.418048
     3  H    0.404783
     4  H    0.446480
     5  C   -0.118041
     6  H    0.227571
     7  C    0.649343
     8  C   -0.491375
     9  H    0.198521
    10  H    0.188758
    11  H    0.218675
    12  O   -0.522520
    13  N   -0.574350
    14  H    0.353187
    15  C   -0.076814
    16  H    0.196000
    17  C    0.627695
    18  C   -0.355426
    19  H    0.181197
    20  H    0.156155
    21  O   -0.567638
    22  C    0.040497
    23  C    0.014393
    24  H    0.166028
    25  C    0.075209
    26  C    0.316397
    27  C   -0.252122
    28  H    0.132163
    29  N   -0.690814
    30  H    0.343349
    31  C   -0.142530
    32  H    0.144966
    33  C   -0.168642
    34  H    0.143791
    35  C   -0.119916
    36  H    0.143156
    37  N   -0.600596
    38  H    0.379110
    39  C   -0.050263
    40  H    0.177014
    41  C    0.635273
    42  C   -0.269282
    43  H    0.186469
    44  H    0.175128
    45  O   -0.533889
    46  C   -0.413257
    47  H    0.220996
    48  H    0.193589
    49  C    0.625472
    50  O   -0.521774
    51  O   -0.524618
    52  N   -0.612691
    53  H    0.344091
    54  C   -0.039891
    55  H    0.180775
    56  C    0.631492
    57  C   -0.105474
    58  H    0.158215
    59  O   -0.553718
    60  C   -0.474167
    61  H    0.145972
    62  H    0.165932
    63  H    0.181483
    64  C   -0.464497
    65  H    0.142668
    66  H    0.135570
    67  H    0.169504
    68  N   -0.597773
    69  H    0.375875
    70  C   -0.084113
    71  H    0.185002
    72  C    0.651458
    73  C    0.117002
    74  H    0.125821
    75  O   -0.609895
    76  C   -0.474361
    77  H    0.139567
    78  H    0.175757
    79  H    0.165828
    80  O   -0.641868
    81  H    0.412948
    82  N   -0.622654
    83  H    0.397664
    84  C   -0.018755
    85  H    0.174300
    86  C    0.589882
    87  C   -0.126767
    88  H    0.141239
    89  O   -0.553257
    90  C   -0.476155
    91  H    0.181079
    92  H    0.147389
    93  H    0.156594
    94  C   -0.481339
    95  H    0.163394
    96  H    0.149668
    97  H    0.203766
    98  N   -0.679726
    99  H    0.376549
   100  C   -0.073878
   101  H    0.157015
   102  C    0.598923
   103  C   -0.294291
   104  H    0.200268
   105  H    0.121288
   106  O   -0.615595
   107  C   -0.308808
   108  H    0.164082
   109  H    0.163789
   110  C   -0.292514
   111  H    0.175179
   112  H    0.151358
   113  C   -0.171466
   114  H    0.183410
   115  H    0.203618
   116  N   -0.783811
   117  H    0.413022
   118  H    0.405090
   119  H    0.440655
   120  O   -0.558436
   121  H    0.435146
 Sum of Mulliken charges =   1.00000

 Dipole moment (field-independent basis, Debye):
    X=            -17.5269    Y=            -11.3729    Z=            -40.4212  Tot=             45.5018
 Quadrupole moment (field-independent basis, Debye-Ang):
   XX=           -283.2247   YY=           -342.4998   ZZ=           -162.8599
   XY=             18.5295   XZ=             -4.0627   YZ=             -9.7404

 Normal termination of Gaussian 16 at Sat Jun 25 09:16:40 2022.
