 Gaussian 16, Revision C.01,
 Gaussian 16:  ES64L-G16RevC.01  3-Jul-2019

 ----------------------------------------------------------------------
 # B3LYP/6-31G* empiricaldispersion=gd3 guess=read geom=check nosymm in
 tegral(ultrafinegrid)
 ----------------------------------------------------------------------

 ------------------------------------------------------
 Candidate Structure: Conf:883 Charge calc in gas phase
 ------------------------------------------------------
 Structure from the checkpoint file:  "conf-883.chk"
 Charge =  1 Multiplicity = 1

                          Input orientation:
 ---------------------------------------------------------------------
 Center     Atomic      Atomic             Coordinates (Angstroms)
 Number     Number       Type             X           Y           Z
 ---------------------------------------------------------------------
      1          7           0       -1.587184    0.534164   -8.098519
      2          1           0       -1.175955    1.392953   -7.679428
      3          1           0       -1.442056    0.502563   -9.110834
      4          1           0       -1.060987   -0.249571   -7.656222
      5          6           0       -3.055152    0.560470   -7.715839
      6          1           0       -3.558959    1.163463   -8.478429
      7          6           0       -3.049912    1.322986   -6.364678
      8          6           0       -3.628914   -0.853873   -7.651649
      9          1           0       -4.719678   -0.809609   -7.584197
     10          1           0       -3.391055   -1.414954   -8.560909
     11          1           0       -3.261028   -1.388725   -6.771271
     12          8           0       -2.006139    1.894341   -6.034802
     13          7           0       -4.165131    1.293764   -5.607020
     14          1           0       -4.864657    0.603659   -5.856480
     15          6           0       -3.977780    1.434888   -4.151701
     16          1           0       -3.310042    2.282182   -3.997508
     17          6           0       -3.290432    0.130354   -3.696245
     18          6           0       -5.298654    1.667852   -3.391750
     19          1           0       -5.750388    2.598449   -3.756654
     20          1           0       -5.995962    0.850642   -3.614086
     21          8           0       -3.566824   -0.936005   -4.255009
     22          6           0       -5.011974    1.717673   -1.918648
     23          6           0       -5.359369    0.778117   -0.979192
     24          1           0       -5.990905   -0.093948   -1.081390
     25          6           0       -4.139366    2.656762   -1.256086
     26          6           0       -3.999272    2.219042    0.091225
     27          6           0       -3.458282    3.816468   -1.668523
     28          1           0       -3.564821    4.194668   -2.682022
     29          7           0       -4.750962    1.069249    0.224313
     30          1           0       -4.918183    0.581235    1.091251
     31          6           0       -2.566627    4.058008    0.589503
     32          1           0       -1.990361    4.641661    1.303196
     33          6           0       -3.218059    2.906837    1.023291
     34          1           0       -3.134249    2.567204    2.051419
     35          6           0       -2.682988    4.506525   -0.744793
     36          1           0       -2.186876    5.423544   -1.046320
     37          7           0       -2.352638    0.254080   -2.740293
     38          1           0       -2.215227    1.130379   -2.244849
     39          6           0       -1.563956   -0.878542   -2.285015
     40          1           0       -2.174135   -1.780385   -2.396795
     41          6           0       -1.203971   -0.619800   -0.819032
     42          6           0       -0.257701   -1.020092   -3.110895
     43          1           0        0.404006   -0.178272   -2.882284
     44          1           0        0.269326   -1.931559   -2.808818
     45          8           0       -1.035688    0.542134   -0.421009
     46          6           0       -0.544008   -1.046166   -4.614281
     47          1           0       -1.285950   -1.812723   -4.866081
     48          1           0       -0.975449   -0.090864   -4.930696
     49          6           0        0.678266   -1.279143   -5.454990
     50          8           0        1.796094   -1.531189   -5.096601
     51          8           0        0.366680   -1.172743   -6.810338
     52          7           0       -1.024736   -1.702493   -0.039258
     53          1           0       -1.044490   -2.619863   -0.468787
     54          6           0       -0.382691   -1.612534    1.286002
     55          1           0       -0.825648   -0.748386    1.791188
     56          6           0        1.115558   -1.379581    0.992401
     57          6           0       -0.625341   -2.885132    2.108890
     58          1           0       -0.177015   -3.717508    1.548881
     59          8           0        1.833674   -2.298880    0.615207
     60          6           0        0.101486   -2.778953    3.457495
     61          1           0       -0.266327   -1.922477    4.036826
     62          1           0       -0.071581   -3.680950    4.052600
     63          1           0        1.181950   -2.670306    3.323786
     64          6           0       -2.124908   -3.144411    2.307681
     65          1           0       -2.587220   -2.328442    2.877873
     66          1           0       -2.663709   -3.236294    1.357972
     67          1           0       -2.278986   -4.070738    2.870068
     68          7           0        1.501825   -0.081306    1.062138
     69          1           0        0.885871    0.620703    1.458422
     70          6           0        2.804409    0.414256    0.664670
     71          1           0        3.550000   -0.363266    0.857623
     72          6           0        3.090850    1.679822    1.483003
     73          6           0        2.833220    0.774664   -0.863612
     74          1           0        3.597380    1.540721   -1.020161
     75          8           0        2.158277    2.362015    1.930342
     76          6           0        3.100407   -0.444046   -1.741691
     77          1           0        4.098465   -0.847821   -1.538675
     78          1           0        2.382838   -1.244341   -1.545616
     79          1           0        3.047425   -0.164612   -2.797851
     80          8           0        1.603081    1.419156   -1.247983
     81          1           0        0.852320    0.924817   -0.863160
     82          7           0        4.395755    1.969916    1.608708
     83          1           0        5.032512    1.364475    1.107396
     84          6           0        4.915776    3.307773    1.907371
     85          1           0        4.679556    3.551156    2.949287
     86          6           0        4.193395    4.320849    0.978918
     87          6           0        6.459156    3.279421    1.724346
     88          1           0        6.642514    3.040657    0.664433
     89          8           0        3.700311    3.928716   -0.099158
     90          6           0        7.120860    4.628263    2.037143
     91          1           0        6.950957    4.910255    3.083926
     92          1           0        6.767265    5.460074    1.425267
     93          1           0        8.203425    4.540766    1.895487
     94          6           0        7.096209    2.186151    2.603703
     95          1           0        6.904143    2.391920    3.663710
     96          1           0        8.181120    2.177528    2.457496
     97          1           0        6.730589    1.174241    2.393781
     98          7           0        4.108200    5.564217    1.452177
     99          1           0        4.781450    5.890506    2.166333
    100          6           0        3.758805    6.747189    0.664168
    101          1           0        3.655993    6.474579   -0.387119
    102          6           0        4.959045    7.777625    0.821889
    103          6           0        2.505567    7.436798    1.219790
    104          1           0        2.354041    8.344108    0.623898
    105          1           0        2.750889    7.772562    2.236156
    106          8           0        4.926024    8.726121    0.027337
    107          6           0        1.209457    6.619029    1.296025
    108          1           0        1.402528    5.682874    1.841815
    109          1           0        0.494909    7.173186    1.918079
    110          6           0        0.513269    6.341743   -0.051240
    111          1           0       -0.560264    6.190458    0.121513
    112          1           0        0.593183    7.232037   -0.687601
    113          6           0        1.040816    5.162568   -0.866572
    114          1           0        2.100794    5.246771   -1.098592
    115          1           0        0.470862    5.036638   -1.792363
    116          7           0        0.912512    3.866615   -0.114557
    117          1           0        1.259537    3.049077   -0.664900
    118          1           0        1.498069    3.842142    0.733165
    119          1           0       -0.059977    3.677086    0.154094
    120          8           0        5.735528    7.499677    1.780241
    121          1           0        1.192178   -1.377693   -7.292143
 ---------------------------------------------------------------------

 SCF Done:  E(RB3LYP) =  -2843.80199327     A.U. after    2 cycles

 Alpha  occ. eigenvalues --  -19.33827 -19.29038 -19.27316 -19.25082 -19.24550
 Alpha  occ. eigenvalues --  -19.24031 -19.20703 -19.20691 -19.16091 -19.06348
 Alpha  occ. eigenvalues --  -19.05335 -14.61131 -14.51379 -14.50200 -14.48830
 Alpha  occ. eigenvalues --  -14.48261 -14.48218 -14.45462 -14.43987 -14.38167
 Alpha  occ. eigenvalues --  -10.45778 -10.45206 -10.42858 -10.41537 -10.41097
 Alpha  occ. eigenvalues --  -10.38138 -10.37484 -10.36319 -10.35869 -10.34855
 Alpha  occ. eigenvalues --  -10.33501 -10.32944 -10.32815 -10.32468 -10.32454
 Alpha  occ. eigenvalues --  -10.32288 -10.32140 -10.31613 -10.31330 -10.30858
 Alpha  occ. eigenvalues --  -10.29050 -10.28965 -10.28917 -10.28898 -10.28812
 Alpha  occ. eigenvalues --  -10.28798 -10.28555 -10.28258 -10.26618 -10.26067
 Alpha  occ. eigenvalues --  -10.25689 -10.25334 -10.25033 -10.24295 -10.23642
 Alpha  occ. eigenvalues --  -10.22783 -10.22153 -10.20695 -10.19888  -1.23455
 Alpha  occ. eigenvalues --   -1.21377  -1.16703  -1.15938  -1.15419  -1.14837
 Alpha  occ. eigenvalues --   -1.13246  -1.12233  -1.11608  -1.08215  -1.07991
 Alpha  occ. eigenvalues --   -1.07262  -1.05509  -1.04973  -1.04806  -1.01713
 Alpha  occ. eigenvalues --   -1.00632  -0.99503  -0.95203  -0.94820  -0.94088
 Alpha  occ. eigenvalues --   -0.93046  -0.91823  -0.90798  -0.90526  -0.87641
 Alpha  occ. eigenvalues --   -0.87253  -0.86078  -0.86006  -0.85055  -0.83702
 Alpha  occ. eigenvalues --   -0.83117  -0.82071  -0.81652  -0.79977  -0.79377
 Alpha  occ. eigenvalues --   -0.78624  -0.77400  -0.76837  -0.76449  -0.75974
 Alpha  occ. eigenvalues --   -0.74386  -0.73795  -0.72677  -0.72449  -0.72372
 Alpha  occ. eigenvalues --   -0.71888  -0.71163  -0.70514  -0.69890  -0.69540
 Alpha  occ. eigenvalues --   -0.68896  -0.68671  -0.67780  -0.67186  -0.66657
 Alpha  occ. eigenvalues --   -0.66274  -0.65710  -0.64810  -0.64732  -0.64213
 Alpha  occ. eigenvalues --   -0.63393  -0.63053  -0.62787  -0.62604  -0.62250
 Alpha  occ. eigenvalues --   -0.61837  -0.61600  -0.60985  -0.60252  -0.60001
 Alpha  occ. eigenvalues --   -0.59818  -0.59719  -0.59419  -0.58646  -0.58269
 Alpha  occ. eigenvalues --   -0.57310  -0.57240  -0.57010  -0.56597  -0.56250
 Alpha  occ. eigenvalues --   -0.55838  -0.55577  -0.55479  -0.55083  -0.54899
 Alpha  occ. eigenvalues --   -0.54605  -0.54184  -0.53878  -0.53492  -0.53373
 Alpha  occ. eigenvalues --   -0.53295  -0.53126  -0.52769  -0.52509  -0.52385
 Alpha  occ. eigenvalues --   -0.51852  -0.51713  -0.51552  -0.50960  -0.50936
 Alpha  occ. eigenvalues --   -0.50483  -0.50258  -0.49792  -0.49702  -0.49318
 Alpha  occ. eigenvalues --   -0.49191  -0.48796  -0.48609  -0.48472  -0.48243
 Alpha  occ. eigenvalues --   -0.48001  -0.47632  -0.47502  -0.47101  -0.46735
 Alpha  occ. eigenvalues --   -0.46480  -0.46346  -0.46065  -0.45838  -0.45596
 Alpha  occ. eigenvalues --   -0.45447  -0.45326  -0.44857  -0.44401  -0.43721
 Alpha  occ. eigenvalues --   -0.43548  -0.43231  -0.43144  -0.43130  -0.42849
 Alpha  occ. eigenvalues --   -0.42571  -0.42265  -0.42177  -0.41859  -0.41813
 Alpha  occ. eigenvalues --   -0.41275  -0.40702  -0.40358  -0.39642  -0.39028
 Alpha  occ. eigenvalues --   -0.38875  -0.38596  -0.38047  -0.38016  -0.37826
 Alpha  occ. eigenvalues --   -0.37612  -0.37579  -0.37257  -0.37022  -0.36339
 Alpha  occ. eigenvalues --   -0.35590  -0.35522  -0.34149  -0.33902  -0.33693
 Alpha  occ. eigenvalues --   -0.33425  -0.32559  -0.30724  -0.30423  -0.29319
 Alpha  occ. eigenvalues --   -0.21541  -0.21158  -0.19396
 Alpha virt. eigenvalues --   -0.15526  -0.12264  -0.11738  -0.11275  -0.11004
 Alpha virt. eigenvalues --   -0.10085  -0.08068  -0.07593  -0.06732  -0.06511
 Alpha virt. eigenvalues --   -0.06137  -0.04830  -0.04393  -0.03884  -0.03024

 Mulliken charges:
               1
     1  N   -0.769921
     2  H    0.425852
     3  H    0.410320
     4  H    0.444097
     5  C   -0.120464
     6  H    0.234191
     7  C    0.654316
     8  C   -0.493679
     9  H    0.202611
    10  H    0.189946
    11  H    0.225648
    12  O   -0.523450
    13  N   -0.570443
    14  H    0.355278
    15  C   -0.084145
    16  H    0.201616
    17  C    0.627959
    18  C   -0.360270
    19  H    0.184491
    20  H    0.162533
    21  O   -0.566664
    22  C    0.047420
    23  C    0.014951
    24  H    0.171542
    25  C    0.052077
    26  C    0.334017
    27  C   -0.224769
    28  H    0.138119
    29  N   -0.686956
    30  H    0.344206
    31  C   -0.199390
    32  H    0.158123
    33  C   -0.144068
    34  H    0.148860
    35  C   -0.151751
    36  H    0.154436
    37  N   -0.594759
    38  H    0.374146
    39  C   -0.063238
    40  H    0.184420
    41  C    0.628796
    42  C   -0.283643
    43  H    0.193172
    44  H    0.181043
    45  O   -0.563792
    46  C   -0.398458
    47  H    0.209496
    48  H    0.187749
    49  C    0.609807
    50  O   -0.410799
    51  O   -0.634188
    52  N   -0.596651
    53  H    0.350744
    54  C   -0.032499
    55  H    0.163367
    56  C    0.614744
    57  C   -0.107407
    58  H    0.158240
    59  O   -0.525176
    60  C   -0.465010
    61  H    0.147348
    62  H    0.168745
    63  H    0.177204
    64  C   -0.449019
    65  H    0.143986
    66  H    0.135016
    67  H    0.171696
    68  N   -0.625913
    69  H    0.354397
    70  C   -0.088840
    71  H    0.190823
    72  C    0.656961
    73  C    0.107999
    74  H    0.193467
    75  O   -0.585809
    76  C   -0.465019
    77  H    0.159374
    78  H    0.166328
    79  H    0.166671
    80  O   -0.689322
    81  H    0.447173
    82  N   -0.597614
    83  H    0.339471
    84  C   -0.018975
    85  H    0.175188
    86  C    0.596856
    87  C   -0.124510
    88  H    0.133761
    89  O   -0.609352
    90  C   -0.475345
    91  H    0.150807
    92  H    0.216820
    93  H    0.148577
    94  C   -0.445820
    95  H    0.157683
    96  H    0.164621
    97  H    0.124537
    98  N   -0.575928
    99  H    0.361068
   100  C   -0.104137
   101  H    0.142115
   102  C    0.590407
   103  C   -0.259409
   104  H    0.167193
   105  H    0.151087
   106  O   -0.575867
   107  C   -0.283671
   108  H    0.128979
   109  H    0.145318
   110  C   -0.294182
   111  H    0.134829
   112  H    0.177654
   113  C   -0.185882
   114  H    0.247643
   115  H    0.158644
   116  N   -0.805502
   117  H    0.442776
   118  H    0.450657
   119  H    0.373572
   120  O   -0.606183
   121  H    0.432104
 Sum of Mulliken charges =   1.00000

 Dipole moment (field-independent basis, Debye):
    X=            -23.7743    Y=            -14.8456    Z=            -29.5007  Tot=             40.6928
 Quadrupole moment (field-independent basis, Debye-Ang):
   XX=           -341.4491   YY=           -490.5914   ZZ=            -77.1330
   XY=           -108.8559   XZ=             59.4699   YZ=            -20.0809

 Normal termination of Gaussian 16 at Sat Jun 25 09:16:56 2022.
