 Gaussian 16, Revision C.01,
 Gaussian 16:  ES64L-G16RevC.01  3-Jul-2019

 ----------------------------------------------------------------------
 # B3LYP/6-31G* empiricaldispersion=gd3 guess=read geom=check nosymm in
 tegral(ultrafinegrid)
 ----------------------------------------------------------------------

 ------------------------------------------------------
 Candidate Structure: Conf:121 Charge calc in gas phase
 ------------------------------------------------------
 Structure from the checkpoint file:  "conf-121.chk"
 Charge =  1 Multiplicity = 1

                          Input orientation:
 ---------------------------------------------------------------------
 Center     Atomic      Atomic             Coordinates (Angstroms)
 Number     Number       Type             X           Y           Z
 ---------------------------------------------------------------------
      1          7           0       -4.536295   -3.663045   -7.129378
      2          1           0       -5.379093   -3.844322   -7.681098
      3          1           0       -3.795429   -4.297568   -7.439189
      4          1           0       -4.246011   -2.639811   -7.258748
      5          6           0       -4.771265   -3.706423   -5.630990
      6          1           0       -5.746461   -4.164514   -5.448830
      7          6           0       -4.742227   -2.204629   -5.250088
      8          6           0       -3.642431   -4.461559   -4.926873
      9          1           0       -3.828814   -4.469752   -3.850440
     10          1           0       -3.584004   -5.499429   -5.271349
     11          1           0       -2.686657   -3.950392   -5.075741
     12          8           0       -4.343635   -1.405840   -6.108695
     13          7           0       -5.089110   -1.890253   -4.006935
     14          1           0       -5.438803   -2.598610   -3.369209
     15          6           0       -4.666913   -0.634041   -3.404891
     16          1           0       -5.141612    0.192476   -3.941939
     17          6           0       -3.126790   -0.546141   -3.491748
     18          6           0       -5.063544   -0.618595   -1.895855
     19          1           0       -4.289202   -1.148334   -1.328914
     20          1           0       -5.034631    0.424358   -1.560109
     21          8           0       -2.444205   -1.558755   -3.662171
     22          6           0       -6.395544   -1.242245   -1.620571
     23          6           0       -6.614343   -2.375421   -0.869025
     24          1           0       -5.906480   -2.973693   -0.310196
     25          6           0       -7.683957   -0.813214   -2.106980
     26          6           0       -8.644726   -1.729927   -1.602277
     27          6           0       -8.115894    0.252963   -2.914997
     28          1           0       -7.405119    0.977051   -3.304849
     29          7           0       -7.960679   -2.675764   -0.859584
     30          1           0       -8.390615   -3.397298   -0.301058
     31          6           0      -10.407328   -0.543335   -2.678048
     32          1           0      -11.460904   -0.414644   -2.907638
     33          6           0      -10.010501   -1.608397   -1.878105
     34          1           0      -10.733383   -2.314024   -1.478467
     35          6           0       -9.470618    0.378416   -3.192123
     36          1           0       -9.819966    1.201989   -3.807730
     37          7           0       -2.612354    0.681019   -3.267502
     38          1           0       -3.236751    1.443079   -3.030883
     39          6           0       -1.202682    0.849939   -2.880195
     40          1           0       -0.616402    0.190244   -3.525475
     41          6           0       -1.091951    0.392814   -1.413172
     42          6           0       -0.737545    2.294386   -3.045668
     43          1           0       -0.847080    2.596617   -4.091665
     44          1           0       -1.370055    2.954826   -2.442290
     45          8           0       -1.326296    1.160155   -0.481480
     46          6           0        0.716802    2.448762   -2.596982
     47          1           0        0.797406    2.326761   -1.513141
     48          1           0        1.354185    1.675676   -3.045234
     49          6           0        1.293139    3.810444   -2.942760
     50          8           0        0.689539    4.663899   -3.558874
     51          8           0        2.543984    3.935532   -2.476532
     52          7           0       -0.773374   -0.914450   -1.234803
     53          1           0       -0.540050   -1.467556   -2.049039
     54          6           0       -0.469081   -1.463898    0.088395
     55          1           0       -1.062410   -0.886633    0.804845
     56          6           0        1.036461   -1.187059    0.309385
     57          6           0       -0.832943   -2.952533    0.181227
     58          1           0       -0.154810   -3.496580   -0.489970
     59          8           0        1.896505   -2.066209    0.165120
     60          6           0       -0.597631   -3.466238    1.608372
     61          1           0       -1.233812   -2.932053    2.325984
     62          1           0       -0.839034   -4.532508    1.677872
     63          1           0        0.446849   -3.337162    1.903619
     64          6           0       -2.284251   -3.195101   -0.264955
     65          1           0       -2.981273   -2.627201    0.366869
     66          1           0       -2.448810   -2.895198   -1.305882
     67          1           0       -2.536644   -4.257506   -0.166475
     68          7           0        1.330087    0.109428    0.538333
     69          1           0        0.588933    0.810793    0.548223
     70          6           0        2.675135    0.632774    0.435299
     71          1           0        3.327751    0.074149    1.116826
     72          6           0        2.604391    2.118775    0.808990
     73          6           0        3.285671    0.561007   -1.038448
     74          1           0        3.177720    1.546097   -1.503163
     75          8           0        1.545826    2.735747    0.745664
     76          6           0        4.773345    0.194237   -0.987974
     77          1           0        5.344849    0.940787   -0.424647
     78          1           0        4.908692   -0.787800   -0.518372
     79          1           0        5.161961    0.149311   -2.011308
     80          8           0        2.583223   -0.320905   -1.891943
     81          1           0        2.588336   -1.196279   -1.459889
     82          7           0        3.795987    2.705363    1.091346
     83          1           0        4.637299    2.144844    1.096670
     84          6           0        4.016338    4.129251    0.860297
     85          1           0        3.137718    4.493451    0.319553
     86          6           0        5.251820    4.261075   -0.044137
     87          6           0        4.170752    4.947755    2.169298
     88          1           0        4.352713    5.985029    1.855145
     89          8           0        6.167600    3.391569    0.075338
     90          6           0        2.863881    4.901588    2.971374
     91          1           0        2.643856    3.877924    3.293524
     92          1           0        2.013844    5.248973    2.375830
     93          1           0        2.943358    5.530184    3.865062
     94          6           0        5.361496    4.476494    3.014732
     95          1           0        5.217219    3.437711    3.336276
     96          1           0        5.453913    5.091613    3.915930
     97          1           0        6.306691    4.532318    2.464933
     98          7           0        5.249662    5.324279   -0.825834
     99          1           0        4.336272    5.779154   -0.980068
    100          6           0        6.081658    5.771602   -1.957153
    101          1           0        6.480479    6.759238   -1.685600
    102          6           0        5.050052    6.003019   -3.151426
    103          6           0        7.230498    4.869420   -2.372593
    104          1           0        7.510264    5.205191   -3.375673
    105          1           0        6.833978    3.856739   -2.510355
    106          8           0        5.515370    6.004588   -4.288767
    107          6           0        8.455904    4.918918   -1.443915
    108          1           0        8.923212    5.903583   -1.558149
    109          1           0        8.149398    4.844191   -0.393579
    110          6           0        9.504281    3.830204   -1.748964
    111          1           0        9.547631    3.638244   -2.830192
    112          1           0       10.507130    4.165804   -1.459760
    113          6           0        9.274907    2.518259   -1.000165
    114          1           0        9.343419    2.667134    0.081023
    115          1           0        9.991258    1.746747   -1.296284
    116          7           0        7.886434    1.976052   -1.240632
    117          1           0        7.754572    1.058018   -0.808082
    118          1           0        7.142689    2.643680   -0.805970
    119          1           0        7.691293    1.878046   -2.240457
    120          8           0        3.850260    6.171929   -2.743231
    121          1           0        2.930015    4.843136   -2.723065
 ---------------------------------------------------------------------

 SCF Done:  E(RB3LYP) =  -2843.79387799     A.U. after    2 cycles

 Alpha  occ. eigenvalues --  -19.26910 -19.21541 -19.20530 -19.20267 -19.18831
 Alpha  occ. eigenvalues --  -19.18443 -19.18286 -19.18054 -19.14460 -19.11388
 Alpha  occ. eigenvalues --  -19.10571 -14.60077 -14.53466 -14.49406 -14.46547
 Alpha  occ. eigenvalues --  -14.45565 -14.43247 -14.42126 -14.42084 -14.41778
 Alpha  occ. eigenvalues --  -10.43446 -10.41215 -10.38541 -10.36291 -10.35477
 Alpha  occ. eigenvalues --  -10.35276 -10.35190 -10.34528 -10.34467 -10.33277
 Alpha  occ. eigenvalues --  -10.32943 -10.31034 -10.30665 -10.30432 -10.30085
 Alpha  occ. eigenvalues --  -10.29835 -10.29805 -10.29791 -10.29316 -10.28850
 Alpha  occ. eigenvalues --  -10.28153 -10.27463 -10.26656 -10.26646 -10.26587
 Alpha  occ. eigenvalues --  -10.26517 -10.26277 -10.26077 -10.25700 -10.25575
 Alpha  occ. eigenvalues --  -10.25471 -10.25009 -10.24691 -10.24202 -10.24031
 Alpha  occ. eigenvalues --  -10.23503 -10.22530 -10.22460 -10.21503  -1.19516
 Alpha  occ. eigenvalues --   -1.14073  -1.13171  -1.11221  -1.10921  -1.10241
 Alpha  occ. eigenvalues --   -1.10034  -1.09666  -1.08343  -1.07625  -1.06582
 Alpha  occ. eigenvalues --   -1.06204  -1.04569  -1.01777  -1.01595  -0.99821
 Alpha  occ. eigenvalues --   -0.99035  -0.98790  -0.98229  -0.95766  -0.93534
 Alpha  occ. eigenvalues --   -0.91799  -0.90075  -0.88650  -0.87622  -0.86360
 Alpha  occ. eigenvalues --   -0.86284  -0.84665  -0.83781  -0.83436  -0.81505
 Alpha  occ. eigenvalues --   -0.81288  -0.80349  -0.79881  -0.78694  -0.77895
 Alpha  occ. eigenvalues --   -0.76553  -0.75689  -0.75100  -0.74657  -0.74179
 Alpha  occ. eigenvalues --   -0.73290  -0.73085  -0.72213  -0.71261  -0.70278
 Alpha  occ. eigenvalues --   -0.69517  -0.68958  -0.68279  -0.68217  -0.67593
 Alpha  occ. eigenvalues --   -0.67427  -0.66451  -0.65998  -0.65526  -0.65258
 Alpha  occ. eigenvalues --   -0.64459  -0.64166  -0.63971  -0.62899  -0.62578
 Alpha  occ. eigenvalues --   -0.62087  -0.61748  -0.61436  -0.61237  -0.60210
 Alpha  occ. eigenvalues --   -0.59785  -0.58994  -0.58381  -0.58116  -0.57443
 Alpha  occ. eigenvalues --   -0.56746  -0.56464  -0.55994  -0.55681  -0.55636
 Alpha  occ. eigenvalues --   -0.55047  -0.54856  -0.54214  -0.54062  -0.53625
 Alpha  occ. eigenvalues --   -0.53419  -0.53260  -0.52791  -0.52167  -0.52118
 Alpha  occ. eigenvalues --   -0.51967  -0.51740  -0.51641  -0.51278  -0.51038
 Alpha  occ. eigenvalues --   -0.50998  -0.50586  -0.50457  -0.50349  -0.49978
 Alpha  occ. eigenvalues --   -0.49910  -0.49704  -0.49629  -0.49340  -0.48831
 Alpha  occ. eigenvalues --   -0.48610  -0.48486  -0.48214  -0.48027  -0.47767
 Alpha  occ. eigenvalues --   -0.47672  -0.47332  -0.46344  -0.46132  -0.46061
 Alpha  occ. eigenvalues --   -0.45885  -0.45782  -0.45085  -0.45020  -0.44846
 Alpha  occ. eigenvalues --   -0.44549  -0.44487  -0.44140  -0.43659  -0.43320
 Alpha  occ. eigenvalues --   -0.43118  -0.43066  -0.42748  -0.42549  -0.42360
 Alpha  occ. eigenvalues --   -0.42128  -0.41540  -0.41465  -0.41263  -0.41220
 Alpha  occ. eigenvalues --   -0.40867  -0.40771  -0.40383  -0.40287  -0.39840
 Alpha  occ. eigenvalues --   -0.39782  -0.39648  -0.39472  -0.39401  -0.39135
 Alpha  occ. eigenvalues --   -0.38625  -0.38343  -0.38082  -0.37246  -0.36366
 Alpha  occ. eigenvalues --   -0.35865  -0.35079  -0.34855  -0.34278  -0.33621
 Alpha  occ. eigenvalues --   -0.33433  -0.32308  -0.32142  -0.31499  -0.31335
 Alpha  occ. eigenvalues --   -0.30857  -0.30517  -0.30372  -0.28886  -0.28225
 Alpha  occ. eigenvalues --   -0.26790  -0.26185  -0.24337
 Alpha virt. eigenvalues --   -0.12226  -0.11273  -0.09381  -0.07822  -0.06497
 Alpha virt. eigenvalues --   -0.06401  -0.06307  -0.05663  -0.05461  -0.04901
 Alpha virt. eigenvalues --   -0.03904  -0.03257  -0.02969  -0.01892  -0.01176

 Mulliken charges:
               1
     1  N   -0.755014
     2  H    0.416641
     3  H    0.415146
     4  H    0.437715
     5  C   -0.121409
     6  H    0.217047
     7  C    0.678862
     8  C   -0.472163
     9  H    0.208515
    10  H    0.182373
    11  H    0.220965
    12  O   -0.533038
    13  N   -0.586325
    14  H    0.347353
    15  C   -0.049366
    16  H    0.194596
    17  C    0.655352
    18  C   -0.413667
    19  H    0.188650
    20  H    0.187554
    21  O   -0.562306
    22  C    0.032609
    23  C   -0.018807
    24  H    0.169158
    25  C    0.099461
    26  C    0.306154
    27  C   -0.210180
    28  H    0.125888
    29  N   -0.684521
    30  H    0.341408
    31  C   -0.149277
    32  H    0.146465
    33  C   -0.160690
    34  H    0.141155
    35  C   -0.139461
    36  H    0.142538
    37  N   -0.597246
    38  H    0.348002
    39  C   -0.056584
    40  H    0.175820
    41  C    0.624640
    42  C   -0.273322
    43  H    0.170846
    44  H    0.169379
    45  O   -0.534153
    46  C   -0.413869
    47  H    0.207928
    48  H    0.179045
    49  C    0.600451
    50  O   -0.470731
    51  O   -0.645665
    52  N   -0.597175
    53  H    0.348447
    54  C   -0.052229
    55  H    0.180869
    56  C    0.632118
    57  C   -0.083757
    58  H    0.143836
    59  O   -0.575231
    60  C   -0.461224
    61  H    0.143106
    62  H    0.147585
    63  H    0.179870
    64  C   -0.475789
    65  H    0.143570
    66  H    0.152732
    67  H    0.141157
    68  N   -0.621208
    69  H    0.395989
    70  C   -0.057904
    71  H    0.164494
    72  C    0.603101
    73  C    0.132055
    74  H    0.190191
    75  O   -0.509151
    76  C   -0.502665
    77  H    0.116935
    78  H    0.164948
    79  H    0.153327
    80  O   -0.644248
    81  H    0.414801
    82  N   -0.604713
    83  H    0.344242
    84  C   -0.073713
    85  H    0.204658
    86  C    0.653835
    87  C   -0.072547
    88  H    0.143362
    89  O   -0.660159
    90  C   -0.445581
    91  H    0.153568
    92  H    0.166587
    93  H    0.148053
    94  C   -0.459840
    95  H    0.141480
    96  H    0.156611
    97  H    0.147107
    98  N   -0.585337
    99  H    0.371893
   100  C   -0.087785
   101  H    0.169996
   102  C    0.613503
   103  C   -0.276522
   104  H    0.200791
   105  H    0.092865
   106  O   -0.526564
   107  C   -0.291253
   108  H    0.166695
   109  H    0.157525
   110  C   -0.285758
   111  H    0.164014
   112  H    0.179777
   113  C   -0.186996
   114  H    0.206548
   115  H    0.192224
   116  N   -0.780719
   117  H    0.395142
   118  H    0.483412
   119  H    0.395722
   120  O   -0.630880
   121  H    0.466291
 Sum of Mulliken charges =   1.00000

 Dipole moment (field-independent basis, Debye):
    X=             -7.5094    Y=            -23.1317    Z=            -16.0140  Tot=             29.1189
 Quadrupole moment (field-independent basis, Debye-Ang):
   XX=            -25.5713   YY=           -333.9039   ZZ=           -229.4755
   XY=            102.3097   XZ=            120.6657   YZ=            144.7809

 Normal termination of Gaussian 16 at Sat Jun 25 08:34:22 2022.
