 Gaussian 16, Revision C.01,
 Gaussian 16:  ES64L-G16RevC.01  3-Jul-2019

 ----------------------------------------------------------------------
 # B3LYP/6-31G* empiricaldispersion=gd3 guess=read geom=check nosymm in
 tegral(ultrafinegrid)
 ----------------------------------------------------------------------

 -----------------------------------------------------
 Candidate Structure: Conf:60 Charge calc in gas phase
 -----------------------------------------------------
 Structure from the checkpoint file:  "conf-60.chk"
 Charge =  1 Multiplicity = 1

                          Input orientation:
 ---------------------------------------------------------------------
 Center     Atomic      Atomic             Coordinates (Angstroms)
 Number     Number       Type             X           Y           Z
 ---------------------------------------------------------------------
      1          7           0       -4.032000    2.075148   -9.788026
      2          1           0       -4.943814    2.082149   -9.263874
      3          1           0       -4.198508    2.135413  -10.795869
      4          1           0       -3.504974    2.904336   -9.445424
      5          6           0       -3.173016    0.890103   -9.392194
      6          1           0       -3.825639    0.015064   -9.350386
      7          6           0       -2.677145    1.324335   -7.993582
      8          6           0       -2.028567    0.710052  -10.384548
      9          1           0       -1.407428   -0.134108  -10.071565
     10          1           0       -2.399568    0.498142  -11.393241
     11          1           0       -1.397409    1.604259  -10.406421
     12          8           0       -2.418809    2.520813   -7.844027
     13          7           0       -2.614088    0.390627   -7.038197
     14          1           0       -2.796068   -0.592279   -7.219869
     15          6           0       -2.602156    0.748369   -5.626901
     16          1           0       -2.029298    1.670822   -5.514779
     17          6           0       -1.975950   -0.430688   -4.870573
     18          6           0       -4.071409    0.946459   -5.106908
     19          1           0       -4.509921   -0.048863   -4.972107
     20          1           0       -4.018528    1.413778   -4.117286
     21          8           0       -2.098606   -1.573768   -5.324569
     22          6           0       -4.927636    1.746404   -6.040487
     23          6           0       -5.772876    1.230504   -6.977124
     24          1           0       -6.067875    0.202938   -7.145514
     25          6           0       -4.916844    3.186513   -6.228254
     26          6           0       -5.778026    3.477813   -7.307388
     27          6           0       -4.240582    4.233192   -5.587705
     28          1           0       -3.559315    4.033261   -4.766001
     29          7           0       -6.246496    2.249967   -7.839397
     30          1           0       -7.202679    2.198266   -8.180262
     31          6           0       -5.339194    5.804893   -7.091911
     32          1           0       -5.500307    6.832495   -7.403087
     33          6           0       -6.005321    4.777069   -7.758052
     34          1           0       -6.682998    4.985729   -8.581724
     35          6           0       -4.462966    5.534755   -6.024008
     36          1           0       -3.953921    6.359146   -5.534424
     37          7           0       -1.389429   -0.120312   -3.710054
     38          1           0       -1.315252    0.837013   -3.369601
     39          6           0       -0.857363   -1.102513   -2.779666
     40          1           0       -1.623308   -1.865976   -2.600573
     41          6           0       -0.625636   -0.330420   -1.464898
     42          6           0        0.437975   -1.791658   -3.308038
     43          1           0        0.799687   -1.207516   -4.157550
     44          1           0        1.217804   -1.746438   -2.542737
     45          8           0       -0.826460    0.891928   -1.413676
     46          6           0        0.217755   -3.242788   -3.737102
     47          1           0       -0.617938   -3.309046   -4.443583
     48          1           0        1.097040   -3.640172   -4.258473
     49          6           0       -0.071755   -4.158312   -2.570580
     50          8           0       -0.180937   -3.814969   -1.404100
     51          8           0       -0.209124   -5.437153   -2.954720
     52          7           0       -0.187486   -1.065738   -0.432792
     53          1           0       -0.033619   -2.061668   -0.585803
     54          6           0        0.219749   -0.472200    0.849616
     55          1           0       -0.437067    0.388905    1.019683
     56          6           0        1.673250    0.037488    0.670417
     57          6           0        0.071126   -1.475078    2.005186
     58          1           0        0.834080   -2.251862    1.863827
     59          8           0        2.644551   -0.489580    1.217399
     60          6           0        0.343686   -0.778169    3.346655
     61          1           0       -0.377885    0.030872    3.519991
     62          1           0        0.244056   -1.492808    4.170446
     63          1           0        1.352295   -0.361324    3.383322
     64          6           0       -1.320690   -2.125664    2.005885
     65          1           0       -2.107795   -1.364921    2.085309
     66          1           0       -1.509671   -2.713712    1.102039
     67          1           0       -1.418775   -2.797324    2.865313
     68          7           0        1.785279    1.066510   -0.203515
     69          1           0        0.942614    1.401917   -0.663075
     70          6           0        3.070310    1.428772   -0.790268
     71          1           0        3.703858    0.532021   -0.762105
     72          6           0        3.735437    2.523095    0.059703
     73          6           0        2.889455    1.864129   -2.255511
     74          1           0        2.271735    2.766827   -2.276296
     75          8           0        3.742416    3.705721   -0.287642
     76          6           0        4.222711    2.136350   -2.945770
     77          1           0        4.757226    2.970573   -2.484362
     78          1           0        4.866308    1.245315   -2.901539
     79          1           0        4.044867    2.375751   -3.998575
     80          8           0        2.127358    0.867323   -2.961697
     81          1           0        2.722454    0.114189   -3.106919
     82          7           0        4.298433    2.071351    1.202680
     83          1           0        4.195415    1.087351    1.433342
     84          6           0        4.973881    2.972004    2.142826
     85          1           0        4.494414    3.951431    2.029382
     86          6           0        6.450255    3.083533    1.683892
     87          6           0        4.833137    2.492387    3.596407
     88          1           0        5.422953    1.571551    3.696467
     89          8           0        7.385620    2.593512    2.315290
     90          6           0        5.419387    3.537567    4.557437
     91          1           0        4.874548    4.487612    4.477399
     92          1           0        6.475764    3.718596    4.347137
     93          1           0        5.332169    3.191769    5.593320
     94          6           0        3.366440    2.198228    3.946782
     95          1           0        2.746201    3.093668    3.811250
     96          1           0        3.283719    1.889804    4.994796
     97          1           0        2.941814    1.400666    3.329409
     98          7           0        6.611262    3.706305    0.490569
     99          1           0        5.804856    4.044912   -0.032174
    100          6           0        7.893768    3.708877   -0.184957
    101          1           0        8.618764    4.248722    0.435613
    102          6           0        7.735082    4.457153   -1.512160
    103          6           0        8.454977    2.268864   -0.458821
    104          1           0        8.676737    2.163975   -1.527680
    105          1           0        7.641458    1.568728   -0.253437
    106          8           0        8.876543    4.868817   -2.060984
    107          6           0        9.701083    1.904731    0.380838
    108          1           0        9.844461    2.669666    1.150730
    109          1           0        9.507482    0.986756    0.945038
    110          6           0       11.004214    1.702868   -0.416462
    111          1           0       11.827221    1.573744    0.300501
    112          1           0       10.950250    0.765920   -0.986694
    113          6           0       11.381101    2.810018   -1.410856
    114          1           0       10.744436    2.756461   -2.301947
    115          1           0       12.413165    2.641386   -1.748192
    116          7           0       11.204183    4.169751   -0.844339
    117          1           0       11.827256    4.828635   -1.309799
    118          1           0        9.670335    4.676913   -1.464146
    119          1           0       11.456367    4.184475    0.142772
    120          8           0        6.659100    4.620174   -2.052562
    121          1           0       -0.391533   -5.965532   -2.153765
 ---------------------------------------------------------------------

 SCF Done:  E(RB3LYP) =  -2843.83145867     A.U. after    2 cycles

 Alpha  occ. eigenvalues --  -19.27984 -19.25402 -19.23108 -19.21553 -19.21106
 Alpha  occ. eigenvalues --  -19.20201 -19.20090 -19.17978 -19.16260 -19.15865
 Alpha  occ. eigenvalues --  -19.14626 -14.58804 -14.49892 -14.48954 -14.45242
 Alpha  occ. eigenvalues --  -14.43336 -14.41356 -14.40358 -14.39523 -14.38256
 Alpha  occ. eigenvalues --  -10.42717 -10.40942 -10.40389 -10.38719 -10.37036
 Alpha  occ. eigenvalues --  -10.34757 -10.34664 -10.34205 -10.33332 -10.33289
 Alpha  occ. eigenvalues --  -10.33045 -10.32843 -10.32215 -10.31528 -10.30706
 Alpha  occ. eigenvalues --  -10.30323 -10.29531 -10.29523 -10.29384 -10.29295
 Alpha  occ. eigenvalues --  -10.28623 -10.28564 -10.28450 -10.27988 -10.27955
 Alpha  occ. eigenvalues --  -10.27679 -10.26878 -10.26558 -10.26502 -10.24919
 Alpha  occ. eigenvalues --  -10.23132 -10.22807 -10.22795 -10.22708 -10.22099
 Alpha  occ. eigenvalues --  -10.22051 -10.21997 -10.20872 -10.20102  -1.19224
 Alpha  occ. eigenvalues --   -1.18195  -1.13610  -1.12916  -1.11955  -1.11618
 Alpha  occ. eigenvalues --   -1.10151  -1.09660  -1.08725  -1.08303  -1.07907
 Alpha  occ. eigenvalues --   -1.06319  -1.05608  -1.03559  -1.02000  -1.00271
 Alpha  occ. eigenvalues --   -0.98030  -0.96808  -0.95156  -0.94951  -0.94399
 Alpha  occ. eigenvalues --   -0.92887  -0.91429  -0.89139  -0.86781  -0.86331
 Alpha  occ. eigenvalues --   -0.84396  -0.83840  -0.83524  -0.83023  -0.82731
 Alpha  occ. eigenvalues --   -0.81869  -0.80475  -0.79261  -0.77944  -0.77094
 Alpha  occ. eigenvalues --   -0.75741  -0.74419  -0.73763  -0.73386  -0.73294
 Alpha  occ. eigenvalues --   -0.72431  -0.72289  -0.71637  -0.71385  -0.71159
 Alpha  occ. eigenvalues --   -0.69764  -0.68613  -0.67980  -0.67369  -0.67243
 Alpha  occ. eigenvalues --   -0.66666  -0.66291  -0.65650  -0.64222  -0.64000
 Alpha  occ. eigenvalues --   -0.63837  -0.63410  -0.62687  -0.62471  -0.61429
 Alpha  occ. eigenvalues --   -0.61061  -0.60818  -0.60640  -0.59500  -0.59159
 Alpha  occ. eigenvalues --   -0.58546  -0.58445  -0.58252  -0.57993  -0.57570
 Alpha  occ. eigenvalues --   -0.57276  -0.56712  -0.56178  -0.55959  -0.55830
 Alpha  occ. eigenvalues --   -0.55752  -0.55363  -0.55080  -0.54508  -0.53856
 Alpha  occ. eigenvalues --   -0.53656  -0.53448  -0.53364  -0.52846  -0.52776
 Alpha  occ. eigenvalues --   -0.52187  -0.52020  -0.51610  -0.51444  -0.51128
 Alpha  occ. eigenvalues --   -0.51055  -0.50472  -0.50245  -0.50091  -0.49920
 Alpha  occ. eigenvalues --   -0.49856  -0.49364  -0.49260  -0.48903  -0.48465
 Alpha  occ. eigenvalues --   -0.48254  -0.47969  -0.47884  -0.47493  -0.47355
 Alpha  occ. eigenvalues --   -0.46816  -0.46744  -0.46606  -0.46187  -0.46019
 Alpha  occ. eigenvalues --   -0.45717  -0.45231  -0.45170  -0.44886  -0.44498
 Alpha  occ. eigenvalues --   -0.44245  -0.44053  -0.43952  -0.43707  -0.43605
 Alpha  occ. eigenvalues --   -0.43358  -0.43138  -0.42791  -0.42710  -0.42361
 Alpha  occ. eigenvalues --   -0.42269  -0.41912  -0.41645  -0.41296  -0.41040
 Alpha  occ. eigenvalues --   -0.40498  -0.40100  -0.39973  -0.39665  -0.39375
 Alpha  occ. eigenvalues --   -0.39153  -0.38949  -0.38470  -0.38374  -0.37743
 Alpha  occ. eigenvalues --   -0.37543  -0.37376  -0.36913  -0.36694  -0.36610
 Alpha  occ. eigenvalues --   -0.36461  -0.36218  -0.35763  -0.35103  -0.34572
 Alpha  occ. eigenvalues --   -0.34100  -0.33647  -0.33388  -0.33251  -0.32837
 Alpha  occ. eigenvalues --   -0.31978  -0.31889  -0.31308  -0.30631  -0.29547
 Alpha  occ. eigenvalues --   -0.28969  -0.28217  -0.27265
 Alpha virt. eigenvalues --   -0.12481  -0.12107  -0.09385  -0.08799  -0.07924
 Alpha virt. eigenvalues --   -0.07645  -0.06507  -0.05141  -0.04315  -0.03886
 Alpha virt. eigenvalues --   -0.03404  -0.02906  -0.01764  -0.01584  -0.01253

 Mulliken charges:
               1
     1  N   -0.764538
     2  H    0.440907
     3  H    0.400688
     4  H    0.424295
     5  C   -0.108927
     6  H    0.197083
     7  C    0.658133
     8  C   -0.469123
     9  H    0.211328
    10  H    0.183382
    11  H    0.202904
    12  O   -0.522944
    13  N   -0.595037
    14  H    0.356341
    15  C   -0.071995
    16  H    0.203699
    17  C    0.641276
    18  C   -0.368581
    19  H    0.176995
    20  H    0.187337
    21  O   -0.554216
    22  C    0.109783
    23  C   -0.079391
    24  H    0.166063
    25  C    0.143421
    26  C    0.217732
    27  C   -0.187939
    28  H    0.147337
    29  N   -0.722241
    30  H    0.357040
    31  C   -0.142016
    32  H    0.157939
    33  C   -0.188881
    34  H    0.143069
    35  C   -0.132999
    36  H    0.159063
    37  N   -0.622973
    38  H    0.368866
    39  C   -0.020622
    40  H    0.187900
    41  C    0.616684
    42  C   -0.283378
    43  H    0.174763
    44  H    0.166008
    45  O   -0.571236
    46  C   -0.379269
    47  H    0.225128
    48  H    0.189898
    49  C    0.595139
    50  O   -0.484361
    51  O   -0.547972
    52  N   -0.637210
    53  H    0.401318
    54  C   -0.050111
    55  H    0.180078
    56  C    0.626756
    57  C   -0.095600
    58  H    0.153489
    59  O   -0.546943
    60  C   -0.471502
    61  H    0.140655
    62  H    0.153841
    63  H    0.187288
    64  C   -0.452600
    65  H    0.143433
    66  H    0.146479
    67  H    0.156256
    68  N   -0.611261
    69  H    0.382395
    70  C   -0.073849
    71  H    0.154555
    72  C    0.645382
    73  C    0.110748
    74  H    0.167383
    75  O   -0.543328
    76  C   -0.498557
    77  H    0.230116
    78  H    0.122843
    79  H    0.156811
    80  O   -0.638905
    81  H    0.384982
    82  N   -0.623545
    83  H    0.366771
    84  C   -0.046889
    85  H    0.176186
    86  C    0.624723
    87  C   -0.091205
    88  H    0.147845
    89  O   -0.537645
    90  C   -0.459991
    91  H    0.136299
    92  H    0.177725
    93  H    0.145528
    94  C   -0.465367
    95  H    0.141901
    96  H    0.148761
    97  H    0.154851
    98  N   -0.652833
    99  H    0.389090
   100  C   -0.022762
   101  H    0.164002
   102  C    0.572138
   103  C   -0.285001
   104  H    0.149572
   105  H    0.160061
   106  O   -0.620442
   107  C   -0.251177
   108  H    0.152911
   109  H    0.156274
   110  C   -0.294914
   111  H    0.142062
   112  H    0.146552
   113  C   -0.134480
   114  H    0.159534
   115  H    0.146856
   116  N   -0.783169
   117  H    0.333741
   118  H    0.475894
   119  H    0.329507
   120  O   -0.470076
   121  H    0.424210
 Sum of Mulliken charges =   1.00000

 Dipole moment (field-independent basis, Debye):
    X=            -13.0807    Y=              1.3299    Z=            -37.9474  Tot=             40.1606
 Quadrupole moment (field-independent basis, Debye-Ang):
   XX=           -155.3376   YY=           -319.4412   ZZ=             16.5370
   XY=            -27.1968   XZ=            163.0870   YZ=            -46.0525

 Normal termination of Gaussian 16 at Sat Jun 25 08:59:29 2022.
