 Gaussian 16, Revision C.01,
 Gaussian 16:  ES64L-G16RevC.01  3-Jul-2019

 ----------------------------------------------------------------------
 # B3LYP/6-31G* empiricaldispersion=gd3 guess=read geom=check nosymm in
 tegral(ultrafinegrid)
 ----------------------------------------------------------------------

 ------------------------------------------------------
 Candidate Structure: Conf:448 Charge calc in gas phase
 ------------------------------------------------------
 Structure from the checkpoint file:  "conf-448.chk"
 Charge =  1 Multiplicity = 1

                          Input orientation:
 ---------------------------------------------------------------------
 Center     Atomic      Atomic             Coordinates (Angstroms)
 Number     Number       Type             X           Y           Z
 ---------------------------------------------------------------------
      1          7           0       -6.028024   -2.385668   -6.786725
      2          1           0       -6.244543   -1.383483   -6.673463
      3          1           0       -6.514518   -2.781874   -7.594297
      4          1           0       -4.979464   -2.453950   -6.907519
      5          6           0       -6.394504   -3.063791   -5.485101
      6          1           0       -7.487267   -3.030367   -5.413079
      7          6           0       -5.821348   -2.095140   -4.424088
      8          6           0       -5.890479   -4.502524   -5.469825
      9          1           0       -6.235019   -5.015319   -4.565663
     10          1           0       -6.292264   -5.060884   -6.322070
     11          1           0       -4.798204   -4.533611   -5.509188
     12          8           0       -5.750941   -0.892014   -4.717334
     13          7           0       -5.444465   -2.624811   -3.261108
     14          1           0       -5.580402   -3.614551   -3.093143
     15          6           0       -4.889685   -1.820932   -2.158733
     16          1           0       -5.427022   -0.867423   -2.164861
     17          6           0       -3.389759   -1.602682   -2.470898
     18          6           0       -5.079942   -2.535750   -0.804348
     19          1           0       -4.303869   -3.303156   -0.716461
     20          1           0       -4.871137   -1.801838   -0.018942
     21          8           0       -2.524155   -2.350740   -2.027581
     22          6           0       -6.442905   -3.140397   -0.647705
     23          6           0       -7.579119   -2.561249   -0.137901
     24          1           0       -7.710412   -1.593535    0.327087
     25          6           0       -6.831937   -4.442564   -1.129849
     26          6           0       -8.228134   -4.581350   -0.896114
     27          6           0       -6.134475   -5.500049   -1.747096
     28          1           0       -5.054054   -5.451478   -1.876973
     29          7           0       -8.652255   -3.418005   -0.288182
     30          1           0       -9.580209   -3.253266    0.071587
     31          6           0       -8.225508   -6.746579   -1.899439
     32          1           0       -8.746543   -7.650751   -2.199474
     33          6           0       -8.935441   -5.727421   -1.272672
     34          1           0      -10.000821   -5.821175   -1.081882
     35          6           0       -6.838264   -6.637883   -2.132207
     36          1           0       -6.309291   -7.468459   -2.590966
     37          7           0       -3.134029   -0.585349   -3.332512
     38          1           0       -3.893509    0.027288   -3.602046
     39          6           0       -1.772109   -0.267322   -3.770969
     40          1           0       -1.221472   -1.210691   -3.746782
     41          6           0       -1.153045    0.721647   -2.753064
     42          6           0       -1.759143    0.320436   -5.184644
     43          1           0       -2.072653    1.367702   -5.134987
     44          1           0       -0.723044    0.325491   -5.535080
     45          8           0       -1.132060    1.930512   -2.964892
     46          6           0       -2.657102   -0.416205   -6.193204
     47          1           0       -3.717106   -0.262501   -5.975649
     48          1           0       -2.474416   -0.007139   -7.196991
     49          6           0       -2.455454   -1.905861   -6.302512
     50          8           0       -3.334771   -2.714888   -6.607172
     51          8           0       -1.207489   -2.301950   -6.072435
     52          7           0       -0.727386    0.123716   -1.618357
     53          1           0       -0.796659   -0.884284   -1.510063
     54          6           0       -0.260225    0.861280   -0.454051
     55          1           0        0.052987    1.851076   -0.799982
     56          6           0        0.915214    0.061360    0.122770
     57          6           0       -1.371689    1.020237    0.626013
     58          1           0       -1.587962    0.008975    0.999573
     59          8           0        0.872650   -1.166028    0.152317
     60          6           0       -0.889274    1.889166    1.798136
     61          1           0       -0.629236    2.898441    1.453814
     62          1           0       -1.683215    1.991243    2.545705
     63          1           0       -0.010329    1.479263    2.303051
     64          6           0       -2.655656    1.602809    0.017940
     65          1           0       -2.466005    2.579127   -0.441342
     66          1           0       -3.069924    0.947293   -0.755515
     67          1           0       -3.416773    1.731129    0.796001
     68          7           0        1.959179    0.795281    0.592275
     69          1           0        1.817296    1.788363    0.770591
     70          6           0        2.953141    0.215428    1.486726
     71          1           0        2.554901   -0.721309    1.893478
     72          6           0        3.165278    1.243227    2.615934
     73          6           0        4.281389   -0.077976    0.742900
     74          1           0        5.009016   -0.448032    1.474627
     75          8           0        2.663286    2.367513    2.551624
     76          6           0        4.106774   -1.114168   -0.365832
     77          1           0        3.712329   -2.056923    0.025902
     78          1           0        3.401026   -0.751765   -1.121420
     79          1           0        5.071985   -1.295966   -0.847740
     80          8           0        4.844350    1.132791    0.253561
     81          1           0        4.209145    1.498995   -0.384613
     82          7           0        3.910051    0.808899    3.651225
     83          1           0        4.378300   -0.090982    3.616767
     84          6           0        4.393275    1.679974    4.715251
     85          1           0        4.316434    2.712657    4.358223
     86          6           0        5.859216    1.269947    4.936842
     87          6           0        3.558491    1.531477    6.018532
     88          1           0        3.700293    0.498619    6.367325
     89          8           0        6.201952    0.093231    4.799885
     90          6           0        4.050130    2.491660    7.112105
     91          1           0        3.975511    3.535017    6.777085
     92          1           0        5.088298    2.302192    7.399189
     93          1           0        3.431424    2.391046    8.010081
     94          6           0        2.066327    1.755108    5.735065
     95          1           0        1.891547    2.755884    5.324752
     96          1           0        1.487466    1.654506    6.660059
     97          1           0        1.680457    1.028624    5.014066
     98          7           0        6.707682    2.252357    5.301652
     99          1           0        6.403351    3.216817    5.367163
    100          6           0        8.109694    2.008446    5.598883
    101          1           0        8.197880    1.068128    6.147362
    102          6           0        8.631185    3.148220    6.456198
    103          6           0        8.958969    1.917346    4.288479
    104          1           0        8.537211    2.637628    3.576809
    105          1           0        8.773154    0.921914    3.874139
    106          8           0        9.655016    2.767393    7.208487
    107          6           0       10.473830    2.178223    4.446032
    108          1           0       10.819285    1.756932    5.394792
    109          1           0       11.003437    1.631131    3.657765
    110          6           0       10.858019    3.682960    4.346961
    111          1           0       11.179710    3.890966    3.319741
    112          1           0        9.974001    4.312380    4.505457
    113          6           0       11.966301    4.170221    5.300987
    114          1           0       12.530659    4.983742    4.823092
    115          1           0       12.678525    3.362233    5.503404
    116          7           0       11.417576    4.618389    6.608191
    117          1           0       12.171986    4.905219    7.230417
    118          1           0       10.822232    5.435453    6.467929
    119          1           0       10.334093    3.541376    7.234502
    120          8           0        8.217619    4.293533    6.347584
    121          1           0       -1.158371   -3.271767   -6.183749
 ---------------------------------------------------------------------

 SCF Done:  E(RB3LYP) =  -2843.83949899     A.U. after    2 cycles

 Alpha  occ. eigenvalues --  -19.32745 -19.28218 -19.25933 -19.21586 -19.19817
 Alpha  occ. eigenvalues --  -19.18789 -19.18134 -19.17430 -19.16881 -19.16715
 Alpha  occ. eigenvalues --  -19.15763 -14.58216 -14.49612 -14.46812 -14.46094
 Alpha  occ. eigenvalues --  -14.42091 -14.41276 -14.40545 -14.40279 -14.39231
 Alpha  occ. eigenvalues --  -10.45854 -10.43108 -10.40167 -10.38692 -10.35437
 Alpha  occ. eigenvalues --  -10.34691 -10.34484 -10.34355 -10.33740 -10.32916
 Alpha  occ. eigenvalues --  -10.32360 -10.31924 -10.31444 -10.30859 -10.30789
 Alpha  occ. eigenvalues --  -10.28900 -10.28783 -10.28750 -10.28748 -10.28035
 Alpha  occ. eigenvalues --  -10.27825 -10.27746 -10.27523 -10.27410 -10.27249
 Alpha  occ. eigenvalues --  -10.27190 -10.27120 -10.27017 -10.26436 -10.25415
 Alpha  occ. eigenvalues --  -10.23596 -10.23326 -10.22662 -10.22651 -10.22628
 Alpha  occ. eigenvalues --  -10.22132 -10.21786 -10.21339 -10.20930  -1.24166
 Alpha  occ. eigenvalues --   -1.18236  -1.14916  -1.13624  -1.12602  -1.12151
 Alpha  occ. eigenvalues --   -1.10187  -1.09450  -1.08552  -1.07587  -1.06761
 Alpha  occ. eigenvalues --   -1.06365  -1.06058  -1.03644  -1.02347  -0.98739
 Alpha  occ. eigenvalues --   -0.97799  -0.97216  -0.96696  -0.94693  -0.92887
 Alpha  occ. eigenvalues --   -0.92556  -0.90905  -0.89666  -0.86696  -0.85903
 Alpha  occ. eigenvalues --   -0.85039  -0.83627  -0.83343  -0.82413  -0.81985
 Alpha  occ. eigenvalues --   -0.81110  -0.80001  -0.79365  -0.78043  -0.76799
 Alpha  occ. eigenvalues --   -0.76420  -0.75308  -0.74246  -0.73890  -0.73248
 Alpha  occ. eigenvalues --   -0.72920  -0.72609  -0.72018  -0.71216  -0.70997
 Alpha  occ. eigenvalues --   -0.70363  -0.68770  -0.67887  -0.66810  -0.66568
 Alpha  occ. eigenvalues --   -0.66198  -0.65298  -0.64938  -0.64219  -0.64016
 Alpha  occ. eigenvalues --   -0.63703  -0.63435  -0.63141  -0.62714  -0.62362
 Alpha  occ. eigenvalues --   -0.61898  -0.61643  -0.61418  -0.61076  -0.60755
 Alpha  occ. eigenvalues --   -0.59940  -0.59443  -0.58977  -0.57606  -0.57206
 Alpha  occ. eigenvalues --   -0.57160  -0.56236  -0.55828  -0.55597  -0.55151
 Alpha  occ. eigenvalues --   -0.54826  -0.54578  -0.53935  -0.53772  -0.53381
 Alpha  occ. eigenvalues --   -0.53219  -0.53134  -0.52809  -0.52504  -0.52235
 Alpha  occ. eigenvalues --   -0.52175  -0.52013  -0.51823  -0.51509  -0.51178
 Alpha  occ. eigenvalues --   -0.50899  -0.50698  -0.50574  -0.50453  -0.49832
 Alpha  occ. eigenvalues --   -0.49522  -0.49388  -0.49343  -0.49079  -0.48852
 Alpha  occ. eigenvalues --   -0.48689  -0.48567  -0.48071  -0.47499  -0.47339
 Alpha  occ. eigenvalues --   -0.47182  -0.46767  -0.46455  -0.45903  -0.45685
 Alpha  occ. eigenvalues --   -0.45599  -0.45419  -0.45376  -0.45214  -0.45100
 Alpha  occ. eigenvalues --   -0.44748  -0.44393  -0.44203  -0.43974  -0.43935
 Alpha  occ. eigenvalues --   -0.43850  -0.43333  -0.43249  -0.42983  -0.42461
 Alpha  occ. eigenvalues --   -0.42380  -0.42156  -0.41890  -0.41511  -0.41418
 Alpha  occ. eigenvalues --   -0.41249  -0.41008  -0.40480  -0.40379  -0.40046
 Alpha  occ. eigenvalues --   -0.39930  -0.39857  -0.39420  -0.38844  -0.38310
 Alpha  occ. eigenvalues --   -0.37601  -0.37565  -0.37274  -0.37219  -0.36917
 Alpha  occ. eigenvalues --   -0.36718  -0.36433  -0.36376  -0.34890  -0.33283
 Alpha  occ. eigenvalues --   -0.32924  -0.32295  -0.31513  -0.31471  -0.31281
 Alpha  occ. eigenvalues --   -0.31212  -0.31102  -0.30686  -0.30465  -0.29773
 Alpha  occ. eigenvalues --   -0.29234  -0.29212  -0.28716
 Alpha virt. eigenvalues --   -0.12647  -0.12483  -0.10390  -0.08711  -0.07972
 Alpha virt. eigenvalues --   -0.06737  -0.04861  -0.04076  -0.03566  -0.03239
 Alpha virt. eigenvalues --   -0.03042  -0.02970  -0.02585  -0.02278  -0.01111

 Mulliken charges:
               1
     1  N   -0.759645
     2  H    0.414749
     3  H    0.402353
     4  H    0.445499
     5  C   -0.122798
     6  H    0.229593
     7  C    0.664652
     8  C   -0.501662
     9  H    0.212480
    10  H    0.181488
    11  H    0.205199
    12  O   -0.559072
    13  N   -0.610099
    14  H    0.374801
    15  C   -0.054613
    16  H    0.184980
    17  C    0.632335
    18  C   -0.406064
    19  H    0.203435
    20  H    0.183139
    21  O   -0.517355
    22  C    0.066874
    23  C    0.007438
    24  H    0.169862
    25  C    0.063469
    26  C    0.317620
    27  C   -0.267607
    28  H    0.147695
    29  N   -0.687188
    30  H    0.343907
    31  C   -0.155631
    32  H    0.147779
    33  C   -0.157357
    34  H    0.147199
    35  C   -0.143673
    36  H    0.141798
    37  N   -0.612771
    38  H    0.357764
    39  C   -0.075129
    40  H    0.191048
    41  C    0.632836
    42  C   -0.295955
    43  H    0.197385
    44  H    0.186868
    45  O   -0.528378
    46  C   -0.393688
    47  H    0.181908
    48  H    0.206151
    49  C    0.638170
    50  O   -0.535718
    51  O   -0.519120
    52  N   -0.615865
    53  H    0.369425
    54  C   -0.051962
    55  H    0.174934
    56  C    0.614550
    57  C   -0.074581
    58  H    0.140701
    59  O   -0.536592
    60  C   -0.469073
    61  H    0.153965
    62  H    0.151598
    63  H    0.167918
    64  C   -0.451996
    65  H    0.169424
    66  H    0.121164
    67  H    0.143566
    68  N   -0.623769
    69  H    0.361401
    70  C   -0.093577
    71  H    0.181407
    72  C    0.647635
    73  C    0.133160
    74  H    0.151226
    75  O   -0.550912
    76  C   -0.454035
    77  H    0.159063
    78  H    0.144884
    79  H    0.160187
    80  O   -0.619396
    81  H    0.391740
    82  N   -0.612753
    83  H    0.353687
    84  C   -0.048028
    85  H    0.170368
    86  C    0.623535
    87  C   -0.070126
    88  H    0.140355
    89  O   -0.551749
    90  C   -0.464965
    91  H    0.144142
    92  H    0.160184
    93  H    0.154501
    94  C   -0.444875
    95  H    0.159618
    96  H    0.143383
    97  H    0.145891
    98  N   -0.613027
    99  H    0.349717
   100  C   -0.004066
   101  H    0.188690
   102  C    0.571855
   103  C   -0.282145
   104  H    0.149934
   105  H    0.173587
   106  O   -0.600739
   107  C   -0.285871
   108  H    0.169193
   109  H    0.143855
   110  C   -0.291267
   111  H    0.148471
   112  H    0.163378
   113  C   -0.140569
   114  H    0.144123
   115  H    0.161787
   116  N   -0.777185
   117  H    0.330369
   118  H    0.340757
   119  H    0.455672
   120  O   -0.507582
   121  H    0.434756
 Sum of Mulliken charges =   1.00000

 Dipole moment (field-independent basis, Debye):
    X=            -20.9308    Y=             -9.5969    Z=            -20.7868  Tot=             31.0208
 Quadrupole moment (field-independent basis, Debye-Ang):
   XX=            -30.5736   YY=           -291.7265   ZZ=           -161.6133
   XY=            132.1862   XZ=            168.0861   YZ=             94.2058

 Normal termination of Gaussian 16 at Sat Jun 25 08:58:59 2022.
