 Gaussian 16, Revision C.01,
 Gaussian 16:  ES64L-G16RevC.01  3-Jul-2019

 ----------------------------------------------------------------------
 # B3LYP/6-31G* empiricaldispersion=gd3 guess=read geom=check nosymm in
 tegral(ultrafinegrid)
 ----------------------------------------------------------------------

 ------------------------------------------------------
 Candidate Structure: Conf:962 Charge calc in gas phase
 ------------------------------------------------------
 Structure from the checkpoint file:  "conf-962.chk"
 Charge =  1 Multiplicity = 1

                          Input orientation:
 ---------------------------------------------------------------------
 Center     Atomic      Atomic             Coordinates (Angstroms)
 Number     Number       Type             X           Y           Z
 ---------------------------------------------------------------------
      1          7           0       -6.514579   -1.181108   -7.089617
      2          1           0       -7.427636   -1.538344   -6.782024
      3          1           0       -6.537022   -1.060996   -8.108744
      4          1           0       -6.380313   -0.264943   -6.629512
      5          6           0       -5.380445   -2.074142   -6.636063
      6          1           0       -5.557467   -3.080782   -7.026276
      7          6           0       -5.445653   -2.018971   -5.102973
      8          6           0       -4.042805   -1.522731   -7.130260
      9          1           0       -3.239280   -2.191588   -6.811141
     10          1           0       -4.015059   -1.438237   -8.222100
     11          1           0       -3.855178   -0.539190   -6.686258
     12          8           0       -5.691347   -0.918094   -4.603116
     13          7           0       -5.188086   -3.149973   -4.444483
     14          1           0       -4.883134   -3.963836   -4.968043
     15          6           0       -4.930025   -3.188132   -2.994150
     16          1           0       -5.331969   -2.256857   -2.584519
     17          6           0       -3.400096   -3.179380   -2.757694
     18          6           0       -5.640977   -4.372550   -2.348270
     19          1           0       -5.368347   -5.292775   -2.884597
     20          1           0       -5.232329   -4.494807   -1.338714
     21          8           0       -2.822550   -4.109492   -2.219124
     22          6           0       -7.134062   -4.207601   -2.306203
     23          6           0       -7.892396   -3.118157   -2.667377
     24          1           0       -7.589001   -2.162211   -3.075153
     25          6           0       -8.056084   -5.208969   -1.831529
     26          6           0       -9.362668   -4.663449   -1.931609
     27          6           0       -7.894420   -6.513346   -1.332331
     28          1           0       -6.904538   -6.953334   -1.243726
     29          7           0       -9.232246   -3.388521   -2.448367
     30          1           0       -9.992027   -2.743435   -2.598141
     31          6           0      -10.312455   -6.664074   -1.055908
     32          1           0      -11.174463   -7.247752   -0.746134
     33          6           0      -10.502527   -5.377548   -1.546396
     34          1           0      -11.495627   -4.943857   -1.626236
     35          6           0       -9.022466   -7.227357   -0.950071
     36          1           0       -8.915111   -8.235457   -0.560489
     37          7           0       -2.785687   -2.069056   -3.266855
     38          1           0       -3.355932   -1.255860   -3.481383
     39          6           0       -1.377701   -1.775339   -3.017617
     40          1           0       -0.911321   -2.687015   -2.649117
     41          6           0       -1.316938   -0.642626   -1.983903
     42          6           0       -0.681916   -1.322960   -4.326864
     43          1           0       -0.489583   -2.215707   -4.931557
     44          1           0       -1.380792   -0.683610   -4.880378
     45          8           0       -1.988792    0.375471   -2.158639
     46          6           0        0.611931   -0.525904   -4.115059
     47          1           0        1.086253   -0.287261   -5.074376
     48          1           0        0.390265    0.435862   -3.638090
     49          6           0        1.624965   -1.240365   -3.243307
     50          8           0        1.499989   -2.367898   -2.807855
     51          8           0        2.682121   -0.453274   -2.968942
     52          7           0       -0.462319   -0.837624   -0.953144
     53          1           0        0.127872   -1.662290   -0.949336
     54          6           0       -0.124489    0.211318   -0.003192
     55          1           0       -0.627790    1.115668   -0.358547
     56          6           0        1.390939    0.431789   -0.069473
     57          6           0       -0.626117   -0.088461    1.432824
     58          1           0       -0.285737    0.753003    2.053596
     59          8           0        2.177336   -0.518546   -0.157474
     60          6           0       -2.162497   -0.118562    1.455968
     61          1           0       -2.534386   -1.032017    0.976985
     62          1           0       -2.529366   -0.107482    2.487627
     63          1           0       -2.594777    0.735162    0.922439
     64          6           0       -0.041512   -1.390474    1.999355
     65          1           0       -0.426945   -2.255557    1.446117
     66          1           0        1.049247   -1.413838    1.936421
     67          1           0       -0.328333   -1.511689    3.048767
     68          7           0        1.797645    1.714657   -0.001707
     69          1           0        1.131500    2.479274    0.004352
     70          6           0        3.187845    2.110506   -0.201932
     71          1           0        3.692050    1.277714   -0.702554
     72          6           0        3.866986    2.349874    1.158082
     73          6           0        3.239885    3.368878   -1.084446
     74          1           0        4.286204    3.702052   -1.119316
     75          8           0        4.236305    3.481164    1.506572
     76          6           0        2.729348    3.109529   -2.495594
     77          1           0        3.296962    2.305869   -2.975701
     78          1           0        1.673827    2.816602   -2.474210
     79          1           0        2.817230    4.020204   -3.094519
     80          8           0        2.418894    4.378890   -0.499197
     81          1           0        2.877129    4.624468    0.327621
     82          7           0        3.979699    1.251088    1.926702
     83          1           0        3.692242    0.357797    1.539344
     84          6           0        4.577861    1.281289    3.267171
     85          1           0        4.304595    2.247114    3.706669
     86          6           0        6.114741    1.202784    3.121523
     87          6           0        4.034435    0.155808    4.160365
     88          1           0        4.336359   -0.795333    3.701499
     89          8           0        6.714724    0.134114    3.178440
     90          6           0        4.662599    0.247892    5.559688
     91          1           0        4.419812    1.212187    6.024867
     92          1           0        5.750193    0.154323    5.520834
     93          1           0        4.266289   -0.544201    6.204692
     94          6           0        2.501949    0.219541    4.254262
     95          1           0        2.186383    1.129155    4.781450
     96          1           0        2.115933   -0.641257    4.811254
     97          1           0        2.021646    0.224178    3.270448
     98          7           0        6.716570    2.396112    2.904027
     99          1           0        6.134518    3.202499    2.711006
    100          6           0        8.165521    2.518794    2.932127
    101          1           0        8.605348    2.024770    2.059578
    102          6           0        8.775047    1.843075    4.208935
    103          6           0        8.535769    4.023850    2.975092
    104          1           0        7.834007    4.515308    3.659547
    105          1           0        8.393952    4.470960    1.981679
    106          8           0        9.876604    1.212859    3.967606
    107          6           0        9.950896    4.280668    3.514993
    108          1           0       10.143600    5.359191    3.587337
    109          1           0        9.933278    3.908081    4.544898
    110          6           0       11.083785    3.608811    2.720472
    111          1           0       10.762796    2.627534    2.364974
    112          1           0       11.348072    4.201643    1.836458
    113          6           0       12.331224    3.376328    3.574182
    114          1           0       12.744665    4.308896    3.971855
    115          1           0       13.117731    2.889074    2.992360
    116          7           0       11.985790    2.467290    4.738428
    117          1           0       12.759296    1.848266    4.986643
    118          1           0       11.740500    3.001843    5.573579
    119          1           0       11.079406    1.845216    4.499430
    120          8           0        8.254624    2.076480    5.301376
    121          1           0        3.189869   -0.899120   -2.260961
 ---------------------------------------------------------------------

 SCF Done:  E(RB3LYP) =  -2843.77463757     A.U. after    1 cycles

 Alpha  occ. eigenvalues --  -19.27516 -19.25862 -19.21045 -19.20642 -19.19149
 Alpha  occ. eigenvalues --  -19.18932 -19.18825 -19.17559 -19.12516 -19.10339
 Alpha  occ. eigenvalues --  -19.09161 -14.64565 -14.51608 -14.48025 -14.45138
 Alpha  occ. eigenvalues --  -14.45037 -14.43327 -14.43317 -14.41212 -14.36843
 Alpha  occ. eigenvalues --  -10.44833 -10.43453 -10.38977 -10.38264 -10.35968
 Alpha  occ. eigenvalues --  -10.35867 -10.35417 -10.34404 -10.34211 -10.30908
 Alpha  occ. eigenvalues --  -10.30509 -10.29759 -10.29648 -10.29520 -10.29335
 Alpha  occ. eigenvalues --  -10.28950 -10.28557 -10.28303 -10.28027 -10.27764
 Alpha  occ. eigenvalues --  -10.27699 -10.26031 -10.25978 -10.25728 -10.25220
 Alpha  occ. eigenvalues --  -10.24966 -10.24850 -10.24632 -10.24145 -10.23633
 Alpha  occ. eigenvalues --  -10.23248 -10.23022 -10.22866 -10.22781 -10.22470
 Alpha  occ. eigenvalues --  -10.22201 -10.21968 -10.20902 -10.18881  -1.20905
 Alpha  occ. eigenvalues --   -1.17496  -1.16983  -1.13022  -1.11160  -1.10459
 Alpha  occ. eigenvalues --   -1.09124  -1.08096  -1.07824  -1.06561  -1.04899
 Alpha  occ. eigenvalues --   -1.04634  -1.03651  -1.02213  -1.01333  -0.99814
 Alpha  occ. eigenvalues --   -0.99587  -0.97257  -0.95796  -0.94386  -0.93213
 Alpha  occ. eigenvalues --   -0.90514  -0.89800  -0.88444  -0.86611  -0.85329
 Alpha  occ. eigenvalues --   -0.85019  -0.84104  -0.82899  -0.82765  -0.81289
 Alpha  occ. eigenvalues --   -0.79924  -0.79692  -0.78752  -0.78329  -0.77790
 Alpha  occ. eigenvalues --   -0.76548  -0.76422  -0.75731  -0.74503  -0.74140
 Alpha  occ. eigenvalues --   -0.73822  -0.72384  -0.71880  -0.70717  -0.69592
 Alpha  occ. eigenvalues --   -0.68832  -0.67692  -0.67323  -0.66777  -0.66179
 Alpha  occ. eigenvalues --   -0.65825  -0.65784  -0.65200  -0.65025  -0.63996
 Alpha  occ. eigenvalues --   -0.63754  -0.63542  -0.63421  -0.62398  -0.62338
 Alpha  occ. eigenvalues --   -0.61087  -0.60851  -0.60348  -0.60170  -0.59824
 Alpha  occ. eigenvalues --   -0.59132  -0.58525  -0.57825  -0.57285  -0.56590
 Alpha  occ. eigenvalues --   -0.56209  -0.55756  -0.55657  -0.55569  -0.55135
 Alpha  occ. eigenvalues --   -0.55091  -0.54887  -0.54150  -0.53927  -0.53830
 Alpha  occ. eigenvalues --   -0.53786  -0.53557  -0.52778  -0.52570  -0.52109
 Alpha  occ. eigenvalues --   -0.51775  -0.51699  -0.50986  -0.50639  -0.50306
 Alpha  occ. eigenvalues --   -0.50062  -0.49966  -0.49876  -0.49395  -0.49183
 Alpha  occ. eigenvalues --   -0.49013  -0.48893  -0.48519  -0.48498  -0.47960
 Alpha  occ. eigenvalues --   -0.47440  -0.47333  -0.46941  -0.46717  -0.46266
 Alpha  occ. eigenvalues --   -0.46166  -0.45989  -0.45620  -0.45409  -0.45111
 Alpha  occ. eigenvalues --   -0.45045  -0.44692  -0.44361  -0.43983  -0.43782
 Alpha  occ. eigenvalues --   -0.43715  -0.43615  -0.43232  -0.42973  -0.42787
 Alpha  occ. eigenvalues --   -0.42572  -0.42226  -0.41956  -0.41872  -0.41774
 Alpha  occ. eigenvalues --   -0.41435  -0.41167  -0.40721  -0.40591  -0.40170
 Alpha  occ. eigenvalues --   -0.39863  -0.39698  -0.39694  -0.39471  -0.39255
 Alpha  occ. eigenvalues --   -0.38757  -0.38592  -0.38330  -0.38297  -0.37535
 Alpha  occ. eigenvalues --   -0.37338  -0.36726  -0.35945  -0.35637  -0.35494
 Alpha  occ. eigenvalues --   -0.34981  -0.34692  -0.34355  -0.34169  -0.33909
 Alpha  occ. eigenvalues --   -0.33758  -0.32395  -0.32096  -0.31741  -0.31558
 Alpha  occ. eigenvalues --   -0.29827  -0.28793  -0.27275  -0.27197  -0.26078
 Alpha  occ. eigenvalues --   -0.25797  -0.24468  -0.22938
 Alpha virt. eigenvalues --   -0.15253  -0.13242  -0.08682  -0.08309  -0.07634
 Alpha virt. eigenvalues --   -0.07252  -0.06294  -0.06037  -0.05507  -0.04753
 Alpha virt. eigenvalues --   -0.03847  -0.03682  -0.03228  -0.02855  -0.01984

 Mulliken charges:
               1
     1  N   -0.717237
     2  H    0.431038
     3  H    0.423816
     4  H    0.432250
     5  C   -0.140071
     6  H    0.215632
     7  C    0.653807
     8  C   -0.471508
     9  H    0.224809
    10  H    0.190899
    11  H    0.208767
    12  O   -0.540434
    13  N   -0.563481
    14  H    0.354601
    15  C   -0.126727
    16  H    0.215846
    17  C    0.620963
    18  C   -0.341996
    19  H    0.155805
    20  H    0.202722
    21  O   -0.483981
    22  C    0.067186
    23  C   -0.026353
    24  H    0.142243
    25  C    0.074206
    26  C    0.317365
    27  C   -0.209159
    28  H    0.133634
    29  N   -0.706859
    30  H    0.328807
    31  C   -0.148414
    32  H    0.140757
    33  C   -0.162208
    34  H    0.132279
    35  C   -0.138862
    36  H    0.138352
    37  N   -0.627400
    38  H    0.345896
    39  C   -0.059734
    40  H    0.214471
    41  C    0.612561
    42  C   -0.258493
    43  H    0.161270
    44  H    0.129176
    45  O   -0.553446
    46  C   -0.385442
    47  H    0.188373
    48  H    0.204039
    49  C    0.605833
    50  O   -0.473773
    51  O   -0.568407
    52  N   -0.600278
    53  H    0.373536
    54  C   -0.073645
    55  H    0.175273
    56  C    0.642715
    57  C   -0.079729
    58  H    0.144508
    59  O   -0.576898
    60  C   -0.449993
    61  H    0.147128
    62  H    0.157439
    63  H    0.154576
    64  C   -0.466390
    65  H    0.145962
    66  H    0.174887
    67  H    0.159159
    68  N   -0.591409
    69  H    0.353524
    70  C   -0.086880
    71  H    0.177975
    72  C    0.644533
    73  C    0.115731
    74  H    0.149538
    75  O   -0.563331
    76  C   -0.453846
    77  H    0.157636
    78  H    0.141348
    79  H    0.166103
    80  O   -0.649688
    81  H    0.418266
    82  N   -0.610553
    83  H    0.356647
    84  C   -0.047115
    85  H    0.163610
    86  C    0.644649
    87  C   -0.098040
    88  H    0.149702
    89  O   -0.529113
    90  C   -0.463661
    91  H    0.137875
    92  H    0.209214
    93  H    0.138512
    94  C   -0.459810
    95  H    0.142516
    96  H    0.149800
    97  H    0.135563
    98  N   -0.634916
    99  H    0.347010
   100  C    0.033312
   101  H    0.142959
   102  C    0.590043
   103  C   -0.304550
   104  H    0.157709
   105  H    0.136495
   106  O   -0.649029
   107  C   -0.293779
   108  H    0.136400
   109  H    0.151423
   110  C   -0.287597
   111  H    0.203735
   112  H    0.150876
   113  C   -0.172349
   114  H    0.178020
   115  H    0.185454
   116  N   -0.768118
   117  H    0.382279
   118  H    0.388764
   119  H    0.447186
   120  O   -0.548274
   121  H    0.435985
 Sum of Mulliken charges =   1.00000

 Dipole moment (field-independent basis, Debye):
    X=            -17.0979    Y=             -1.3412    Z=            -29.8952  Tot=             34.4653
 Quadrupole moment (field-independent basis, Debye-Ang):
   XX=             52.5011   YY=           -324.2065   ZZ=           -110.1865
   XY=            123.5518   XZ=            231.2025   YZ=             66.9186

 Normal termination of Gaussian 16 at Sat Jun 25 09:15:44 2022.
