 Gaussian 16, Revision C.01,
 Gaussian 16:  ES64L-G16RevC.01  3-Jul-2019

 ----------------------------------------------------------------------
 # B3LYP/6-31G* empiricaldispersion=gd3 guess=read geom=check nosymm in
 tegral(ultrafinegrid)
 ----------------------------------------------------------------------

 -----------------------------------------------------
 Candidate Structure: Conf:81 Charge calc in gas phase
 -----------------------------------------------------
 Structure from the checkpoint file:  "conf-81.chk"
 Charge =  1 Multiplicity = 1

                          Input orientation:
 ---------------------------------------------------------------------
 Center     Atomic      Atomic             Coordinates (Angstroms)
 Number     Number       Type             X           Y           Z
 ---------------------------------------------------------------------
      1          7           0       -7.828105   -4.573023   -4.290230
      2          1           0       -8.115263   -4.383293   -3.310436
      3          1           0       -8.238151   -5.468607   -4.571341
      4          1           0       -8.170161   -3.802724   -4.894594
      5          6           0       -6.323248   -4.546935   -4.421915
      6          1           0       -5.908366   -5.030503   -3.535037
      7          6           0       -6.012333   -3.037358   -4.517493
      8          6           0       -5.895274   -5.254019   -5.706675
      9          1           0       -4.806364   -5.208541   -5.796283
     10          1           0       -6.188041   -6.309638   -5.701511
     11          1           0       -6.330720   -4.756813   -6.578828
     12          8           0       -6.752402   -2.357056   -5.229509
     13          7           0       -4.951558   -2.595633   -3.836369
     14          1           0       -4.386185   -3.215789   -3.263211
     15          6           0       -4.485588   -1.213473   -3.835290
     16          1           0       -4.755520   -0.758398   -4.792147
     17          6           0       -2.970195   -1.295417   -3.614884
     18          6           0       -5.109525   -0.386659   -2.670446
     19          1           0       -4.804171   -0.862783   -1.730035
     20          1           0       -4.641919    0.605382   -2.682888
     21          8           0       -2.516191   -2.186365   -2.888576
     22          6           0       -6.598887   -0.257153   -2.741225
     23          6           0       -7.311161    0.807311   -3.238771
     24          1           0       -6.954044    1.754421   -3.619911
     25          6           0       -7.570749   -1.247928   -2.360472
     26          6           0       -8.857709   -0.718933   -2.671598
     27          6           0       -7.485465   -2.546448   -1.828051
     28          1           0       -6.522350   -2.962024   -1.546183
     29          7           0       -8.660728    0.536723   -3.193912
     30          1           0       -9.388578    1.156547   -3.517007
     31          6           0       -9.922362   -2.740737   -1.984746
     32          1           0      -10.819838   -3.329808   -1.819892
     33          6           0      -10.032762   -1.444537   -2.482422
     34          1           0      -11.001295   -1.027741   -2.741094
     35          6           0       -8.655580   -3.290006   -1.652772
     36          1           0       -8.603169   -4.286514   -1.221044
     37          7           0       -2.211116   -0.348106   -4.201895
     38          1           0       -2.654964    0.418759   -4.692171
     39          6           0       -0.773246   -0.224493   -3.909575
     40          1           0       -0.400516   -1.246073   -3.791230
     41          6           0       -0.620676    0.544342   -2.575422
     42          6           0       -0.042858    0.478795   -5.051979
     43          1           0       -0.372217    0.040480   -6.001535
     44          1           0       -0.314227    1.538368   -5.052321
     45          8           0       -0.433880    1.766784   -2.555458
     46          6           0        1.482105    0.339127   -4.913962
     47          1           0        1.824420    0.783738   -3.972232
     48          1           0        1.788728   -0.710531   -4.921097
     49          6           0        2.247057    1.034330   -6.018915
     50          8           0        3.171297    0.561432   -6.638551
     51          8           0        1.782539    2.292082   -6.233563
     52          7           0       -0.762751   -0.210703   -1.469004
     53          1           0       -0.968239   -1.197082   -1.580005
     54          6           0       -0.678003    0.345613   -0.111765
     55          1           0       -1.199662    1.310386   -0.121874
     56          6           0        0.825788    0.555998    0.160412
     57          6           0       -1.336150   -0.580304    0.921308
     58          1           0       -0.796399   -1.535955    0.887212
     59          8           0        1.543482   -0.354105    0.568874
     60          6           0       -1.177969    0.006191    2.331703
     61          1           0       -1.679323    0.979295    2.411202
     62          1           0       -1.628839   -0.661843    3.072524
     63          1           0       -0.125322    0.136028    2.596791
     64          6           0       -2.818739   -0.814495    0.592095
     65          1           0       -3.378801    0.128946    0.641334
     66          1           0       -2.964828   -1.241660   -0.405365
     67          1           0       -3.263808   -1.501619    1.319686
     68          7           0        1.282324    1.788535   -0.163808
     69          1           0        0.622924    2.455018   -0.541988
     70          6           0        2.710149    2.068390   -0.280201
     71          1           0        3.197185    1.106277   -0.473066
     72          6           0        3.237338    2.644503    1.052509
     73          6           0        2.977970    3.014335   -1.461654
     74          1           0        2.550302    3.996907   -1.214756
     75          8           0        3.504958    3.840594    1.182690
     76          6           0        4.479186    3.173913   -1.682096
     77          1           0        4.910752    3.521325   -0.736189
     78          1           0        4.916399    2.207094   -1.957304
     79          1           0        4.662614    3.889157   -2.489711
     80          8           0        2.434348    2.514038   -2.678819
     81          1           0        1.460988    2.523531   -2.637022
     82          7           0        3.318353    1.725396    2.035726
     83          1           0        3.219205    0.755463    1.757102
     84          6           0        4.041089    2.000820    3.270925
     85          1           0        3.535630    2.824455    3.789758
     86          6           0        5.482857    2.433618    2.931318
     87          6           0        4.012436    0.737044    4.168621
     88          1           0        4.418099   -0.087038    3.561286
     89          8           0        6.065911    1.992369    1.927099
     90          6           0        4.886760    0.875939    5.426025
     91          1           0        4.559370    1.717145    6.048491
     92          1           0        5.944487    1.029535    5.203037
     93          1           0        4.804488   -0.033843    6.030556
     94          6           0        2.565842    0.393893    4.561442
     95          1           0        2.143894    1.185669    5.192863
     96          1           0        2.533916   -0.541435    5.130911
     97          1           0        1.915917    0.278770    3.686379
     98          7           0        6.013084    3.274842    3.821367
     99          1           0        5.495520    3.642904    4.617664
    100          6           0        7.442917    3.545606    3.999135
    101          1           0        8.023740    2.731079    3.558799
    102          6           0        7.574805    3.606452    5.575491
    103          6           0        7.782105    4.872791    3.313144
    104          1           0        8.864360    5.056377    3.388919
    105          1           0        7.256254    5.672308    3.847444
    106          8           0        6.575941    4.209445    6.062161
    107          6           0        7.341046    4.802345    1.848741
    108          1           0        7.730057    3.852133    1.454802
    109          1           0        6.247671    4.705289    1.822635
    110          6           0        7.759309    5.961662    0.941397
    111          1           0        7.399710    6.922933    1.326568
    112          1           0        8.854570    6.040753    0.874346
    113          6           0        7.160398    5.768505   -0.446432
    114          1           0        7.486196    6.493419   -1.196291
    115          1           0        6.068199    5.754519   -0.403418
    116          7           0        7.551463    4.376674   -0.965788
    117          1           0        7.477100    4.299862   -1.984227
    118          1           0        8.511136    4.142330   -0.686925
    119          1           0        6.937948    3.663279   -0.548889
    120          8           0        8.521734    2.998780    6.092889
    121          1           0        2.340345    2.673800   -6.937314
 ---------------------------------------------------------------------

 SCF Done:  E(RB3LYP) =  -2843.72871258     A.U. after    1 cycles

 Alpha  occ. eigenvalues --  -19.26679 -19.26083 -19.24937 -19.22038 -19.21020
 Alpha  occ. eigenvalues --  -19.20234 -19.18831 -19.16120 -19.11854 -19.03075
 Alpha  occ. eigenvalues --  -19.02873 -14.60396 -14.57661 -14.50924 -14.49560
 Alpha  occ. eigenvalues --  -14.49296 -14.46043 -14.43413 -14.39370 -14.34451
 Alpha  occ. eigenvalues --  -10.44228 -10.41885 -10.41717 -10.38945 -10.38619
 Alpha  occ. eigenvalues --  -10.36912 -10.35909 -10.35261 -10.34152 -10.34136
 Alpha  occ. eigenvalues --  -10.33901 -10.33506 -10.33017 -10.31938 -10.31585
 Alpha  occ. eigenvalues --  -10.31437 -10.31000 -10.30998 -10.30922 -10.30809
 Alpha  occ. eigenvalues --  -10.30492 -10.29925 -10.28980 -10.28688 -10.28556
 Alpha  occ. eigenvalues --  -10.27379 -10.27264 -10.27186 -10.25831 -10.25593
 Alpha  occ. eigenvalues --  -10.25172 -10.24131 -10.22799 -10.22198 -10.21638
 Alpha  occ. eigenvalues --  -10.20332 -10.19605 -10.19571 -10.18141  -1.19475
 Alpha  occ. eigenvalues --   -1.16881  -1.16834  -1.14752  -1.13692  -1.11804
 Alpha  occ. eigenvalues --   -1.10811  -1.09672  -1.08616  -1.07843  -1.07646
 Alpha  occ. eigenvalues --   -1.07447  -1.05257  -1.03172  -1.02276  -0.99623
 Alpha  occ. eigenvalues --   -0.96800  -0.96179  -0.96092  -0.94409  -0.92457
 Alpha  occ. eigenvalues --   -0.91529  -0.90446  -0.88657  -0.88430  -0.88263
 Alpha  occ. eigenvalues --   -0.87919  -0.85926  -0.85166  -0.84207  -0.82800
 Alpha  occ. eigenvalues --   -0.82751  -0.81886  -0.80610  -0.80130  -0.78563
 Alpha  occ. eigenvalues --   -0.77093  -0.76025  -0.75058  -0.74996  -0.74467
 Alpha  occ. eigenvalues --   -0.73694  -0.72948  -0.72891  -0.72415  -0.71502
 Alpha  occ. eigenvalues --   -0.71111  -0.70640  -0.70184  -0.69898  -0.69305
 Alpha  occ. eigenvalues --   -0.68597  -0.67481  -0.67188  -0.67075  -0.66605
 Alpha  occ. eigenvalues --   -0.65899  -0.65726  -0.65457  -0.63995  -0.63380
 Alpha  occ. eigenvalues --   -0.62935  -0.61504  -0.61433  -0.61080  -0.60517
 Alpha  occ. eigenvalues --   -0.60092  -0.59802  -0.59580  -0.59521  -0.59013
 Alpha  occ. eigenvalues --   -0.58646  -0.58392  -0.57894  -0.57405  -0.56649
 Alpha  occ. eigenvalues --   -0.56141  -0.55907  -0.55458  -0.55315  -0.55081
 Alpha  occ. eigenvalues --   -0.54894  -0.54850  -0.54583  -0.54188  -0.53929
 Alpha  occ. eigenvalues --   -0.53341  -0.53085  -0.53027  -0.52923  -0.52554
 Alpha  occ. eigenvalues --   -0.52436  -0.51645  -0.51250  -0.51211  -0.50526
 Alpha  occ. eigenvalues --   -0.50386  -0.50285  -0.49999  -0.49615  -0.49461
 Alpha  occ. eigenvalues --   -0.49255  -0.48563  -0.48542  -0.48217  -0.48015
 Alpha  occ. eigenvalues --   -0.47453  -0.47319  -0.47028  -0.46726  -0.46492
 Alpha  occ. eigenvalues --   -0.46096  -0.46010  -0.45823  -0.45683  -0.45652
 Alpha  occ. eigenvalues --   -0.45409  -0.45254  -0.44841  -0.44616  -0.44418
 Alpha  occ. eigenvalues --   -0.43805  -0.43244  -0.43197  -0.42780  -0.41989
 Alpha  occ. eigenvalues --   -0.41776  -0.41520  -0.41329  -0.40877  -0.40815
 Alpha  occ. eigenvalues --   -0.40676  -0.40289  -0.39814  -0.39716  -0.39644
 Alpha  occ. eigenvalues --   -0.39508  -0.39197  -0.38555  -0.38440  -0.38118
 Alpha  occ. eigenvalues --   -0.36969  -0.36791  -0.36609  -0.35989  -0.35497
 Alpha  occ. eigenvalues --   -0.35347  -0.34888  -0.34666  -0.34617  -0.34120
 Alpha  occ. eigenvalues --   -0.33638  -0.33581  -0.33032  -0.32099  -0.31994
 Alpha  occ. eigenvalues --   -0.31294  -0.29981  -0.28795  -0.25936  -0.25546
 Alpha  occ. eigenvalues --   -0.18885  -0.18010  -0.16770
 Alpha virt. eigenvalues --   -0.14140  -0.12949  -0.11479  -0.11210  -0.09677
 Alpha virt. eigenvalues --   -0.08461  -0.08223  -0.06596  -0.05445  -0.05266
 Alpha virt. eigenvalues --   -0.04782  -0.04157  -0.03687  -0.03009  -0.02629

 Mulliken charges:
               1
     1  N   -0.734605
     2  H    0.396835
     3  H    0.404703
     4  H    0.423462
     5  C   -0.115816
     6  H    0.201620
     7  C    0.664255
     8  C   -0.470520
     9  H    0.212133
    10  H    0.187487
    11  H    0.204708
    12  O   -0.528179
    13  N   -0.605251
    14  H    0.363585
    15  C   -0.057496
    16  H    0.189897
    17  C    0.644229
    18  C   -0.377629
    19  H    0.187540
    20  H    0.169971
    21  O   -0.551228
    22  C    0.090876
    23  C    0.021630
    24  H    0.176778
    25  C    0.103940
    26  C    0.328688
    27  C   -0.241258
    28  H    0.136351
    29  N   -0.683535
    30  H    0.351412
    31  C   -0.152034
    32  H    0.158934
    33  C   -0.151887
    34  H    0.160987
    35  C   -0.243613
    36  H    0.152081
    37  N   -0.607439
    38  H    0.349431
    39  C   -0.057606
    40  H    0.189770
    41  C    0.633522
    42  C   -0.299009
    43  H    0.155435
    44  H    0.190648
    45  O   -0.559303
    46  C   -0.381080
    47  H    0.220820
    48  H    0.174225
    49  C    0.578161
    50  O   -0.453822
    51  O   -0.562642
    52  N   -0.605643
    53  H    0.370550
    54  C   -0.031650
    55  H    0.158187
    56  C    0.632418
    57  C   -0.105706
    58  H    0.160893
    59  O   -0.537331
    60  C   -0.478657
    61  H    0.144820
    62  H    0.159620
    63  H    0.200476
    64  C   -0.472454
    65  H    0.144340
    66  H    0.140699
    67  H    0.159507
    68  N   -0.602033
    69  H    0.342847
    70  C   -0.075431
    71  H    0.181461
    72  C    0.659147
    73  C    0.126167
    74  H    0.145010
    75  O   -0.557463
    76  C   -0.510343
    77  H    0.168564
    78  H    0.164444
    79  H    0.143600
    80  O   -0.656256
    81  H    0.429427
    82  N   -0.610903
    83  H    0.357013
    84  C   -0.023459
    85  H    0.159380
    86  C    0.624471
    87  C   -0.109508
    88  H    0.132802
    89  O   -0.623460
    90  C   -0.463538
    91  H    0.167735
    92  H    0.194904
    93  H    0.139755
    94  C   -0.462395
    95  H    0.148469
    96  H    0.148563
    97  H    0.148626
    98  N   -0.589353
    99  H    0.356528
   100  C   -0.053234
   101  H    0.132997
   102  C    0.563224
   103  C   -0.258370
   104  H    0.134986
   105  H    0.159334
   106  O   -0.625021
   107  C   -0.304518
   108  H    0.121661
   109  H    0.187057
   110  C   -0.291658
   111  H    0.192482
   112  H    0.155368
   113  C   -0.199874
   114  H    0.199188
   115  H    0.233712
   116  N   -0.745531
   117  H    0.412003
   118  H    0.419963
   119  H    0.449603
   120  O   -0.582202
   121  H    0.413829
 Sum of Mulliken charges =   1.00000

 Dipole moment (field-independent basis, Debye):
    X=            -37.2443    Y=            -10.5310    Z=            -40.0325  Tot=             55.6834
 Quadrupole moment (field-independent basis, Debye-Ang):
   XX=            -79.0045   YY=           -221.3630   ZZ=           -374.9950
   XY=            149.1874   XZ=            -23.4522   YZ=            -24.2257

 Normal termination of Gaussian 16 at Sat Jun 25 08:33:44 2022.
