 Gaussian 16, Revision C.01,
 Gaussian 16:  ES64L-G16RevC.01  3-Jul-2019

 ----------------------------------------------------------------------
 # B3LYP/6-31G* empiricaldispersion=gd3 guess=read geom=check nosymm in
 tegral(ultrafinegrid)
 ----------------------------------------------------------------------

 ------------------------------------------------------
 Candidate Structure: Conf:578 Charge calc in gas phase
 ------------------------------------------------------
 Structure from the checkpoint file:  "conf-578.chk"
 Charge =  1 Multiplicity = 1

                          Input orientation:
 ---------------------------------------------------------------------
 Center     Atomic      Atomic             Coordinates (Angstroms)
 Number     Number       Type             X           Y           Z
 ---------------------------------------------------------------------
      1          7           0       -3.782163   -6.282425   -4.591410
      2          1           0       -4.211259   -6.891975   -3.890391
      3          1           0       -3.374648   -6.866308   -5.327035
      4          1           0       -4.524266   -5.621250   -4.997834
      5          6           0       -2.797721   -5.284593   -4.008526
      6          1           0       -2.689585   -5.502525   -2.943201
      7          6           0       -3.536708   -3.930920   -4.217759
      8          6           0       -1.451471   -5.351505   -4.727366
      9          1           0       -0.773135   -4.601746   -4.311336
     10          1           0       -0.981642   -6.331919   -4.599288
     11          1           0       -1.566994   -5.137998   -5.795683
     12          8           0       -4.601795   -3.953970   -4.859915
     13          7           0       -2.957662   -2.858468   -3.709150
     14          1           0       -2.059254   -2.881222   -3.219678
     15          6           0       -3.465889   -1.496271   -3.852128
     16          1           0       -3.789711   -1.345520   -4.886231
     17          6           0       -2.245763   -0.600667   -3.543994
     18          6           0       -4.682404   -1.240822   -2.902332
     19          1           0       -5.464744   -1.946649   -3.206379
     20          1           0       -4.379413   -1.498563   -1.881358
     21          8           0       -1.251712   -1.085863   -2.987498
     22          6           0       -5.138831    0.182228   -2.967009
     23          6           0       -4.912906    1.140781   -2.009043
     24          1           0       -4.497692    1.038849   -1.018946
     25          6           0       -5.597716    0.881739   -4.145470
     26          6           0       -5.610404    2.270173   -3.822584
     27          6           0       -5.950207    0.481125   -5.448597
     28          1           0       -5.971387   -0.573152   -5.715717
     29          7           0       -5.222392    2.386110   -2.501833
     30          1           0       -4.914703    3.238809   -2.056523
     31          6           0       -6.279679    2.823401   -6.042570
     32          1           0       -6.541914    3.559182   -6.796970
     33          6           0       -5.946743    3.250463   -4.762062
     34          1           0       -5.936988    4.304686   -4.501407
     35          6           0       -6.286870    1.453673   -6.381944
     36          1           0       -6.562915    1.158894   -7.390174
     37          7           0       -2.359090    0.683279   -3.917200
     38          1           0       -3.261442    0.991692   -4.265140
     39          6           0       -1.419714    1.736830   -3.513368
     40          1           0       -0.410201    1.404730   -3.778588
     41          6           0       -1.514538    1.960576   -1.980971
     42          6           0       -1.789492    3.011933   -4.275155
     43          1           0       -1.754419    2.796357   -5.349697
     44          1           0       -2.819187    3.280841   -4.022341
     45          8           0       -2.368661    2.705062   -1.494013
     46          6           0       -0.871007    4.195194   -3.940837
     47          1           0       -0.965402    4.429573   -2.874000
     48          1           0        0.177110    3.971271   -4.156026
     49          6           0       -1.231258    5.443142   -4.718296
     50          8           0       -0.465696    6.117550   -5.365930
     51          8           0       -2.553533    5.741555   -4.597824
     52          7           0       -0.601825    1.276513   -1.264541
     53          1           0        0.027734    0.633445   -1.730810
     54          6           0       -0.469601    1.342455    0.183776
     55          1           0       -1.042627    2.211286    0.521844
     56          6           0        1.029636    1.481802    0.471490
     57          6           0       -0.998754    0.058883    0.883873
     58          1           0       -0.373357   -0.767504    0.518539
     59          8           0        1.834919    0.769539   -0.131911
     60          6           0       -0.841237    0.154245    2.409079
     61          1           0       -1.396923    1.016970    2.801815
     62          1           0       -1.252666   -0.742875    2.884952
     63          1           0        0.204711    0.246593    2.715683
     64          6           0       -2.453994   -0.219358    0.491604
     65          1           0       -3.105429    0.606335    0.803393
     66          1           0       -2.552964   -0.350288   -0.590044
     67          1           0       -2.812206   -1.132261    0.981413
     68          7           0        1.381114    2.356491    1.434017
     69          1           0        0.709936    3.004252    1.824635
     70          6           0        2.748366    2.466694    1.913608
     71          1           0        3.376307    2.919407    1.134979
     72          6           0        3.269178    1.065345    2.302580
     73          6           0        2.763970    3.355610    3.168834
     74          1           0        2.271282    2.784832    3.970162
     75          8           0        2.617277    0.343223    3.054012
     76          6           0        4.183849    3.730744    3.584296
     77          1           0        4.789327    2.841361    3.786518
     78          1           0        4.667579    4.312570    2.792551
     79          1           0        4.165481    4.339383    4.495553
     80          8           0        1.986610    4.514121    2.840985
     81          1           0        1.914932    5.059812    3.639262
     82          7           0        4.482132    0.751482    1.808530
     83          1           0        4.995783    1.401124    1.224610
     84          6           0        5.174633   -0.491365    2.090865
     85          1           0        4.870326   -0.824539    3.089409
     86          6           0        6.677032   -0.166079    2.068776
     87          6           0        4.847132   -1.619068    1.065073
     88          1           0        5.525217   -2.450179    1.308328
     89          8           0        7.109049    0.824354    1.475860
     90          6           0        3.401228   -2.113479    1.212847
     91          1           0        2.693193   -1.330895    0.926874
     92          1           0        3.177737   -2.410351    2.242832
     93          1           0        3.238627   -2.979205    0.558555
     94          6           0        5.122325   -1.164553   -0.375601
     95          1           0        4.423922   -0.368358   -0.656618
     96          1           0        4.975881   -1.999930   -1.069424
     97          1           0        6.143512   -0.790190   -0.503275
     98          7           0        7.474641   -1.065396    2.685042
     99          1           0        7.090778   -1.838763    3.215998
    100          6           0        8.923518   -0.950666    2.692881
    101          1           0        9.261141   -0.645080    1.699949
    102          6           0        9.518338   -2.304717    3.037521
    103          6           0        9.407172    0.104825    3.741035
    104          1           0        8.741939    0.027716    4.610064
    105          1           0        9.224700    1.084938    3.290585
    106          8           0       10.738523   -2.446428    2.537350
    107          6           0       10.875040   -0.028309    4.204887
    108          1           0       11.495819   -0.343623    3.360938
    109          1           0       11.238251    0.963433    4.497467
    110          6           0       11.060265   -0.997544    5.408084
    111          1           0       11.079986   -0.404850    6.330153
    112          1           0       10.187015   -1.653996    5.505373
    113          6           0       12.321089   -1.883874    5.383901
    114          1           0       12.657820   -2.073087    6.413088
    115          1           0       13.140027   -1.369554    4.868426
    116          7           0       12.083367   -3.167991    4.672306
    117          1           0       12.940340   -3.718546    4.638276
    118          1           0       11.396288   -3.721388    5.185463
    119          1           0       11.312487   -2.945657    3.232711
    120          8           0        8.964743   -3.092338    3.791308
    121          1           0       -2.694825    6.557877   -5.113732
 ---------------------------------------------------------------------

 SCF Done:  E(RB3LYP) =  -2843.82021707     A.U. after    1 cycles

 Alpha  occ. eigenvalues --  -19.27597 -19.25127 -19.22340 -19.21073 -19.20375
 Alpha  occ. eigenvalues --  -19.19301 -19.18582 -19.17522 -19.17459 -19.16294
 Alpha  occ. eigenvalues --  -19.16019 -14.60616 -14.49936 -14.45600 -14.44598
 Alpha  occ. eigenvalues --  -14.42869 -14.42014 -14.40676 -14.40519 -14.39835
 Alpha  occ. eigenvalues --  -10.44168 -10.41922 -10.39049 -10.37613 -10.35856
 Alpha  occ. eigenvalues --  -10.35268 -10.34570 -10.34520 -10.34424 -10.33507
 Alpha  occ. eigenvalues --  -10.33368 -10.31673 -10.30207 -10.29359 -10.29076
 Alpha  occ. eigenvalues --  -10.29019 -10.28893 -10.28877 -10.27676 -10.27567
 Alpha  occ. eigenvalues --  -10.26978 -10.26770 -10.26269 -10.25880 -10.25812
 Alpha  occ. eigenvalues --  -10.25768 -10.25716 -10.25546 -10.25256 -10.25059
 Alpha  occ. eigenvalues --  -10.23950 -10.23824 -10.23362 -10.23205 -10.23195
 Alpha  occ. eigenvalues --  -10.22675 -10.22266 -10.20965 -10.20704  -1.19987
 Alpha  occ. eigenvalues --   -1.15822  -1.14564  -1.13962  -1.12708  -1.10511
 Alpha  occ. eigenvalues --   -1.09689  -1.08464  -1.08313  -1.07550  -1.06875
 Alpha  occ. eigenvalues --   -1.06653  -1.04951  -1.04205  -1.02308  -0.99357
 Alpha  occ. eigenvalues --   -0.98300  -0.97324  -0.97056  -0.95278  -0.94111
 Alpha  occ. eigenvalues --   -0.90993  -0.89832  -0.87753  -0.86591  -0.85298
 Alpha  occ. eigenvalues --   -0.85023  -0.84187  -0.83252  -0.82009  -0.81053
 Alpha  occ. eigenvalues --   -0.80440  -0.79866  -0.79340  -0.78320  -0.76543
 Alpha  occ. eigenvalues --   -0.76367  -0.74951  -0.74781  -0.74136  -0.73392
 Alpha  occ. eigenvalues --   -0.73287  -0.71914  -0.71691  -0.70590  -0.69160
 Alpha  occ. eigenvalues --   -0.68963  -0.67813  -0.67308  -0.66748  -0.66231
 Alpha  occ. eigenvalues --   -0.65760  -0.65323  -0.64960  -0.64618  -0.64179
 Alpha  occ. eigenvalues --   -0.63789  -0.63567  -0.63520  -0.63318  -0.61606
 Alpha  occ. eigenvalues --   -0.61344  -0.60844  -0.60532  -0.59978  -0.59160
 Alpha  occ. eigenvalues --   -0.58913  -0.58079  -0.57483  -0.56934  -0.56487
 Alpha  occ. eigenvalues --   -0.56045  -0.55781  -0.55441  -0.55229  -0.54782
 Alpha  occ. eigenvalues --   -0.54433  -0.54150  -0.53983  -0.53923  -0.53609
 Alpha  occ. eigenvalues --   -0.53080  -0.52628  -0.52370  -0.52266  -0.52014
 Alpha  occ. eigenvalues --   -0.51814  -0.51703  -0.51371  -0.51103  -0.50692
 Alpha  occ. eigenvalues --   -0.50396  -0.50308  -0.49938  -0.49814  -0.49724
 Alpha  occ. eigenvalues --   -0.49555  -0.48946  -0.48899  -0.48455  -0.48296
 Alpha  occ. eigenvalues --   -0.48054  -0.47813  -0.47590  -0.47115  -0.47014
 Alpha  occ. eigenvalues --   -0.46504  -0.46107  -0.46034  -0.45758  -0.45596
 Alpha  occ. eigenvalues --   -0.45450  -0.45152  -0.45020  -0.44863  -0.44528
 Alpha  occ. eigenvalues --   -0.44227  -0.43959  -0.43848  -0.43730  -0.43579
 Alpha  occ. eigenvalues --   -0.43214  -0.42788  -0.42409  -0.42320  -0.42139
 Alpha  occ. eigenvalues --   -0.41864  -0.41772  -0.41578  -0.41382  -0.41023
 Alpha  occ. eigenvalues --   -0.40768  -0.40384  -0.40322  -0.40070  -0.39748
 Alpha  occ. eigenvalues --   -0.39418  -0.38996  -0.38855  -0.38319  -0.38114
 Alpha  occ. eigenvalues --   -0.37816  -0.37465  -0.37280  -0.37260  -0.37062
 Alpha  occ. eigenvalues --   -0.36805  -0.36428  -0.34411  -0.33855  -0.33503
 Alpha  occ. eigenvalues --   -0.33041  -0.32753  -0.32071  -0.32026  -0.31683
 Alpha  occ. eigenvalues --   -0.31390  -0.30973  -0.30513  -0.29831  -0.29517
 Alpha  occ. eigenvalues --   -0.29282  -0.28905  -0.27471
 Alpha virt. eigenvalues --   -0.12859  -0.11797  -0.08733  -0.07664  -0.06880
 Alpha virt. eigenvalues --   -0.05575  -0.05180  -0.04648  -0.04468  -0.03599
 Alpha virt. eigenvalues --   -0.03521  -0.02778  -0.02052  -0.01729  -0.01726

 Mulliken charges:
               1
     1  N   -0.758891
     2  H    0.418399
     3  H    0.415434
     4  H    0.437586
     5  C   -0.105728
     6  H    0.226951
     7  C    0.654514
     8  C   -0.483624
     9  H    0.222550
    10  H    0.197206
    11  H    0.196660
    12  O   -0.543657
    13  N   -0.607105
    14  H    0.375097
    15  C   -0.071704
    16  H    0.199278
    17  C    0.636990
    18  C   -0.347556
    19  H    0.177518
    20  H    0.163470
    21  O   -0.560688
    22  C    0.020352
    23  C    0.029389
    24  H    0.177307
    25  C    0.027929
    26  C    0.299586
    27  C   -0.221848
    28  H    0.129902
    29  N   -0.656640
    30  H    0.356710
    31  C   -0.150704
    32  H    0.142931
    33  C   -0.160525
    34  H    0.146921
    35  C   -0.137423
    36  H    0.136201
    37  N   -0.614262
    38  H    0.377607
    39  C   -0.038912
    40  H    0.171788
    41  C    0.629642
    42  C   -0.310479
    43  H    0.161939
    44  H    0.187909
    45  O   -0.563388
    46  C   -0.353647
    47  H    0.200070
    48  H    0.178104
    49  C    0.569366
    50  O   -0.447040
    51  O   -0.568188
    52  N   -0.584751
    53  H    0.361831
    54  C   -0.060925
    55  H    0.165635
    56  C    0.649889
    57  C   -0.071369
    58  H    0.146714
    59  O   -0.552307
    60  C   -0.488048
    61  H    0.131519
    62  H    0.144943
    63  H    0.213520
    64  C   -0.467716
    65  H    0.155269
    66  H    0.145616
    67  H    0.142375
    68  N   -0.612927
    69  H    0.352265
    70  C   -0.008174
    71  H    0.159282
    72  C    0.643655
    73  C    0.101996
    74  H    0.155025
    75  O   -0.546963
    76  C   -0.473354
    77  H    0.170029
    78  H    0.167001
    79  H    0.149895
    80  O   -0.642613
    81  H    0.404287
    82  N   -0.596497
    83  H    0.352423
    84  C   -0.060111
    85  H    0.167981
    86  C    0.629155
    87  C   -0.067398
    88  H    0.127131
    89  O   -0.550459
    90  C   -0.458883
    91  H    0.189439
    92  H    0.146004
    93  H    0.121236
    94  C   -0.474613
    95  H    0.173024
    96  H    0.136097
    97  H    0.160344
    98  N   -0.621500
    99  H    0.346816
   100  C    0.001441
   101  H    0.186824
   102  C    0.570387
   103  C   -0.282608
   104  H    0.144422
   105  H    0.175045
   106  O   -0.601416
   107  C   -0.285781
   108  H    0.169503
   109  H    0.144754
   110  C   -0.291554
   111  H    0.149112
   112  H    0.162494
   113  C   -0.141160
   114  H    0.145379
   115  H    0.162936
   116  N   -0.777369
   117  H    0.330778
   118  H    0.340202
   119  H    0.455789
   120  O   -0.509034
   121  H    0.414766
 Sum of Mulliken charges =   1.00000

 Dipole moment (field-independent basis, Debye):
    X=             -6.4932    Y=            -19.4028    Z=            -10.7617  Tot=             23.1180
 Quadrupole moment (field-independent basis, Debye-Ang):
   XX=           -187.3923   YY=           -173.7575   ZZ=           -226.6991
   XY=             36.3401   XZ=            132.8450   YZ=            100.8000

 Normal termination of Gaussian 16 at Sat Jun 25 09:15:48 2022.
