 Gaussian 16, Revision C.01,
 Gaussian 16:  ES64L-G16RevC.01  3-Jul-2019

 ----------------------------------------------------------------------
 # B3LYP/6-31G* empiricaldispersion=gd3 guess=read geom=check nosymm in
 tegral(ultrafinegrid)
 ----------------------------------------------------------------------

 ------------------------------------------------------
 Candidate Structure: Conf:304 Charge calc in gas phase
 ------------------------------------------------------
 Structure from the checkpoint file:  "conf-304.chk"
 Charge =  1 Multiplicity = 1

                          Input orientation:
 ---------------------------------------------------------------------
 Center     Atomic      Atomic             Coordinates (Angstroms)
 Number     Number       Type             X           Y           Z
 ---------------------------------------------------------------------
      1          7           0       -7.189864   -6.461799   -2.202635
      2          1           0       -7.799784   -6.581278   -1.389067
      3          1           0       -7.152803   -7.347966   -2.714632
      4          1           0       -7.577210   -5.681858   -2.822809
      5          6           0       -5.816339   -5.915578   -1.854605
      6          1           0       -5.730418   -5.892255   -0.765435
      7          6           0       -5.873523   -4.472969   -2.433874
      8          6           0       -4.712264   -6.766961   -2.479797
      9          1           0       -3.735927   -6.336190   -2.242317
     10          1           0       -4.728692   -7.788525   -2.086787
     11          1           0       -4.808006   -6.793018   -3.570763
     12          8           0       -6.864165   -4.166659   -3.117278
     13          7           0       -4.841331   -3.685780   -2.172266
     14          1           0       -4.047351   -3.977308   -1.601733
     15          6           0       -4.722790   -2.312182   -2.659084
     16          1           0       -5.049426   -2.279473   -3.701579
     17          6           0       -3.228817   -1.972283   -2.544924
     18          6           0       -5.602674   -1.337572   -1.813118
     19          1           0       -6.642851   -1.658499   -1.946516
     20          1           0       -5.342507   -1.474594   -0.757245
     21          8           0       -2.522008   -2.592752   -1.738857
     22          6           0       -5.386145    0.082427   -2.224769
     23          6           0       -4.709311    1.040057   -1.509766
     24          1           0       -4.315266    0.990930   -0.504209
     25          6           0       -5.608979    0.633558   -3.540928
     26          6           0       -5.027485    1.933823   -3.545410
     27          6           0       -6.202157    0.144766   -4.721261
     28          1           0       -6.679867   -0.832387   -4.737850
     29          7           0       -4.529544    2.167153   -2.279003
     30          1           0       -3.843606    2.875266   -2.059043
     31          6           0       -5.594066    2.222826   -5.843171
     32          1           0       -5.598220    2.821188   -6.749316
     33          6           0       -5.012944    2.738128   -4.689976
     34          1           0       -4.565069    3.727439   -4.676037
     35          6           0       -6.186490    0.942058   -5.858997
     36          1           0       -6.642690    0.580232   -6.775699
     37          7           0       -2.774566   -0.988193   -3.346020
     38          1           0       -3.458443   -0.420211   -3.839354
     39          6           0       -1.439628   -0.415773   -3.151588
     40          1           0       -0.767220   -1.256929   -2.955856
     41          6           0       -1.452658    0.525592   -1.923553
     42          6           0       -0.968643    0.356745   -4.384457
     43          1           0       -1.049918   -0.273077   -5.274848
     44          1           0       -1.615858    1.230337   -4.517553
     45          8           0       -1.664390    1.734334   -2.039288
     46          6           0        0.487953    0.814311   -4.178375
     47          1           0        0.597237    1.335682   -3.226166
     48          1           0        1.153935   -0.058860   -4.173313
     49          6           0        0.990489    1.763263   -5.237919
     50          8           0        1.536313    2.829523   -5.011973
     51          8           0        0.790280    1.304399   -6.484824
     52          7           0       -1.210143   -0.074510   -0.739388
     53          1           0       -1.027001   -1.070534   -0.722019
     54          6           0       -0.983558    0.704639    0.480258
     55          1           0       -1.655952    1.567618    0.441393
     56          6           0        0.485160    1.169196    0.407350
     57          6           0       -1.271489   -0.124418    1.740335
     58          1           0       -0.549064   -0.951236    1.752526
     59          8           0        1.395150    0.415496    0.759332
     60          6           0       -1.040800    0.728363    2.996015
     61          1           0       -1.718046    1.591886    3.013987
     62          1           0       -1.229942    0.137755    3.898059
     63          1           0       -0.011689    1.095552    3.050668
     64          6           0       -2.697728   -0.694343    1.710295
     65          1           0       -3.439188    0.116134    1.695305
     66          1           0       -2.871195   -1.331085    0.835198
     67          1           0       -2.885166   -1.292660    2.608275
     68          7           0        0.681517    2.402525   -0.122445
     69          1           0       -0.074939    2.803049   -0.673027
     70          6           0        2.025040    2.869095   -0.475161
     71          1           0        2.574471    2.032582   -0.928354
     72          6           0        2.795139    3.325378    0.792458
     73          6           0        1.923506    4.036331   -1.486012
     74          1           0        1.641780    4.924883   -0.910318
     75          8           0        2.907375    4.533919    1.089219
     76          6           0        3.267966    4.264087   -2.176754
     77          1           0        4.084930    4.335457   -1.450757
     78          1           0        3.499568    3.423831   -2.841633
     79          1           0        3.235995    5.172424   -2.788352
     80          8           0        0.868165    3.821370   -2.410487
     81          1           0        1.223246    3.509902   -3.266656
     82          7           0        3.304899    2.343705    1.526303
     83          1           0        3.080645    1.397139    1.233377
     84          6           0        4.189218    2.530634    2.677377
     85          1           0        3.669173    3.138633    3.426867
     86          6           0        5.473590    3.265903    2.229848
     87          6           0        4.509167    1.133667    3.272568
     88          1           0        4.828818    0.506850    2.425760
     89          8           0        5.954143    3.059629    1.107647
     90          6           0        5.665129    1.174192    4.282712
     91          1           0        5.508227    1.903119    5.083563
     92          1           0        6.610969    1.439923    3.801927
     93          1           0        5.788781    0.183682    4.734443
     94          6           0        3.248042    0.514701    3.898588
     95          1           0        2.906005    1.122726    4.745513
     96          1           0        3.467382   -0.489331    4.278278
     97          1           0        2.422975    0.425080    3.182362
     98          7           0        5.958279    4.111931    3.154766
     99          1           0        5.614134    4.041053    4.139088
    100          6           0        7.371028    4.475178    3.315820
    101          1           0        7.992001    3.747655    2.781293
    102          6           0        7.640620    4.332373    4.890629
    103          6           0        7.783749    5.895493    2.890424
    104          1           0        8.755990    6.033430    3.372652
    105          1           0        7.106625    6.622577    3.364277
    106          8           0        8.811258    4.528374    5.239195
    107          6           0        7.923834    6.199699    1.378942
    108          1           0        8.808802    6.825475    1.213337
    109          1           0        8.092442    5.266190    0.826704
    110          6           0        6.724610    6.941303    0.749226
    111          1           0        6.562328    7.891837    1.278621
    112          1           0        6.943401    7.184038   -0.301301
    113          6           0        5.495487    6.066028    0.844191
    114          1           0        5.239541    5.834461    1.877604
    115          1           0        5.641512    5.108975    0.341388
    116          7           0        4.235220    6.666773    0.251577
    117          1           0        3.483570    5.942082    0.408589
    118          1           0        3.977159    7.539079    0.721316
    119          1           0        4.332453    6.860943   -0.748332
    120          8           0        6.604009    4.062868    5.569787
    121          1           0        1.150250    1.969032   -7.103746
 ---------------------------------------------------------------------

 SCF Done:  E(RB3LYP) =  -2843.77331785     A.U. after    3 cycles

 Alpha  occ. eigenvalues --  -19.29305 -19.29233 -19.24789 -19.24078 -19.21857
 Alpha  occ. eigenvalues --  -19.21249 -19.20293 -19.19626 -19.13319 -19.05434
 Alpha  occ. eigenvalues --  -19.04141 -14.62211 -14.52355 -14.51907 -14.48222
 Alpha  occ. eigenvalues --  -14.46299 -14.46102 -14.44098 -14.41927 -14.35091
 Alpha  occ. eigenvalues --  -10.45917 -10.43519 -10.42092 -10.41496 -10.38775
 Alpha  occ. eigenvalues --  -10.37052 -10.36583 -10.36061 -10.35911 -10.34290
 Alpha  occ. eigenvalues --  -10.31955 -10.31741 -10.30995 -10.30982 -10.30741
 Alpha  occ. eigenvalues --  -10.30721 -10.30046 -10.29638 -10.29585 -10.29004
 Alpha  occ. eigenvalues --  -10.27756 -10.27709 -10.27620 -10.27561 -10.27446
 Alpha  occ. eigenvalues --  -10.26929 -10.26732 -10.26705 -10.26168 -10.26009
 Alpha  occ. eigenvalues --  -10.24740 -10.24671 -10.23132 -10.23122 -10.21443
 Alpha  occ. eigenvalues --  -10.21097 -10.20486 -10.18804 -10.18577  -1.21647
 Alpha  occ. eigenvalues --   -1.20359  -1.16627  -1.15946  -1.13843  -1.12088
 Alpha  occ. eigenvalues --   -1.11317  -1.10685  -1.08924  -1.08525  -1.06857
 Alpha  occ. eigenvalues --   -1.06703  -1.04738  -1.04627  -1.02488  -1.00316
 Alpha  occ. eigenvalues --   -0.98535  -0.98305  -0.95761  -0.92802  -0.92335
 Alpha  occ. eigenvalues --   -0.91946  -0.90511  -0.89448  -0.89080  -0.86941
 Alpha  occ. eigenvalues --   -0.85849  -0.85041  -0.84029  -0.83764  -0.83327
 Alpha  occ. eigenvalues --   -0.82159  -0.81172  -0.80531  -0.78212  -0.77957
 Alpha  occ. eigenvalues --   -0.77613  -0.76488  -0.76273  -0.75065  -0.74931
 Alpha  occ. eigenvalues --   -0.74321  -0.73101  -0.72400  -0.71411  -0.70996
 Alpha  occ. eigenvalues --   -0.70887  -0.70004  -0.69242  -0.68952  -0.68345
 Alpha  occ. eigenvalues --   -0.67866  -0.67654  -0.66700  -0.66355  -0.66264
 Alpha  occ. eigenvalues --   -0.65898  -0.65466  -0.65153  -0.63152  -0.62736
 Alpha  occ. eigenvalues --   -0.62400  -0.61755  -0.61286  -0.60967  -0.60595
 Alpha  occ. eigenvalues --   -0.60544  -0.59823  -0.59484  -0.59192  -0.58193
 Alpha  occ. eigenvalues --   -0.58139  -0.57863  -0.57198  -0.57105  -0.56919
 Alpha  occ. eigenvalues --   -0.56529  -0.56490  -0.56190  -0.56134  -0.55753
 Alpha  occ. eigenvalues --   -0.55201  -0.54950  -0.54164  -0.53989  -0.53903
 Alpha  occ. eigenvalues --   -0.53307  -0.53064  -0.52787  -0.52500  -0.52171
 Alpha  occ. eigenvalues --   -0.51865  -0.51675  -0.51640  -0.51413  -0.50965
 Alpha  occ. eigenvalues --   -0.50640  -0.50417  -0.49928  -0.49439  -0.49086
 Alpha  occ. eigenvalues --   -0.49059  -0.48631  -0.48496  -0.48196  -0.47959
 Alpha  occ. eigenvalues --   -0.47419  -0.47192  -0.47028  -0.46756  -0.46702
 Alpha  occ. eigenvalues --   -0.46312  -0.46206  -0.45935  -0.45680  -0.45437
 Alpha  occ. eigenvalues --   -0.45356  -0.45005  -0.44567  -0.44495  -0.44199
 Alpha  occ. eigenvalues --   -0.44100  -0.43817  -0.43172  -0.42522  -0.42411
 Alpha  occ. eigenvalues --   -0.42136  -0.41894  -0.41812  -0.41541  -0.41509
 Alpha  occ. eigenvalues --   -0.41460  -0.41193  -0.40718  -0.40387  -0.39998
 Alpha  occ. eigenvalues --   -0.39501  -0.39289  -0.38765  -0.38611  -0.37290
 Alpha  occ. eigenvalues --   -0.37140  -0.36975  -0.36701  -0.36258  -0.36202
 Alpha  occ. eigenvalues --   -0.36045  -0.35715  -0.35153  -0.34867  -0.34575
 Alpha  occ. eigenvalues --   -0.34127  -0.34010  -0.33334  -0.32459  -0.32060
 Alpha  occ. eigenvalues --   -0.32036  -0.31105  -0.29319  -0.27448  -0.26601
 Alpha  occ. eigenvalues --   -0.20399  -0.20334  -0.18231
 Alpha virt. eigenvalues --   -0.14543  -0.13224  -0.10994  -0.09999  -0.09059
 Alpha virt. eigenvalues --   -0.08543  -0.08265  -0.06940  -0.06465  -0.06278
 Alpha virt. eigenvalues --   -0.05635  -0.04831  -0.03772  -0.03525  -0.03118

 Mulliken charges:
               1
     1  N   -0.756861
     2  H    0.421579
     3  H    0.418522
     4  H    0.438259
     5  C   -0.107587
     6  H    0.227549
     7  C    0.655986
     8  C   -0.482411
     9  H    0.218492
    10  H    0.201411
    11  H    0.199047
    12  O   -0.538338
    13  N   -0.607999
    14  H    0.371951
    15  C   -0.061465
    16  H    0.200035
    17  C    0.633509
    18  C   -0.351212
    19  H    0.181180
    20  H    0.163252
    21  O   -0.563583
    22  C    0.039530
    23  C    0.006425
    24  H    0.168708
    25  C    0.028694
    26  C    0.303179
    27  C   -0.226219
    28  H    0.132894
    29  N   -0.652642
    30  H    0.356833
    31  C   -0.151633
    32  H    0.147290
    33  C   -0.162029
    34  H    0.149524
    35  C   -0.137112
    36  H    0.140568
    37  N   -0.604233
    38  H    0.373428
    39  C   -0.054199
    40  H    0.178154
    41  C    0.636865
    42  C   -0.290471
    43  H    0.176694
    44  H    0.183543
    45  O   -0.555448
    46  C   -0.375825
    47  H    0.195491
    48  H    0.187847
    49  C    0.599968
    50  O   -0.478790
    51  O   -0.545331
    52  N   -0.602869
    53  H    0.362656
    54  C   -0.032087
    55  H    0.159880
    56  C    0.625226
    57  C   -0.103595
    58  H    0.159793
    59  O   -0.541416
    60  C   -0.467247
    61  H    0.144570
    62  H    0.162480
    63  H    0.184090
    64  C   -0.467973
    65  H    0.144684
    66  H    0.142164
    67  H    0.159930
    68  N   -0.615935
    69  H    0.381584
    70  C   -0.071168
    71  H    0.166782
    72  C    0.666891
    73  C    0.134778
    74  H    0.139359
    75  O   -0.607173
    76  C   -0.517665
    77  H    0.169256
    78  H    0.172516
    79  H    0.158172
    80  O   -0.684937
    81  H    0.446361
    82  N   -0.600248
    83  H    0.381483
    84  C   -0.014277
    85  H    0.163460
    86  C    0.600280
    87  C   -0.113355
    88  H    0.135271
    89  O   -0.584423
    90  C   -0.475280
    91  H    0.201924
    92  H    0.171918
    93  H    0.137688
    94  C   -0.470498
    95  H    0.151127
    96  H    0.150167
    97  H    0.151630
    98  N   -0.613094
    99  H    0.360612
   100  C   -0.074113
   101  H    0.146446
   102  C    0.585929
   103  C   -0.284730
   104  H    0.191062
   105  H    0.118560
   106  O   -0.570616
   107  C   -0.265555
   108  H    0.144924
   109  H    0.160554
   110  C   -0.279119
   111  H    0.140926
   112  H    0.128648
   113  C   -0.225243
   114  H    0.237115
   115  H    0.238565
   116  N   -0.768333
   117  H    0.451103
   118  H    0.391977
   119  H    0.384957
   120  O   -0.617145
   121  H    0.427578
 Sum of Mulliken charges =   1.00000

 Dipole moment (field-independent basis, Debye):
    X=            -39.1673    Y=            -20.3756    Z=            -27.2140  Tot=             51.8637
 Quadrupole moment (field-independent basis, Debye-Ang):
   XX=           -310.9718   YY=           -108.7451   ZZ=           -366.1486
   XY=            141.2145   XZ=            -68.1471   YZ=            -21.7762

 Normal termination of Gaussian 16 at Sat Jun 25 08:59:37 2022.
