 Gaussian 16, Revision C.01,
 Gaussian 16:  ES64L-G16RevC.01  3-Jul-2019

 ----------------------------------------------------------------------
 # B3LYP/6-31G* empiricaldispersion=gd3 guess=read geom=check nosymm in
 tegral(ultrafinegrid)
 ----------------------------------------------------------------------

 ------------------------------------------------------
 Candidate Structure: Conf:684 Charge calc in gas phase
 ------------------------------------------------------
 Structure from the checkpoint file:  "conf-684.chk"
 Charge =  1 Multiplicity = 1

                          Input orientation:
 ---------------------------------------------------------------------
 Center     Atomic      Atomic             Coordinates (Angstroms)
 Number     Number       Type             X           Y           Z
 ---------------------------------------------------------------------
      1          7           0       -4.079485    2.277279   -1.827218
      2          1           0       -4.204263    1.467350   -1.202435
      3          1           0       -4.370274    3.143513   -1.368524
      4          1           0       -3.037225    2.287644   -2.051099
      5          6           0       -4.837277    2.004043   -3.104781
      6          1           0       -5.903627    2.021911   -2.854003
      7          6           0       -4.419422    0.551752   -3.437517
      8          6           0       -4.494954    3.063546   -4.146926
      9          1           0       -5.063049    2.890988   -5.065300
     10          1           0       -4.762934    4.063710   -3.790212
     11          1           0       -3.425607    3.043440   -4.375897
     12          8           0       -4.056068   -0.172882   -2.510953
     13          7           0       -4.387207    0.180914   -4.729377
     14          1           0       -4.885550    0.692449   -5.451630
     15          6           0       -3.823738   -1.119791   -5.105314
     16          1           0       -4.378753   -1.918198   -4.607733
     17          6           0       -2.369633   -1.230843   -4.601495
     18          6           0       -3.896890   -1.280666   -6.644437
     19          1           0       -3.151608   -0.622155   -7.107071
     20          1           0       -3.594722   -2.309593   -6.869993
     21          8           0       -1.908769   -2.281995   -4.198163
     22          6           0       -5.259381   -0.973272   -7.186017
     23          6           0       -5.594241    0.080281   -8.007925
     24          1           0       -4.954758    0.819229   -8.473028
     25          6           0       -6.484598   -1.681416   -6.903456
     26          6           0       -7.524885   -1.005796   -7.595625
     27          6           0       -6.798129   -2.820996   -6.141383
     28          1           0       -6.020603   -3.368311   -5.615211
     29          7           0       -6.952862    0.069200   -8.251574
     30          1           0       -7.430769    0.671598   -8.904250
     31          6           0       -9.135201   -2.561300   -6.784775
     32          1           0      -10.157081   -2.924432   -6.727839
     33          6           0       -8.855835   -1.433199   -7.546698
     34          1           0       -9.638907   -0.908371   -8.086644
     35          6           0       -8.117837   -3.249043   -6.089447
     36          1           0       -8.374341   -4.131310   -5.510644
     37          7           0       -1.646012   -0.064484   -4.717577
     38          1           0       -2.174045    0.774692   -4.918840
     39          6           0       -0.442023    0.167264   -3.935689
     40          1           0       -0.051269   -0.817319   -3.664162
     41          6           0       -0.859536    0.958409   -2.679043
     42          6           0        0.600919    0.958939   -4.768409
     43          1           0        0.446904    0.677840   -5.814695
     44          1           0        0.399660    2.032498   -4.680990
     45          8           0       -1.624185    1.943266   -2.816924
     46          6           0        2.070591    0.674239   -4.403700
     47          1           0        2.310936   -0.378811   -4.572255
     48          1           0        2.712593    1.284655   -5.047033
     49          6           0        2.360953    1.047173   -2.965259
     50          8           0        2.281152    2.184334   -2.534367
     51          8           0        2.625378   -0.029256   -2.209368
     52          7           0       -0.383507    0.550405   -1.499626
     53          1           0        0.282627   -0.216750   -1.491458
     54          6           0       -0.440003    1.326120   -0.253695
     55          1           0       -1.004845    2.238295   -0.465637
     56          6           0        1.012413    1.644348    0.114564
     57          6           0       -1.098449    0.537830    0.902693
     58          1           0       -0.529296   -0.396208    0.996801
     59          8           0        1.817502    0.704896    0.227276
     60          6           0       -0.978959    1.314937    2.223443
     61          1           0       -1.492864    2.283607    2.152082
     62          1           0       -1.454166    0.749571    3.031527
     63          1           0        0.059617    1.507896    2.509888
     64          6           0       -2.558874    0.199272    0.586288
     65          1           0       -3.168559    1.116822    0.617935
     66          1           0       -2.678786   -0.280314   -0.390135
     67          1           0       -2.969700   -0.473530    1.345449
     68          7           0        1.324165    2.920248    0.331218
     69          1           0        0.688195    3.669928    0.085873
     70          6           0        2.676122    3.333915    0.666592
     71          1           0        3.324042    3.131853   -0.197708
     72          6           0        3.144220    2.556042    1.913196
     73          6           0        2.640524    4.851009    0.963022
     74          1           0        2.104062    4.985183    1.908015
     75          8           0        2.403003    2.431063    2.884953
     76          6           0        4.037608    5.451747    1.054616
     77          1           0        4.626604    4.962376    1.836510
     78          1           0        4.574790    5.330010    0.104514
     79          1           0        3.969651    6.519401    1.279708
     80          8           0        1.828932    5.518674   -0.010892
     81          1           0        2.312948    5.509228   -0.854413
     82          7           0        4.408071    2.094187    1.853151
     83          1           0        4.963239    2.162232    1.006616
     84          6           0        4.979688    1.230762    2.875229
     85          1           0        4.776590    1.673341    3.856476
     86          6           0        6.487880    1.197045    2.596967
     87          6           0        4.335090   -0.191864    2.833410
     88          1           0        3.257913    0.002566    2.890991
     89          8           0        6.928057    1.423535    1.465682
     90          6           0        4.623085   -0.915292    1.512112
     91          1           0        5.689872   -1.139290    1.397778
     92          1           0        4.307266   -0.312947    0.655029
     93          1           0        4.073830   -1.862256    1.475449
     94          6           0        4.726372   -1.046764    4.046269
     95          1           0        5.781198   -1.341385    4.031128
     96          1           0        4.132189   -1.966889    4.060990
     97          1           0        4.535885   -0.519493    4.989686
     98          7           0        7.278781    0.881339    3.644823
     99          1           0        6.872304    0.523024    4.502868
    100          6           0        8.679308    0.532229    3.444867
    101          1           0        8.736631   -0.133830    2.570888
    102          6           0        9.094223   -0.310832    4.672133
    103          6           0        9.574605    1.758321    3.162329
    104          1           0        9.976674    2.135645    4.109250
    105          1           0        8.945780    2.551120    2.750869
    106          8           0       10.383353   -0.494377    4.921267
    107          6           0       10.691479    1.423086    2.155855
    108          1           0       10.991012    0.374275    2.272936
    109          1           0       10.277307    1.497636    1.143522
    110          6           0       11.946710    2.298370    2.270994
    111          1           0       12.676578    1.965008    1.520468
    112          1           0       11.715330    3.343995    2.030807
    113          6           0       12.594998    2.254277    3.663096
    114          1           0       12.010553    2.847315    4.374456
    115          1           0       13.595281    2.708991    3.618878
    116          7           0       12.625649    0.870604    4.184165
    117          1           0       13.059738    0.850137    5.106597
    118          1           0       11.066814    0.083975    4.453998
    119          1           0       13.208174    0.284430    3.585183
    120          8           0        8.241191   -0.828531    5.369641
    121          1           0        2.645336    0.251302   -1.256889
 ---------------------------------------------------------------------

 SCF Done:  E(RB3LYP) =  -2843.85075253     A.U. after    1 cycles

 Alpha  occ. eigenvalues --  -19.26316 -19.25083 -19.24742 -19.23178 -19.21508
 Alpha  occ. eigenvalues --  -19.21478 -19.21060 -19.20723 -19.17410 -19.17408
 Alpha  occ. eigenvalues --  -19.17193 -14.57107 -14.48798 -14.48131 -14.46231
 Alpha  occ. eigenvalues --  -14.45200 -14.45137 -14.41778 -14.41125 -14.40399
 Alpha  occ. eigenvalues --  -10.42398 -10.41063 -10.39735 -10.39693 -10.38136
 Alpha  occ. eigenvalues --  -10.38008 -10.35949 -10.34945 -10.34212 -10.33666
 Alpha  occ. eigenvalues --  -10.33496 -10.33468 -10.32683 -10.31923 -10.30782
 Alpha  occ. eigenvalues --  -10.30592 -10.29731 -10.29331 -10.29055 -10.28807
 Alpha  occ. eigenvalues --  -10.28583 -10.28529 -10.28197 -10.27596 -10.27203
 Alpha  occ. eigenvalues --  -10.26852 -10.26277 -10.26265 -10.26045 -10.25701
 Alpha  occ. eigenvalues --  -10.25267 -10.25013 -10.24817 -10.24328 -10.24189
 Alpha  occ. eigenvalues --  -10.24001 -10.23847 -10.21849 -10.21817  -1.17796
 Alpha  occ. eigenvalues --   -1.17645  -1.15763  -1.13109  -1.12996  -1.12796
 Alpha  occ. eigenvalues --   -1.11688  -1.10474  -1.09654  -1.08879  -1.08725
 Alpha  occ. eigenvalues --   -1.06150  -1.05408  -1.04840  -1.04299  -1.01965
 Alpha  occ. eigenvalues --   -1.01469  -0.98449  -0.97788  -0.96127  -0.92426
 Alpha  occ. eigenvalues --   -0.91357  -0.90575  -0.89500  -0.88921  -0.86582
 Alpha  occ. eigenvalues --   -0.85636  -0.85152  -0.84499  -0.82945  -0.81081
 Alpha  occ. eigenvalues --   -0.80791  -0.80728  -0.80317  -0.79549  -0.78316
 Alpha  occ. eigenvalues --   -0.76903  -0.76280  -0.75506  -0.74230  -0.73735
 Alpha  occ. eigenvalues --   -0.72894  -0.72433  -0.72224  -0.70722  -0.69923
 Alpha  occ. eigenvalues --   -0.69901  -0.69368  -0.68982  -0.68241  -0.67984
 Alpha  occ. eigenvalues --   -0.67206  -0.66892  -0.66538  -0.65965  -0.65594
 Alpha  occ. eigenvalues --   -0.65167  -0.64597  -0.63480  -0.63346  -0.62842
 Alpha  occ. eigenvalues --   -0.62078  -0.61808  -0.61424  -0.60832  -0.60248
 Alpha  occ. eigenvalues --   -0.59622  -0.59120  -0.58609  -0.58121  -0.57872
 Alpha  occ. eigenvalues --   -0.57420  -0.56994  -0.56838  -0.56426  -0.56000
 Alpha  occ. eigenvalues --   -0.55630  -0.55232  -0.54791  -0.54731  -0.54496
 Alpha  occ. eigenvalues --   -0.53879  -0.53633  -0.53217  -0.53166  -0.52812
 Alpha  occ. eigenvalues --   -0.52701  -0.52591  -0.52284  -0.51809  -0.51591
 Alpha  occ. eigenvalues --   -0.51357  -0.51224  -0.51081  -0.50902  -0.50522
 Alpha  occ. eigenvalues --   -0.50396  -0.50255  -0.49999  -0.49763  -0.49676
 Alpha  occ. eigenvalues --   -0.49414  -0.49249  -0.48882  -0.48855  -0.48149
 Alpha  occ. eigenvalues --   -0.48076  -0.47919  -0.47909  -0.47551  -0.47392
 Alpha  occ. eigenvalues --   -0.47057  -0.46612  -0.46294  -0.46027  -0.45900
 Alpha  occ. eigenvalues --   -0.45574  -0.45375  -0.45208  -0.44972  -0.44632
 Alpha  occ. eigenvalues --   -0.44415  -0.44332  -0.43899  -0.43716  -0.43344
 Alpha  occ. eigenvalues --   -0.43239  -0.42931  -0.42719  -0.42466  -0.42231
 Alpha  occ. eigenvalues --   -0.41989  -0.41879  -0.41022  -0.40874  -0.40554
 Alpha  occ. eigenvalues --   -0.40323  -0.39513  -0.39388  -0.39301  -0.39266
 Alpha  occ. eigenvalues --   -0.38795  -0.38670  -0.38436  -0.38270  -0.38140
 Alpha  occ. eigenvalues --   -0.38129  -0.38005  -0.36340  -0.35363  -0.35076
 Alpha  occ. eigenvalues --   -0.35046  -0.34720  -0.34531  -0.34432  -0.33800
 Alpha  occ. eigenvalues --   -0.33242  -0.32230  -0.31325  -0.30896  -0.30773
 Alpha  occ. eigenvalues --   -0.30213  -0.30012  -0.28515
 Alpha virt. eigenvalues --   -0.12215  -0.10462  -0.09040  -0.08008  -0.07577
 Alpha virt. eigenvalues --   -0.07040  -0.06609  -0.05084  -0.04577  -0.04278
 Alpha virt. eigenvalues --   -0.03401  -0.02705  -0.02677  -0.02200  -0.01769

 Mulliken charges:
               1
     1  N   -0.774652
     2  H    0.422890
     3  H    0.396127
     4  H    0.453975
     5  C   -0.119654
     6  H    0.224000
     7  C    0.661085
     8  C   -0.483947
     9  H    0.189092
    10  H    0.183989
    11  H    0.207470
    12  O   -0.515447
    13  N   -0.645171
    14  H    0.347069
    15  C   -0.024169
    16  H    0.206981
    17  C    0.613341
    18  C   -0.391040
    19  H    0.157144
    20  H    0.199639
    21  O   -0.489751
    22  C    0.035622
    23  C   -0.023310
    24  H    0.159375
    25  C    0.091987
    26  C    0.307318
    27  C   -0.212803
    28  H    0.138970
    29  N   -0.683838
    30  H    0.340388
    31  C   -0.148066
    32  H    0.145695
    33  C   -0.160555
    34  H    0.140017
    35  C   -0.138929
    36  H    0.142694
    37  N   -0.599020
    38  H    0.330085
    39  C   -0.057968
    40  H    0.201640
    41  C    0.651885
    42  C   -0.297340
    43  H    0.176787
    44  H    0.175673
    45  O   -0.620691
    46  C   -0.340087
    47  H    0.185950
    48  H    0.189217
    49  C    0.565736
    50  O   -0.490292
    51  O   -0.594709
    52  N   -0.576049
    53  H    0.370569
    54  C   -0.060059
    55  H    0.137437
    56  C    0.688397
    57  C   -0.076566
    58  H    0.166950
    59  O   -0.599382
    60  C   -0.486992
    61  H    0.127352
    62  H    0.163950
    63  H    0.221418
    64  C   -0.483592
    65  H    0.093443
    66  H    0.190405
    67  H    0.180460
    68  N   -0.590057
    69  H    0.351505
    70  C   -0.046442
    71  H    0.163599
    72  C    0.652182
    73  C    0.097394
    74  H    0.178826
    75  O   -0.543539
    76  C   -0.476554
    77  H    0.177134
    78  H    0.145058
    79  H    0.178310
    80  O   -0.630018
    81  H    0.400396
    82  N   -0.617545
    83  H    0.351242
    84  C   -0.047313
    85  H    0.171915
    86  C    0.623694
    87  C   -0.080051
    88  H    0.168893
    89  O   -0.559849
    90  C   -0.455989
    91  H    0.152562
    92  H    0.145349
    93  H    0.146801
    94  C   -0.476892
    95  H    0.168175
    96  H    0.153969
    97  H    0.148007
    98  N   -0.623693
    99  H    0.364728
   100  C   -0.047409
   101  H    0.188374
   102  C    0.582807
   103  C   -0.282612
   104  H    0.144436
   105  H    0.174619
   106  O   -0.617198
   107  C   -0.277541
   108  H    0.136545
   109  H    0.163675
   110  C   -0.277924
   111  H    0.143400
   112  H    0.151071
   113  C   -0.140148
   114  H    0.160446
   115  H    0.147309
   116  N   -0.771963
   117  H    0.337052
   118  H    0.484783
   119  H    0.327140
   120  O   -0.473427
   121  H    0.466625
 Sum of Mulliken charges =   1.00000

 Dipole moment (field-independent basis, Debye):
    X=             -6.9026    Y=             14.0825    Z=            -15.9937  Tot=             22.4000
 Quadrupole moment (field-independent basis, Debye-Ang):
   XX=            -65.8846   YY=           -318.5306   ZZ=           -248.9671
   XY=              3.1678   XZ=            111.5409   YZ=            -20.2809

 Normal termination of Gaussian 16 at Sat Jun 25 09:15:50 2022.
