 Gaussian 16, Revision C.01,
 Gaussian 16:  ES64L-G16RevC.01  3-Jul-2019

 ----------------------------------------------------------------------
 # B3LYP/6-31G* empiricaldispersion=gd3 guess=read geom=check nosymm in
 tegral(ultrafinegrid)
 ----------------------------------------------------------------------

 ------------------------------------------------------
 Candidate Structure: Conf:205 Charge calc in gas phase
 ------------------------------------------------------
 Structure from the checkpoint file:  "conf-205.chk"
 Charge =  1 Multiplicity = 1

                          Input orientation:
 ---------------------------------------------------------------------
 Center     Atomic      Atomic             Coordinates (Angstroms)
 Number     Number       Type             X           Y           Z
 ---------------------------------------------------------------------
      1          7           0       -4.036788   -4.868141   -6.431318
      2          1           0       -3.373492   -5.231472   -7.120994
      3          1           0       -3.553878   -4.302145   -5.684893
      4          1           0       -4.715547   -4.237476   -6.877149
      5          6           0       -4.811067   -5.958474   -5.699250
      6          1           0       -5.466824   -6.429134   -6.436445
      7          6           0       -5.655126   -5.073433   -4.742921
      8          6           0       -3.830975   -6.948884   -5.086878
      9          1           0       -4.378417   -7.713994   -4.527862
     10          1           0       -3.258365   -7.466693   -5.863751
     11          1           0       -3.133731   -6.445738   -4.408294
     12          8           0       -6.286875   -4.152571   -5.247404
     13          7           0       -5.493059   -5.260674   -3.410668
     14          1           0       -4.858450   -6.000443   -3.123698
     15          6           0       -5.327175   -4.074405   -2.580068
     16          1           0       -6.259275   -3.503410   -2.555693
     17          6           0       -4.214825   -3.190044   -3.212670
     18          6           0       -4.950296   -4.525134   -1.134704
     19          1           0       -4.666740   -3.637178   -0.558286
     20          1           0       -5.859057   -4.925445   -0.673306
     21          8           0       -3.460314   -3.624499   -4.102651
     22          6           0       -3.860706   -5.560382   -1.086326
     23          6           0       -4.051550   -6.915977   -0.919922
     24          1           0       -4.968847   -7.461543   -0.741092
     25          6           0       -2.436030   -5.365078   -1.234318
     26          6           0       -1.826942   -6.645367   -1.150248
     27          6           0       -1.615781   -4.236220   -1.398292
     28          1           0       -2.047918   -3.246607   -1.439736
     29          7           0       -2.839324   -7.571924   -0.974468
     30          1           0       -2.701268   -8.549900   -0.768758
     31          6           0        0.340030   -5.683847   -1.403717
     32          1           0        1.419432   -5.784624   -1.467520
     33          6           0       -0.440782   -6.821537   -1.237147
     34          1           0        0.007968   -7.808350   -1.165372
     35          6           0       -0.240246   -4.399094   -1.479944
     36          1           0        0.399154   -3.528123   -1.598251
     37          7           0       -4.097487   -1.961312   -2.700806
     38          1           0       -4.698223   -1.663224   -1.937095
     39          6           0       -2.949736   -1.084642   -2.945136
     40          1           0       -2.196865   -1.670474   -3.468136
     41          6           0       -2.458077   -0.650448   -1.554932
     42          6           0       -3.334138    0.141492   -3.804248
     43          1           0       -3.416235   -0.192883   -4.843665
     44          1           0       -4.323595    0.490010   -3.489453
     45          8           0       -3.253988   -0.201281   -0.731222
     46          6           0       -2.358930    1.320261   -3.686733
     47          1           0       -2.624356    2.102640   -4.408043
     48          1           0       -2.445733    1.790072   -2.700246
     49          6           0       -0.895497    0.963511   -3.891924
     50          8           0       -0.498762   -0.129350   -4.270312
     51          8           0       -0.101033    1.978156   -3.565805
     52          7           0       -1.134629   -0.817194   -1.354278
     53          1           0       -0.561021   -1.144884   -2.125179
     54          6           0       -0.391245   -0.287235   -0.213685
     55          1           0       -0.929267    0.590958    0.161039
     56          6           0        0.973790    0.091175   -0.790699
     57          6           0       -0.214766   -1.308710    0.942631
     58          1           0        0.307608   -2.175341    0.516982
     59          8           0        1.571168   -0.716781   -1.525621
     60          6           0        0.650001   -0.709821    2.063211
     61          1           0        0.196192    0.204752    2.466037
     62          1           0        0.743721   -1.422421    2.888869
     63          1           0        1.661232   -0.461250    1.724721
     64          6           0       -1.570659   -1.771256    1.489686
     65          1           0       -2.146516   -0.926981    1.883606
     66          1           0       -2.175819   -2.254807    0.719129
     67          1           0       -1.417389   -2.493676    2.298908
     68          7           0        1.466152    1.292125   -0.470270
     69          1           0        0.970964    1.942325    0.137295
     70          6           0        2.834290    1.700680   -0.761645
     71          1           0        3.488937    0.826854   -0.652260
     72          6           0        3.162752    2.768362    0.308995
     73          6           0        2.981360    2.248496   -2.203283
     74          1           0        2.368872    3.155806   -2.278686
     75          8           0        2.240584    3.402645    0.827673
     76          6           0        4.427239    2.554352   -2.586915
     77          1           0        4.866662    3.347033   -1.974973
     78          1           0        5.046762    1.655052   -2.483968
     79          1           0        4.452147    2.860176   -3.637114
     80          8           0        2.439463    1.315585   -3.159886
     81          1           0        2.367198    0.423990   -2.749044
     82          7           0        4.459486    2.907268    0.608731
     83          1           0        5.184530    2.435680    0.074066
     84          6           0        4.995918    3.936367    1.494665
     85          1           0        4.249379    4.731805    1.579939
     86          6           0        6.275623    4.437979    0.790858
     87          6           0        5.304223    3.370316    2.916041
     88          1           0        6.184032    2.717699    2.814766
     89          8           0        6.871470    3.671084    0.007954
     90          6           0        5.625373    4.489963    3.918777
     91          1           0        4.760066    5.155084    4.038161
     92          1           0        6.476369    5.114841    3.637568
     93          1           0        5.840653    4.054225    4.900834
     94          6           0        4.129960    2.523702    3.433497
     95          1           0        3.207316    3.114176    3.460236
     96          1           0        4.341973    2.171746    4.449065
     97          1           0        3.948486    1.645041    2.805629
     98          7           0        6.663357    5.676593    1.092586
     99          1           0        6.234620    6.206891    1.871665
    100          6           0        8.020396    6.194685    0.947537
    101          1           0        8.735826    5.381684    1.128422
    102          6           0        8.204325    7.278710    2.105830
    103          6           0        8.322784    6.832203   -0.404701
    104          1           0        9.239975    7.413191   -0.249986
    105          1           0        7.523253    7.543569   -0.655102
    106          8           0        9.277758    7.899869    2.062464
    107          6           0        8.512887    5.834157   -1.551031
    108          1           0        9.249915    5.076511   -1.253074
    109          1           0        7.585032    5.287854   -1.750956
    110          6           0        9.005253    6.551774   -2.819377
    111          1           0        8.255344    7.286959   -3.145820
    112          1           0        9.924806    7.106616   -2.581906
    113          6           0        9.279081    5.562279   -3.935274
    114          1           0        8.378733    5.045582   -4.276498
    115          1           0       10.035754    4.822720   -3.662043
    116          7           0        9.839351    6.297063   -5.168471
    117          1           0       10.045121    5.668179   -5.953776
    118          1           0        9.172540    7.007165   -5.493716
    119          1           0       10.705238    6.791293   -4.920853
    120          8           0        7.225842    7.351728    2.899559
    121          1           0        0.860546    1.684030   -3.578552
 ---------------------------------------------------------------------

 SCF Done:  E(RB3LYP) =  -2843.76009905     A.U. after    3 cycles

 Alpha  occ. eigenvalues --  -19.24404 -19.23692 -19.23280 -19.21798 -19.19888
 Alpha  occ. eigenvalues --  -19.19327 -19.19319 -19.17118 -19.14024 -19.05701
 Alpha  occ. eigenvalues --  -19.04710 -14.61999 -14.57888 -14.47081 -14.46926
 Alpha  occ. eigenvalues --  -14.46717 -14.43685 -14.43551 -14.40707 -14.35936
 Alpha  occ. eigenvalues --  -10.41624 -10.40274 -10.39179 -10.38358 -10.37728
 Alpha  occ. eigenvalues --  -10.36597 -10.36417 -10.34626 -10.34464 -10.32088
 Alpha  occ. eigenvalues --  -10.31494 -10.31180 -10.31100 -10.30650 -10.30449
 Alpha  occ. eigenvalues --  -10.30297 -10.30184 -10.29982 -10.29722 -10.27635
 Alpha  occ. eigenvalues --  -10.27179 -10.26752 -10.26701 -10.26609 -10.26175
 Alpha  occ. eigenvalues --  -10.26114 -10.26106 -10.25752 -10.25525 -10.24333
 Alpha  occ. eigenvalues --  -10.23862 -10.23700 -10.23307 -10.22850 -10.22130
 Alpha  occ. eigenvalues --  -10.21328 -10.20542 -10.19897 -10.18241  -1.17338
 Alpha  occ. eigenvalues --   -1.15799  -1.15136  -1.14717  -1.12081  -1.12046
 Alpha  occ. eigenvalues --   -1.11161  -1.09107  -1.08517  -1.06580  -1.06234
 Alpha  occ. eigenvalues --   -1.05266  -1.04635  -1.03173  -1.00302  -0.99882
 Alpha  occ. eigenvalues --   -0.98791  -0.97287  -0.93009  -0.92074  -0.91597
 Alpha  occ. eigenvalues --   -0.91276  -0.90040  -0.89644  -0.88453  -0.86827
 Alpha  occ. eigenvalues --   -0.85113  -0.84868  -0.82798  -0.82155  -0.81504
 Alpha  occ. eigenvalues --   -0.81446  -0.80366  -0.79672  -0.79087  -0.77080
 Alpha  occ. eigenvalues --   -0.76643  -0.75718  -0.74639  -0.74449  -0.74068
 Alpha  occ. eigenvalues --   -0.73091  -0.72768  -0.72355  -0.71002  -0.70289
 Alpha  occ. eigenvalues --   -0.70089  -0.69957  -0.68724  -0.68594  -0.68072
 Alpha  occ. eigenvalues --   -0.67535  -0.66669  -0.66139  -0.65179  -0.64976
 Alpha  occ. eigenvalues --   -0.64754  -0.64453  -0.63749  -0.63335  -0.62760
 Alpha  occ. eigenvalues --   -0.62082  -0.61972  -0.61480  -0.60158  -0.59269
 Alpha  occ. eigenvalues --   -0.58943  -0.58505  -0.58184  -0.58016  -0.57461
 Alpha  occ. eigenvalues --   -0.57198  -0.56852  -0.56552  -0.56026  -0.55424
 Alpha  occ. eigenvalues --   -0.55019  -0.54819  -0.54630  -0.54236  -0.53418
 Alpha  occ. eigenvalues --   -0.53339  -0.52753  -0.52315  -0.52156  -0.52078
 Alpha  occ. eigenvalues --   -0.52041  -0.51789  -0.51613  -0.51462  -0.51325
 Alpha  occ. eigenvalues --   -0.51082  -0.51055  -0.50578  -0.50489  -0.49809
 Alpha  occ. eigenvalues --   -0.49526  -0.49456  -0.49124  -0.49054  -0.48126
 Alpha  occ. eigenvalues --   -0.47896  -0.47652  -0.47490  -0.47330  -0.46896
 Alpha  occ. eigenvalues --   -0.46600  -0.46378  -0.46105  -0.46020  -0.45521
 Alpha  occ. eigenvalues --   -0.45444  -0.45065  -0.45023  -0.44923  -0.44468
 Alpha  occ. eigenvalues --   -0.44195  -0.43770  -0.43657  -0.43413  -0.43153
 Alpha  occ. eigenvalues --   -0.43039  -0.42728  -0.42246  -0.41859  -0.41780
 Alpha  occ. eigenvalues --   -0.41463  -0.41272  -0.41230  -0.40797  -0.40469
 Alpha  occ. eigenvalues --   -0.40132  -0.39728  -0.39620  -0.39236  -0.39071
 Alpha  occ. eigenvalues --   -0.38213  -0.38173  -0.37614  -0.37083  -0.36922
 Alpha  occ. eigenvalues --   -0.36606  -0.36586  -0.36116  -0.35630  -0.35595
 Alpha  occ. eigenvalues --   -0.35180  -0.35069  -0.34706  -0.34618  -0.33190
 Alpha  occ. eigenvalues --   -0.33101  -0.33001  -0.32691  -0.32342  -0.31285
 Alpha  occ. eigenvalues --   -0.30446  -0.30013  -0.28902  -0.28049  -0.27065
 Alpha  occ. eigenvalues --   -0.20857  -0.20511  -0.19067
 Alpha virt. eigenvalues --   -0.12715  -0.12586  -0.09601  -0.09373  -0.07808
 Alpha virt. eigenvalues --   -0.06706  -0.06085  -0.05839  -0.05447  -0.05243
 Alpha virt. eigenvalues --   -0.04454  -0.03394  -0.03111  -0.03016  -0.02729

 Mulliken charges:
               1
     1  N   -0.749380
     2  H    0.402260
     3  H    0.456175
     4  H    0.418390
     5  C   -0.097719
     6  H    0.221559
     7  C    0.601531
     8  C   -0.506546
     9  H    0.202611
    10  H    0.183608
    11  H    0.214874
    12  O   -0.501810
    13  N   -0.578787
    14  H    0.357679
    15  C   -0.075003
    16  H    0.203815
    17  C    0.666252
    18  C   -0.377683
    19  H    0.186562
    20  H    0.183408
    21  O   -0.604132
    22  C    0.007695
    23  C   -0.011762
    24  H    0.169886
    25  C    0.088126
    26  C    0.300619
    27  C   -0.185125
    28  H    0.129929
    29  N   -0.680991
    30  H    0.341964
    31  C   -0.153157
    32  H    0.145451
    33  C   -0.161814
    34  H    0.139316
    35  C   -0.172259
    36  H    0.157583
    37  N   -0.593378
    38  H    0.360506
    39  C   -0.058074
    40  H    0.204751
    41  C    0.590108
    42  C   -0.251596
    43  H    0.157319
    44  H    0.161403
    45  O   -0.546442
    46  C   -0.382885
    47  H    0.190847
    48  H    0.198741
    49  C    0.588246
    50  O   -0.507580
    51  O   -0.604606
    52  N   -0.618226
    53  H    0.381216
    54  C   -0.013828
    55  H    0.172887
    56  C    0.609942
    57  C   -0.082184
    58  H    0.151268
    59  O   -0.582593
    60  C   -0.466638
    61  H    0.155722
    62  H    0.161890
    63  H    0.155935
    64  C   -0.445602
    65  H    0.161448
    66  H    0.144727
    67  H    0.149242
    68  N   -0.595751
    69  H    0.370590
    70  C   -0.109137
    71  H    0.174270
    72  C    0.618512
    73  C    0.168937
    74  H    0.155243
    75  O   -0.542558
    76  C   -0.473860
    77  H    0.178083
    78  H    0.150619
    79  H    0.153027
    80  O   -0.684628
    81  H    0.442358
    82  N   -0.603776
    83  H    0.352172
    84  C   -0.058406
    85  H    0.178393
    86  C    0.606457
    87  C   -0.073699
    88  H    0.131186
    89  O   -0.596305
    90  C   -0.474557
    91  H    0.145477
    92  H    0.200608
    93  H    0.141899
    94  C   -0.446442
    95  H    0.161184
    96  H    0.146127
    97  H    0.126170
    98  N   -0.600079
    99  H    0.366233
   100  C   -0.077076
   101  H    0.140776
   102  C    0.586246
   103  C   -0.260717
   104  H    0.170348
   105  H    0.128523
   106  O   -0.584602
   107  C   -0.263552
   108  H    0.149689
   109  H    0.166996
   110  C   -0.291404
   111  H    0.158757
   112  H    0.163890
   113  C   -0.205431
   114  H    0.221628
   115  H    0.225426
   116  N   -0.731167
   117  H    0.420771
   118  H    0.422122
   119  H    0.424707
   120  O   -0.603199
   121  H    0.463234
 Sum of Mulliken charges =   1.00000

 Dipole moment (field-independent basis, Debye):
    X=              0.9360    Y=            -19.4381    Z=            -42.6740  Tot=             46.9019
 Quadrupole moment (field-independent basis, Debye-Ang):
   XX=           -107.8273   YY=           -201.3984   ZZ=           -153.3416
   XY=            148.2312   XZ=           -184.1356   YZ=            -89.5192

 Normal termination of Gaussian 16 at Sat Jun 25 08:59:40 2022.
