 Gaussian 16, Revision C.01,
 Gaussian 16:  ES64L-G16RevC.01  3-Jul-2019

 ----------------------------------------------------------------------
 # B3LYP/6-31G* empiricaldispersion=gd3 guess=read geom=check nosymm in
 tegral(ultrafinegrid)
 ----------------------------------------------------------------------

 ------------------------------------------------------
 Candidate Structure: Conf:549 Charge calc in gas phase
 ------------------------------------------------------
 Structure from the checkpoint file:  "conf-549.chk"
 Charge =  1 Multiplicity = 1

                          Input orientation:
 ---------------------------------------------------------------------
 Center     Atomic      Atomic             Coordinates (Angstroms)
 Number     Number       Type             X           Y           Z
 ---------------------------------------------------------------------
      1          7           0       -3.638370   -1.581614   -6.966970
      2          1           0       -3.685599   -1.436579   -7.977994
      3          1           0       -2.659564   -1.870808   -6.695234
      4          1           0       -3.846341   -0.707038   -6.449340
      5          6           0       -4.636618   -2.596942   -6.463725
      6          1           0       -5.591160   -2.368655   -6.950556
      7          6           0       -4.775338   -2.223436   -4.967845
      8          6           0       -4.180685   -4.013807   -6.793205
      9          1           0       -4.947922   -4.735123   -6.497456
     10          1           0       -4.031175   -4.133406   -7.871066
     11          1           0       -3.246195   -4.259173   -6.280962
     12          8           0       -4.554240   -1.047502   -4.651063
     13          7           0       -5.108143   -3.194907   -4.116778
     14          1           0       -5.381207   -4.112386   -4.451451
     15          6           0       -5.304843   -2.956488   -2.676270
     16          1           0       -5.811398   -1.992700   -2.575591
     17          6           0       -3.882757   -2.900020   -2.064000
     18          6           0       -6.144713   -4.100768   -2.068689
     19          1           0       -5.458033   -4.907195   -1.792478
     20          1           0       -6.581179   -3.722365   -1.136456
     21          8           0       -3.288093   -3.922723   -1.738057
     22          6           0       -7.200999   -4.620176   -2.999588
     23          6           0       -7.319688   -5.920139   -3.435880
     24          1           0       -6.739079   -6.790210   -3.159397
     25          6           0       -8.246338   -3.870819   -3.656865
     26          6           0       -8.967038   -4.785882   -4.471945
     27          6           0       -8.633953   -2.518848   -3.647189
     28          1           0       -8.114023   -1.797016   -3.023045
     29          7           0       -8.373763   -6.025458   -4.320988
     30          1           0       -8.728335   -6.890007   -4.700822
     31          6           0      -10.411521   -3.048936   -5.229391
     32          1           0      -11.253617   -2.709137   -5.825104
     33          6           0      -10.052033   -4.391301   -5.261644
     34          1           0      -10.596137   -5.106539   -5.872209
     35          6           0       -9.709290   -2.121145   -4.431278
     36          1           0      -10.024571   -1.081822   -4.424000
     37          7           0       -3.337418   -1.662068   -2.039239
     38          1           0       -3.844148   -0.867008   -2.415114
     39          6           0       -1.926704   -1.425325   -1.784385
     40          1           0       -1.567032   -2.212776   -1.116810
     41          6           0       -1.817050   -0.023235   -1.160502
     42          6           0       -1.114483   -1.415998   -3.101241
     43          1           0       -1.514236   -0.606679   -3.723897
     44          1           0       -0.067899   -1.177862   -2.878623
     45          8           0       -2.499163    0.892639   -1.618017
     46          6           0       -1.188185   -2.756304   -3.867139
     47          1           0       -0.701541   -3.548145   -3.291908
     48          1           0       -2.227021   -3.044099   -4.031363
     49          6           0       -0.527579   -2.621655   -5.210239
     50          8           0       -1.102827   -2.371504   -6.270469
     51          8           0        0.795253   -2.761467   -5.159151
     52          7           0       -0.931915    0.100291   -0.153105
     53          1           0       -0.339026   -0.675108    0.124804
     54          6           0       -0.578036    1.375167    0.460008
     55          1           0       -0.870945    2.169862   -0.234157
     56          6           0        0.945580    1.335192    0.646608
     57          6           0       -1.311291    1.591964    1.817257
     58          1           0       -1.000971    0.770618    2.477697
     59          8           0        1.522540    0.266426    0.868703
     60          6           0       -0.915730    2.923228    2.475736
     61          1           0       -1.130376    3.769020    1.807950
     62          1           0       -1.503997    3.074712    3.386642
     63          1           0        0.139036    2.967303    2.759761
     64          6           0       -2.832319    1.516030    1.623231
     65          1           0       -3.179174    2.294288    0.934157
     66          1           0       -3.143882    0.548988    1.218168
     67          1           0       -3.339066    1.657613    2.583955
     68          7           0        1.588542    2.519093    0.566706
     69          1           0        1.066370    3.389496    0.546376
     70          6           0        2.981187    2.670131    0.974838
     71          1           0        3.580498    1.910241    0.464715
     72          6           0        3.082839    2.512461    2.504418
     73          6           0        3.440151    4.094635    0.571037
     74          1           0        4.419068    4.270230    1.044154
     75          8           0        2.679377    3.417213    3.251664
     76          6           0        3.570605    4.260317   -0.936747
     77          1           0        4.343406    3.595131   -1.336711
     78          1           0        2.621747    4.035019   -1.434408
     79          1           0        3.841263    5.294703   -1.166103
     80          8           0        2.483565    5.041598    1.031457
     81          1           0        2.420827    4.891353    1.999087
     82          7           0        3.617078    1.361844    2.943067
     83          1           0        3.857764    0.629636    2.285157
     84          6           0        3.811209    1.040062    4.350109
     85          1           0        3.795481    1.986439    4.899051
     86          6           0        5.177141    0.346779    4.445584
     87          6           0        2.701661    0.101583    4.913037
     88          1           0        2.852337   -0.881376    4.444736
     89          8           0        5.543723   -0.432146    3.564876
     90          6           0        2.831592   -0.049548    6.436930
     91          1           0        2.701738    0.920832    6.934194
     92          1           0        3.796623   -0.458293    6.750862
     93          1           0        2.051573   -0.718018    6.816530
     94          6           0        1.305309    0.610456    4.530858
     95          1           0        1.154014    1.640564    4.872068
     96          1           0        0.535857   -0.020887    4.989744
     97          1           0        1.163662    0.581666    3.447686
     98          7           0        5.914780    0.624907    5.546940
     99          1           0        5.469431    1.082459    6.335239
    100          6           0        7.063142   -0.207137    5.892941
    101          1           0        6.784418   -1.254223    5.698418
    102          6           0        7.238240   -0.092799    7.424432
    103          6           0        8.308612    0.104807    5.044205
    104          1           0        8.872521    0.925217    5.501854
    105          1           0        7.968467    0.465819    4.070464
    106          8           0        8.431159   -0.323040    7.957859
    107          6           0        9.187281   -1.146577    4.832651
    108          1           0        9.114752   -1.809359    5.705977
    109          1           0        8.761920   -1.712570    3.996179
    110          6           0       10.673961   -0.838207    4.577089
    111          1           0       11.112684   -1.583165    3.902431
    112          1           0       10.775840    0.130368    4.066718
    113          6           0       11.502748   -0.840677    5.865872
    114          1           0       12.549002   -0.581032    5.645635
    115          1           0       11.502289   -1.852721    6.287753
    116          7           0       10.910247    0.046750    6.890496
    117          1           0       11.420207   -0.041577    7.769269
    118          1           0       11.009737    1.021557    6.605933
    119          1           0        9.243119   -0.253930    7.361291
    120          8           0        6.271455    0.151376    8.122158
    121          1           0        1.159734   -2.620723   -6.055046
 ---------------------------------------------------------------------

 SCF Done:  E(RB3LYP) =  -2843.84156544     A.U. after    1 cycles

 Alpha  occ. eigenvalues --  -19.32193 -19.27787 -19.25687 -19.20927 -19.20519
 Alpha  occ. eigenvalues --  -19.19232 -19.18945 -19.18803 -19.17644 -19.16637
 Alpha  occ. eigenvalues --  -19.16574 -14.57638 -14.49422 -14.46299 -14.44842
 Alpha  occ. eigenvalues --  -14.43714 -14.42828 -14.41788 -14.40623 -14.40116
 Alpha  occ. eigenvalues --  -10.45354 -10.42855 -10.40096 -10.37883 -10.36656
 Alpha  occ. eigenvalues --  -10.35657 -10.35392 -10.34609 -10.33901 -10.33458
 Alpha  occ. eigenvalues --  -10.33084 -10.32501 -10.30869 -10.30614 -10.29994
 Alpha  occ. eigenvalues --  -10.29990 -10.29988 -10.29780 -10.29329 -10.28369
 Alpha  occ. eigenvalues --  -10.28182 -10.28073 -10.27272 -10.27036 -10.26670
 Alpha  occ. eigenvalues --  -10.26565 -10.26495 -10.26112 -10.25760 -10.25670
 Alpha  occ. eigenvalues --  -10.24195 -10.23911 -10.23491 -10.23408 -10.23027
 Alpha  occ. eigenvalues --  -10.22797 -10.22771 -10.21559 -10.21463  -1.23628
 Alpha  occ. eigenvalues --   -1.18138  -1.14443  -1.12790  -1.12436  -1.12114
 Alpha  occ. eigenvalues --   -1.11428  -1.10661  -1.09468  -1.08388  -1.06522
 Alpha  occ. eigenvalues --   -1.06265  -1.05714  -1.04298  -1.01564  -1.00165
 Alpha  occ. eigenvalues --   -0.99158  -0.98143  -0.97193  -0.95819  -0.92694
 Alpha  occ. eigenvalues --   -0.91683  -0.90895  -0.89267  -0.87143  -0.85771
 Alpha  occ. eigenvalues --   -0.85538  -0.84699  -0.83408  -0.83086  -0.81393
 Alpha  occ. eigenvalues --   -0.80813  -0.80446  -0.79883  -0.78762  -0.77427
 Alpha  occ. eigenvalues --   -0.76300  -0.75425  -0.74508  -0.73792  -0.73235
 Alpha  occ. eigenvalues --   -0.72771  -0.72519  -0.72384  -0.71109  -0.70168
 Alpha  occ. eigenvalues --   -0.69973  -0.67993  -0.67769  -0.67349  -0.67014
 Alpha  occ. eigenvalues --   -0.66023  -0.65739  -0.65599  -0.64977  -0.64341
 Alpha  occ. eigenvalues --   -0.64214  -0.64082  -0.63649  -0.62943  -0.62440
 Alpha  occ. eigenvalues --   -0.62382  -0.62029  -0.61472  -0.61303  -0.60452
 Alpha  occ. eigenvalues --   -0.60196  -0.59829  -0.58642  -0.57893  -0.57585
 Alpha  occ. eigenvalues --   -0.56879  -0.56647  -0.56539  -0.56325  -0.56090
 Alpha  occ. eigenvalues --   -0.55239  -0.54816  -0.54659  -0.54215  -0.54089
 Alpha  occ. eigenvalues --   -0.53698  -0.53475  -0.53395  -0.52974  -0.52362
 Alpha  occ. eigenvalues --   -0.52258  -0.51998  -0.51927  -0.51701  -0.51472
 Alpha  occ. eigenvalues --   -0.51050  -0.50832  -0.50736  -0.50455  -0.50132
 Alpha  occ. eigenvalues --   -0.50020  -0.49869  -0.49655  -0.49031  -0.48577
 Alpha  occ. eigenvalues --   -0.48513  -0.48335  -0.48148  -0.47892  -0.47726
 Alpha  occ. eigenvalues --   -0.47384  -0.47159  -0.47038  -0.46775  -0.46383
 Alpha  occ. eigenvalues --   -0.45921  -0.45879  -0.45460  -0.45319  -0.45214
 Alpha  occ. eigenvalues --   -0.44871  -0.44579  -0.44389  -0.44337  -0.44107
 Alpha  occ. eigenvalues --   -0.43729  -0.43565  -0.43467  -0.43389  -0.43062
 Alpha  occ. eigenvalues --   -0.43005  -0.42550  -0.42039  -0.41894  -0.41338
 Alpha  occ. eigenvalues --   -0.41273  -0.41261  -0.41161  -0.40432  -0.40093
 Alpha  occ. eigenvalues --   -0.40089  -0.39460  -0.39377  -0.39158  -0.38899
 Alpha  occ. eigenvalues --   -0.38656  -0.38606  -0.38232  -0.38053  -0.37777
 Alpha  occ. eigenvalues --   -0.37585  -0.35459  -0.35254  -0.34351  -0.33963
 Alpha  occ. eigenvalues --   -0.33839  -0.33525  -0.32797  -0.32618  -0.32359
 Alpha  occ. eigenvalues --   -0.32207  -0.31655  -0.30667  -0.30311  -0.30084
 Alpha  occ. eigenvalues --   -0.29966  -0.29643  -0.28714
 Alpha virt. eigenvalues --   -0.12442  -0.12265  -0.09166  -0.08134  -0.07211
 Alpha virt. eigenvalues --   -0.05568  -0.05469  -0.04705  -0.03925  -0.03871
 Alpha virt. eigenvalues --   -0.03325  -0.02656  -0.02558  -0.02240  -0.02119

 Mulliken charges:
               1
     1  N   -0.770080
     2  H    0.402473
     3  H    0.450218
     4  H    0.420544
     5  C   -0.123711
     6  H    0.233836
     7  C    0.662929
     8  C   -0.483659
     9  H    0.199631
    10  H    0.189118
    11  H    0.198849
    12  O   -0.542330
    13  N   -0.598873
    14  H    0.354588
    15  C   -0.055550
    16  H    0.187254
    17  C    0.623772
    18  C   -0.389254
    19  H    0.194811
    20  H    0.185464
    21  O   -0.530530
    22  C    0.010271
    23  C   -0.011599
    24  H    0.170000
    25  C    0.090695
    26  C    0.304827
    27  C   -0.218569
    28  H    0.131178
    29  N   -0.683352
    30  H    0.341254
    31  C   -0.151947
    32  H    0.144461
    33  C   -0.163180
    34  H    0.140597
    35  C   -0.142956
    36  H    0.139839
    37  N   -0.590446
    38  H    0.369623
    39  C   -0.066669
    40  H    0.186699
    41  C    0.631989
    42  C   -0.282502
    43  H    0.169657
    44  H    0.181731
    45  O   -0.541402
    46  C   -0.346159
    47  H    0.210088
    48  H    0.173007
    49  C    0.596292
    50  O   -0.524401
    51  O   -0.516987
    52  N   -0.607858
    53  H    0.352384
    54  C   -0.060194
    55  H    0.175280
    56  C    0.629843
    57  C   -0.075158
    58  H    0.146793
    59  O   -0.557423
    60  C   -0.490374
    61  H    0.142665
    62  H    0.161411
    63  H    0.183061
    64  C   -0.444409
    65  H    0.158907
    66  H    0.144772
    67  H    0.152249
    68  N   -0.595023
    69  H    0.355307
    70  C   -0.072321
    71  H    0.162439
    72  C    0.652172
    73  C    0.112991
    74  H    0.140816
    75  O   -0.569638
    76  C   -0.449193
    77  H    0.144581
    78  H    0.150259
    79  H    0.174163
    80  O   -0.649460
    81  H    0.424654
    82  N   -0.587630
    83  H    0.360201
    84  C   -0.058497
    85  H    0.176381
    86  C    0.617740
    87  C   -0.076174
    88  H    0.143864
    89  O   -0.550182
    90  C   -0.472737
    91  H    0.149233
    92  H    0.170042
    93  H    0.153589
    94  C   -0.475613
    95  H    0.163642
    96  H    0.142649
    97  H    0.163594
    98  N   -0.611499
    99  H    0.357527
   100  C   -0.041794
   101  H    0.190314
   102  C    0.571477
   103  C   -0.282945
   104  H    0.132991
   105  H    0.176054
   106  O   -0.618784
   107  C   -0.281374
   108  H    0.142890
   109  H    0.162735
   110  C   -0.270937
   111  H    0.151448
   112  H    0.140890
   113  C   -0.142978
   114  H    0.143699
   115  H    0.161654
   116  N   -0.768464
   117  H    0.337138
   118  H    0.324749
   119  H    0.488356
   120  O   -0.470735
   121  H    0.432251
 Sum of Mulliken charges =   1.00000

 Dipole moment (field-independent basis, Debye):
    X=             -7.4208    Y=            -13.1245    Z=            -25.5470  Tot=             29.6643
 Quadrupole moment (field-independent basis, Debye-Ang):
   XX=           -101.5109   YY=           -293.9907   ZZ=           -163.6816
   XY=             79.0333   XZ=            155.1112   YZ=             83.6017

 Normal termination of Gaussian 16 at Sat Jun 25 08:58:27 2022.
