 Gaussian 16, Revision C.01,
 Gaussian 16:  ES64L-G16RevC.01  3-Jul-2019

 ----------------------------------------------------------------------
 # B3LYP/6-31G* empiricaldispersion=gd3 guess=read geom=check nosymm in
 tegral(ultrafinegrid)
 ----------------------------------------------------------------------

 ------------------------------------------------------
 Candidate Structure: Conf:231 Charge calc in gas phase
 ------------------------------------------------------
 Structure from the checkpoint file:  "conf-231.chk"
 Charge =  1 Multiplicity = 1

                          Input orientation:
 ---------------------------------------------------------------------
 Center     Atomic      Atomic             Coordinates (Angstroms)
 Number     Number       Type             X           Y           Z
 ---------------------------------------------------------------------
      1          7           0       -6.694795   -4.406643   -3.527837
      2          1           0       -7.118433   -4.507840   -2.601432
      3          1           0       -6.963433   -5.212424   -4.099588
      4          1           0       -7.032680   -3.493609   -3.972585
      5          6           0       -5.194455   -4.177315   -3.484440
      6          1           0       -4.861774   -4.316945   -2.453060
      7          6           0       -5.072323   -2.684856   -3.905156
      8          6           0       -4.466353   -5.125017   -4.436258
      9          1           0       -3.393227   -4.917269   -4.412723
     10          1           0       -4.609073   -6.169748   -4.141986
     11          1           0       -4.809713   -4.984709   -5.467054
     12          8           0       -6.104280   -2.116512   -4.303046
     13          7           0       -3.869119   -2.144485   -3.820247
     14          1           0       -3.040320   -2.664670   -3.523852
     15          6           0       -3.558997   -0.770642   -4.208648
     16          1           0       -3.994392   -0.570220   -5.192550
     17          6           0       -2.023422   -0.716998   -4.258418
     18          6           0       -4.125940    0.267721   -3.185488
     19          1           0       -5.142654   -0.059203   -2.938999
     20          1           0       -3.531993    0.218639   -2.265598
     21          8           0       -1.355672   -1.671097   -3.833277
     22          6           0       -4.160175    1.655110   -3.745949
     23          6           0       -3.374763    2.732036   -3.392016
     24          1           0       -2.585568    2.803115   -2.656480
     25          6           0       -5.011478    2.096788   -4.823824
     26          6           0       -4.687564    3.456757   -5.077364
     27          6           0       -6.009227    1.471240   -5.592949
     28          1           0       -6.284633    0.436242   -5.403025
     29          7           0       -3.689549    3.810298   -4.187962
     30          1           0       -3.247388    4.715610   -4.131809
     31          6           0       -6.302900    3.556074   -6.824575
     32          1           0       -6.818140    4.103938   -7.607951
     33          6           0       -5.325361    4.200496   -6.075088
     34          1           0       -5.067699    5.239752   -6.257634
     35          6           0       -6.642962    2.207420   -6.586020
     36          1           0       -7.417768    1.742881   -7.189250
     37          7           0       -1.493233    0.427670   -4.724574
     38          1           0       -2.132502    1.201780   -4.885947
     39          6           0       -0.091095    0.789392   -4.463677
     40          1           0        0.506463   -0.114365   -4.612477
     41          6           0       -0.026384    1.239337   -2.983842
     42          6           0        0.352859    1.906912   -5.402512
     43          1           0        0.075480    1.640777   -6.428190
     44          1           0       -0.187341    2.822093   -5.142920
     45          8           0       -0.226966    2.419885   -2.662483
     46          6           0        1.858429    2.175396   -5.311339
     47          1           0        2.220690    2.141129   -4.276649
     48          1           0        2.440867    1.434830   -5.870346
     49          6           0        2.211141    3.563302   -5.805021
     50          8           0        1.420059    4.455860   -6.018876
     51          8           0        3.544273    3.698983   -5.970272
     52          7           0        0.157010    0.250714   -2.089898
     53          1           0        0.315440   -0.688568   -2.433016
     54          6           0        0.210510    0.482858   -0.639383
     55          1           0       -0.532478    1.257411   -0.415995
     56          6           0        1.635249    1.013141   -0.352481
     57          6           0       -0.126943   -0.787914    0.151599
     58          1           0        0.668980   -1.516173   -0.053487
     59          8           0        2.581702    0.256764   -0.153049
     60          6           0       -0.117650   -0.478444    1.655198
     61          1           0       -0.880242    0.270232    1.906224
     62          1           0       -0.335726   -1.383377    2.231978
     63          1           0        0.852684   -0.102409    1.984113
     64          6           0       -1.484003   -1.372321   -0.272582
     65          1           0       -2.287565   -0.643107   -0.098126
     66          1           0       -1.508886   -1.657513   -1.329471
     67          1           0       -1.711165   -2.261840    0.325824
     68          7           0        1.735858    2.357534   -0.458233
     69          1           0        0.890836    2.881321   -0.640401
     70          6           0        3.011157    3.070356   -0.531436
     71          1           0        3.741892    2.370120   -0.949636
     72          6           0        3.396482    3.482841    0.904651
     73          6           0        2.867461    4.279057   -1.474269
     74          1           0        2.168605    4.987794   -1.007258
     75          8           0        3.083063    4.585094    1.353614
     76          6           0        4.202692    4.973022   -1.696268
     77          1           0        4.598568    5.344240   -0.747687
     78          1           0        4.920706    4.277580   -2.146292
     79          1           0        4.067170    5.815655   -2.380343
     80          8           0        2.385495    3.867557   -2.756606
     81          1           0        1.443005    3.635357   -2.693316
     82          7           0        4.008609    2.503284    1.600692
     83          1           0        4.260377    1.637320    1.138186
     84          6           0        4.270889    2.567291    3.027354
     85          1           0        4.285821    3.624595    3.308011
     86          6           0        5.635412    1.915713    3.309908
     87          6           0        3.166977    1.842581    3.860754
     88          1           0        3.423538    1.989809    4.917742
     89          8           0        6.195647    1.210235    2.460375
     90          6           0        1.788575    2.463121    3.600585
     91          1           0        1.466715    2.289091    2.566591
     92          1           0        1.796565    3.545655    3.763329
     93          1           0        1.040060    2.016501    4.265683
     94          6           0        3.162511    0.329617    3.595050
     95          1           0        3.021346    0.110069    2.529519
     96          1           0        2.350410   -0.149633    4.153763
     97          1           0        4.100885   -0.136361    3.911464
     98          7           0        6.089010    2.127534    4.560140
     99          1           0        5.439225    2.513185    5.265895
    100          6           0        6.912260    1.164526    5.286775
    101          1           0        6.794692    0.173753    4.827873
    102          6           0        6.336155    1.100939    6.769931
    103          6           0        8.392773    1.527347    5.306710
    104          1           0        8.877907    0.841762    6.010550
    105          1           0        8.502898    2.544028    5.711185
    106          8           0        7.001780    0.398942    7.549653
    107          6           0        9.040525    1.451973    3.922100
    108          1           0        8.948843    0.431954    3.526298
    109          1           0        8.497909    2.095996    3.220643
    110          6           0       10.522582    1.857298    3.972845
    111          1           0       10.607268    2.883375    4.359871
    112          1           0       11.061586    1.198377    4.669204
    113          6           0       11.146867    1.774907    2.593768
    114          1           0       10.674161    2.451374    1.877576
    115          1           0       11.139877    0.760427    2.187808
    116          7           0       12.629520    2.193131    2.653962
    117          1           0       13.097596    2.152259    1.740851
    118          1           0       12.712228    3.151848    3.012713
    119          1           0       13.142331    1.585042    3.303560
    120          8           0        5.286727    1.780724    6.947568
    121          1           0        3.698158    4.629227   -6.220631
 ---------------------------------------------------------------------

 SCF Done:  E(RB3LYP) =  -2843.73064178     A.U. after    1 cycles

 Alpha  occ. eigenvalues --  -19.28095 -19.24073 -19.23348 -19.20749 -19.18541
 Alpha  occ. eigenvalues --  -19.18533 -19.17030 -19.13502 -19.11666 -19.04217
 Alpha  occ. eigenvalues --  -19.03201 -14.61066 -14.61057 -14.50412 -14.46432
 Alpha  occ. eigenvalues --  -14.45386 -14.44953 -14.41519 -14.37492 -14.33393
 Alpha  occ. eigenvalues --  -10.44627 -10.42307 -10.39970 -10.37594 -10.37297
 Alpha  occ. eigenvalues --  -10.36882 -10.35106 -10.34783 -10.34184 -10.32301
 Alpha  occ. eigenvalues --  -10.30896 -10.30180 -10.29583 -10.29560 -10.29004
 Alpha  occ. eigenvalues --  -10.28656 -10.28244 -10.27927 -10.26789 -10.26354
 Alpha  occ. eigenvalues --  -10.26157 -10.26096 -10.25711 -10.25664 -10.25655
 Alpha  occ. eigenvalues --  -10.25543 -10.25121 -10.24923 -10.24911 -10.23633
 Alpha  occ. eigenvalues --  -10.23060 -10.22716 -10.22184 -10.21061 -10.20118
 Alpha  occ. eigenvalues --  -10.19595 -10.19199 -10.18569 -10.18117  -1.20429
 Alpha  occ. eigenvalues --   -1.15269  -1.15035  -1.14852  -1.14709  -1.12364
 Alpha  occ. eigenvalues --   -1.08927  -1.07145  -1.06093  -1.06026  -1.05328
 Alpha  occ. eigenvalues --   -1.05235  -1.03179  -1.02941  -1.01036  -0.97658
 Alpha  occ. eigenvalues --   -0.97166  -0.94540  -0.94075  -0.91102  -0.90958
 Alpha  occ. eigenvalues --   -0.90187  -0.90137  -0.88374  -0.88023  -0.87042
 Alpha  occ. eigenvalues --   -0.85372  -0.82665  -0.82313  -0.81474  -0.80945
 Alpha  occ. eigenvalues --   -0.80561  -0.80417  -0.79520  -0.78111  -0.76975
 Alpha  occ. eigenvalues --   -0.75721  -0.75103  -0.74872  -0.74762  -0.73772
 Alpha  occ. eigenvalues --   -0.73525  -0.73150  -0.72288  -0.71494  -0.70945
 Alpha  occ. eigenvalues --   -0.69460  -0.69383  -0.69220  -0.67538  -0.67091
 Alpha  occ. eigenvalues --   -0.66907  -0.66499  -0.64895  -0.64839  -0.64379
 Alpha  occ. eigenvalues --   -0.63912  -0.63542  -0.63346  -0.63026  -0.61590
 Alpha  occ. eigenvalues --   -0.61003  -0.60817  -0.60373  -0.60316  -0.59188
 Alpha  occ. eigenvalues --   -0.58916  -0.58175  -0.58001  -0.57869  -0.57144
 Alpha  occ. eigenvalues --   -0.57003  -0.56520  -0.56100  -0.55652  -0.55513
 Alpha  occ. eigenvalues --   -0.55209  -0.54942  -0.54344  -0.54220  -0.53886
 Alpha  occ. eigenvalues --   -0.53549  -0.52960  -0.52819  -0.52430  -0.52204
 Alpha  occ. eigenvalues --   -0.51702  -0.51257  -0.50943  -0.50896  -0.50488
 Alpha  occ. eigenvalues --   -0.50142  -0.49990  -0.49971  -0.49068  -0.48846
 Alpha  occ. eigenvalues --   -0.48732  -0.48096  -0.47978  -0.47734  -0.47588
 Alpha  occ. eigenvalues --   -0.47259  -0.46686  -0.46459  -0.46172  -0.45992
 Alpha  occ. eigenvalues --   -0.45661  -0.45421  -0.45174  -0.45057  -0.44689
 Alpha  occ. eigenvalues --   -0.44531  -0.44012  -0.43822  -0.43527  -0.42981
 Alpha  occ. eigenvalues --   -0.42666  -0.42445  -0.42435  -0.42297  -0.42171
 Alpha  occ. eigenvalues --   -0.41843  -0.41240  -0.40994  -0.40687  -0.40664
 Alpha  occ. eigenvalues --   -0.40530  -0.40368  -0.40285  -0.40149  -0.39942
 Alpha  occ. eigenvalues --   -0.39839  -0.39498  -0.39247  -0.39073  -0.38340
 Alpha  occ. eigenvalues --   -0.37945  -0.37375  -0.36792  -0.36550  -0.36321
 Alpha  occ. eigenvalues --   -0.36071  -0.35248  -0.35103  -0.34627  -0.34602
 Alpha  occ. eigenvalues --   -0.34204  -0.33836  -0.33721  -0.33482  -0.32334
 Alpha  occ. eigenvalues --   -0.31642  -0.31526  -0.31462  -0.30326  -0.29357
 Alpha  occ. eigenvalues --   -0.27780  -0.27273  -0.26562  -0.25593  -0.25003
 Alpha  occ. eigenvalues --   -0.19375  -0.19015  -0.17470
 Alpha virt. eigenvalues --   -0.13293  -0.12157  -0.11842  -0.09620  -0.08276
 Alpha virt. eigenvalues --   -0.07256  -0.06933  -0.05536  -0.05198  -0.04955
 Alpha virt. eigenvalues --   -0.04402  -0.03515  -0.03086  -0.02544  -0.01943

 Mulliken charges:
               1
     1  N   -0.757345
     2  H    0.420544
     3  H    0.416841
     4  H    0.437660
     5  C   -0.108305
     6  H    0.228092
     7  C    0.657044
     8  C   -0.483328
     9  H    0.220788
    10  H    0.198731
    11  H    0.198383
    12  O   -0.538815
    13  N   -0.611686
    14  H    0.377747
    15  C   -0.062544
    16  H    0.210413
    17  C    0.628307
    18  C   -0.367518
    19  H    0.181359
    20  H    0.173100
    21  O   -0.559255
    22  C   -0.003370
    23  C   -0.011210
    24  H    0.196028
    25  C    0.090898
    26  C    0.309615
    27  C   -0.225076
    28  H    0.137002
    29  N   -0.682341
    30  H    0.348464
    31  C   -0.148482
    32  H    0.143117
    33  C   -0.156309
    34  H    0.145112
    35  C   -0.140158
    36  H    0.131650
    37  N   -0.602541
    38  H    0.371763
    39  C   -0.060176
    40  H    0.179115
    41  C    0.635593
    42  C   -0.286424
    43  H    0.159706
    44  H    0.189351
    45  O   -0.571723
    46  C   -0.390124
    47  H    0.213224
    48  H    0.174575
    49  C    0.612484
    50  O   -0.470261
    51  O   -0.567027
    52  N   -0.593407
    53  H    0.362862
    54  C   -0.039868
    55  H    0.157054
    56  C    0.635057
    57  C   -0.102090
    58  H    0.160742
    59  O   -0.532574
    60  C   -0.475665
    61  H    0.141611
    62  H    0.153328
    63  H    0.205788
    64  C   -0.478024
    65  H    0.140284
    66  H    0.142194
    67  H    0.148526
    68  N   -0.604369
    69  H    0.342001
    70  C   -0.057999
    71  H    0.167416
    72  C    0.640139
    73  C    0.107775
    74  H    0.146019
    75  O   -0.549565
    76  C   -0.460547
    77  H    0.177208
    78  H    0.145309
    79  H    0.155880
    80  O   -0.660084
    81  H    0.422587
    82  N   -0.595050
    83  H    0.357482
    84  C   -0.074455
    85  H    0.177164
    86  C    0.595642
    87  C   -0.086920
    88  H    0.183137
    89  O   -0.585167
    90  C   -0.454052
    91  H    0.124896
    92  H    0.160910
    93  H    0.137084
    94  C   -0.483378
    95  H    0.153440
    96  H    0.137532
    97  H    0.172705
    98  N   -0.599630
    99  H    0.357522
   100  C   -0.081846
   101  H    0.136516
   102  C    0.579884
   103  C   -0.252435
   104  H    0.162362
   105  H    0.125675
   106  O   -0.590451
   107  C   -0.263076
   108  H    0.150008
   109  H    0.170979
   110  C   -0.290689
   111  H    0.157960
   112  H    0.160130
   113  C   -0.205552
   114  H    0.225683
   115  H    0.223419
   116  N   -0.731229
   117  H    0.419475
   118  H    0.421961
   119  H    0.422155
   120  O   -0.613861
   121  H    0.413788
 Sum of Mulliken charges =   1.00000

 Dipole moment (field-independent basis, Debye):
    X=              2.7915    Y=            -12.0049    Z=            -28.4214  Tot=             30.9788
 Quadrupole moment (field-independent basis, Debye-Ang):
   XX=            289.9046   YY=           -243.5569   ZZ=           -418.6513
   XY=            190.6476   XZ=             72.2975   YZ=             49.1592

 Normal termination of Gaussian 16 at Sat Jun 25 08:58:33 2022.
