 Gaussian 16, Revision C.01,
 Gaussian 16:  ES64L-G16RevC.01  3-Jul-2019

 ----------------------------------------------------------------------
 # B3LYP/6-31G* empiricaldispersion=gd3 guess=read geom=check nosymm in
 tegral(ultrafinegrid)
 ----------------------------------------------------------------------

 ------------------------------------------------------
 Candidate Structure: Conf:727 Charge calc in gas phase
 ------------------------------------------------------
 Structure from the checkpoint file:  "conf-727.chk"
 Charge =  1 Multiplicity = 1

                          Input orientation:
 ---------------------------------------------------------------------
 Center     Atomic      Atomic             Coordinates (Angstroms)
 Number     Number       Type             X           Y           Z
 ---------------------------------------------------------------------
      1          7           0       -5.831536   -2.026238   -1.369133
      2          1           0       -5.659359   -1.048168   -1.089359
      3          1           0       -6.743927   -2.347695   -1.035893
      4          1           0       -5.838529   -1.989787   -2.421827
      5          6           0       -4.688300   -2.850353   -0.820684
      6          1           0       -4.826279   -2.883916    0.265882
      7          6           0       -3.445931   -1.985358   -1.130568
      8          6           0       -4.697287   -4.258169   -1.406743
      9          1           0       -3.935710   -4.871799   -0.913762
     10          1           0       -5.661584   -4.747038   -1.233495
     11          1           0       -4.494503   -4.242408   -2.482357
     12          8           0       -3.625281   -0.774164   -1.341624
     13          7           0       -2.268042   -2.605910   -1.171300
     14          1           0       -2.194735   -3.568315   -0.854213
     15          6           0       -1.003212   -1.891611   -1.433307
     16          1           0       -1.074002   -0.924281   -0.924153
     17          6           0       -0.876271   -1.663869   -2.954013
     18          6           0        0.199036   -2.678060   -0.894034
     19          1           0        0.397045   -3.510766   -1.577625
     20          1           0        1.064123   -2.011519   -0.977581
     21          8           0       -0.138876   -2.330535   -3.669487
     22          6           0       -0.008093   -3.175607    0.501655
     23          6           0        0.285380   -2.539417    1.687781
     24          1           0        0.750798   -1.576852    1.849827
     25          6           0       -0.631500   -4.421983    0.863611
     26          6           0       -0.657805   -4.469216    2.290042
     27          6           0       -1.176991   -5.494124    0.127306
     28          1           0       -1.106043   -5.517239   -0.960548
     29          7           0       -0.100567   -3.302363    2.762623
     30          1           0        0.346672   -3.155504    3.687584
     31          6           0       -1.743688   -6.598151    2.227341
     32          1           0       -2.170649   -7.456673    2.737547
     33          6           0       -1.199310   -5.560818    2.978254
     34          1           0       -1.194256   -5.591421    4.063732
     35          6           0       -1.736398   -6.567605    0.816355
     36          1           0       -2.141651   -7.410929    0.263445
     37          7           0       -1.660855   -0.658430   -3.423398
     38          1           0       -2.262906   -0.171649   -2.767188
     39          6           0       -1.665062   -0.237380   -4.820411
     40          1           0       -1.241316   -1.067364   -5.396796
     41          6           0       -0.732342    0.997815   -4.943492
     42          6           0       -3.106316    0.043591   -5.253443
     43          1           0       -3.521335    0.824611   -4.605365
     44          1           0       -3.125832    0.449690   -6.266816
     45          8           0       -1.148961    2.096021   -5.288634
     46          6           0       -3.938303   -1.260086   -5.156409
     47          1           0       -3.791929   -1.859580   -6.062907
     48          1           0       -3.608494   -1.856281   -4.302946
     49          6           0       -5.414095   -1.028625   -4.985972
     50          8           0       -6.094615   -1.417312   -4.038505
     51          8           0       -5.949616   -0.336415   -5.990962
     52          7           0        0.540411    0.708512   -4.548749
     53          1           0        0.722210   -0.249603   -4.256426
     54          6           0        1.532105    1.642438   -4.023802
     55          1           0        2.084177    2.119625   -4.845592
     56          6           0        2.491802    0.765594   -3.187604
     57          6           0        0.897634    2.769637   -3.144006
     58          1           0        0.108224    3.195526   -3.768757
     59          8           0        2.169466   -0.363997   -2.825121
     60          6           0        0.253957    2.207660   -1.868214
     61          1           0        0.992001    1.731804   -1.212252
     62          1           0       -0.251240    3.007730   -1.314049
     63          1           0       -0.496630    1.448784   -2.107645
     64          6           0        1.882058    3.904904   -2.834304
     65          1           0        2.682127    3.578979   -2.160081
     66          1           0        2.352535    4.296425   -3.743980
     67          1           0        1.352455    4.738009   -2.358547
     68          7           0        3.665607    1.326025   -2.789671
     69          1           0        4.053692    2.133467   -3.262554
     70          6           0        4.586977    0.588793   -1.943027
     71          1           0        5.062076   -0.223606   -2.512897
     72          6           0        3.845861   -0.000858   -0.737034
     73          6           0        5.690508    1.563982   -1.447327
     74          1           0        5.209021    2.298463   -0.790988
     75          8           0        2.964768    0.650246   -0.138053
     76          6           0        6.800336    0.862483   -0.673865
     77          1           0        6.413203    0.417588    0.249446
     78          1           0        7.261696    0.072483   -1.282117
     79          1           0        7.575517    1.589574   -0.415523
     80          8           0        6.166555    2.338925   -2.545582
     81          1           0        6.834140    1.817277   -3.021168
     82          7           0        4.251713   -1.198431   -0.324755
     83          1           0        4.954691   -1.682812   -0.866261
     84          6           0        3.777608   -1.837256    0.902251
     85          1           0        2.709339   -2.034570    0.779057
     86          6           0        3.981480   -0.883552    2.109588
     87          6           0        4.506934   -3.197702    1.080143
     88          1           0        4.492403   -3.667435    0.083124
     89          8           0        4.886697   -0.038480    2.114377
     90          6           0        5.970186   -3.021797    1.513084
     91          1           0        6.031810   -2.609174    2.524996
     92          1           0        6.523500   -2.342333    0.853330
     93          1           0        6.482161   -3.989354    1.509156
     94          6           0        3.741089   -4.136765    2.024009
     95          1           0        3.675456   -3.750413    3.045224
     96          1           0        4.245873   -5.107736    2.064256
     97          1           0        2.716713   -4.302141    1.671747
     98          7           0        3.086446   -1.092354    3.086352
     99          1           0        2.495281   -1.937190    3.060497
    100          6           0        3.172174   -0.723126    4.504604
    101          1           0        4.217935   -0.798326    4.827688
    102          6           0        2.307548   -1.804187    5.279749
    103          6           0        2.642266    0.670680    4.874074
    104          1           0        2.744570    0.735006    5.960327
    105          1           0        1.563109    0.713897    4.667819
    106          8           0        2.190714   -1.641478    6.492392
    107          6           0        3.352884    1.845753    4.184318
    108          1           0        3.316213    2.741777    4.817573
    109          1           0        4.408254    1.591056    4.036949
    110          6           0        2.714354    2.166624    2.822851
    111          1           0        2.482389    1.237588    2.297110
    112          1           0        1.765620    2.702910    2.977905
    113          6           0        3.640590    2.990540    1.945781
    114          1           0        4.570731    2.444211    1.773223
    115          1           0        3.856209    3.980337    2.357759
    116          7           0        3.004362    3.183698    0.581420
    117          1           0        3.529420    3.827664   -0.015347
    118          1           0        2.956509    2.224392    0.107161
    119          1           0        2.049746    3.545218    0.664116
    120          8           0        1.811106   -2.712865    4.522659
    121          1           0       -6.903709   -0.218097   -5.816619
 ---------------------------------------------------------------------

 SCF Done:  E(RB3LYP) =  -2843.82309530     A.U. after    1 cycles

 Alpha  occ. eigenvalues --  -19.31960 -19.27560 -19.25883 -19.25752 -19.23154
 Alpha  occ. eigenvalues --  -19.22174 -19.21119 -19.20228 -19.17438 -19.11275
 Alpha  occ. eigenvalues --  -19.09480 -14.58190 -14.54847 -14.49123 -14.46476
 Alpha  occ. eigenvalues --  -14.46380 -14.45472 -14.43588 -14.41529 -14.39560
 Alpha  occ. eigenvalues --  -10.45211 -10.42919 -10.40080 -10.39805 -10.39022
 Alpha  occ. eigenvalues --  -10.38137 -10.37281 -10.35403 -10.34337 -10.34158
 Alpha  occ. eigenvalues --  -10.33847 -10.33462 -10.32992 -10.32705 -10.32586
 Alpha  occ. eigenvalues --  -10.31127 -10.30381 -10.29716 -10.28692 -10.28562
 Alpha  occ. eigenvalues --  -10.27731 -10.27512 -10.27505 -10.27076 -10.26898
 Alpha  occ. eigenvalues --  -10.26805 -10.26702 -10.26700 -10.25593 -10.24976
 Alpha  occ. eigenvalues --  -10.24958 -10.24906 -10.24815 -10.24594 -10.24509
 Alpha  occ. eigenvalues --  -10.24093 -10.23594 -10.22282 -10.22226  -1.23380
 Alpha  occ. eigenvalues --   -1.18116  -1.15307  -1.14251  -1.13862  -1.13300
 Alpha  occ. eigenvalues --   -1.13118  -1.12468  -1.11726  -1.09610  -1.08616
 Alpha  occ. eigenvalues --   -1.05621  -1.03832  -1.02912  -1.02712  -1.02650
 Alpha  occ. eigenvalues --   -1.02569  -1.00476  -0.97012  -0.94753  -0.92587
 Alpha  occ. eigenvalues --   -0.90895  -0.90190  -0.89947  -0.88664  -0.88205
 Alpha  occ. eigenvalues --   -0.88030  -0.86780  -0.84930  -0.83002  -0.82015
 Alpha  occ. eigenvalues --   -0.81814  -0.80454  -0.79961  -0.79406  -0.78306
 Alpha  occ. eigenvalues --   -0.78073  -0.77908  -0.75648  -0.75175  -0.74209
 Alpha  occ. eigenvalues --   -0.74064  -0.72797  -0.72618  -0.72259  -0.71599
 Alpha  occ. eigenvalues --   -0.71316  -0.70095  -0.69909  -0.69566  -0.68845
 Alpha  occ. eigenvalues --   -0.68486  -0.68143  -0.68038  -0.67184  -0.65439
 Alpha  occ. eigenvalues --   -0.64944  -0.64560  -0.64237  -0.64046  -0.63757
 Alpha  occ. eigenvalues --   -0.63019  -0.61787  -0.61675  -0.61477  -0.61333
 Alpha  occ. eigenvalues --   -0.61026  -0.60430  -0.59962  -0.59662  -0.59226
 Alpha  occ. eigenvalues --   -0.58598  -0.58473  -0.58188  -0.57618  -0.57123
 Alpha  occ. eigenvalues --   -0.56991  -0.56360  -0.56180  -0.55777  -0.55277
 Alpha  occ. eigenvalues --   -0.54934  -0.54753  -0.54277  -0.54147  -0.53642
 Alpha  occ. eigenvalues --   -0.53482  -0.53364  -0.53229  -0.53098  -0.52991
 Alpha  occ. eigenvalues --   -0.52403  -0.52171  -0.51718  -0.51480  -0.51160
 Alpha  occ. eigenvalues --   -0.50728  -0.50428  -0.50103  -0.50041  -0.49953
 Alpha  occ. eigenvalues --   -0.49611  -0.49433  -0.49199  -0.49050  -0.48682
 Alpha  occ. eigenvalues --   -0.48339  -0.48247  -0.48070  -0.47789  -0.47648
 Alpha  occ. eigenvalues --   -0.47335  -0.47117  -0.46956  -0.46795  -0.46517
 Alpha  occ. eigenvalues --   -0.46375  -0.46195  -0.45920  -0.45664  -0.45286
 Alpha  occ. eigenvalues --   -0.45240  -0.44765  -0.44568  -0.44463  -0.43734
 Alpha  occ. eigenvalues --   -0.43647  -0.43504  -0.43188  -0.43128  -0.42852
 Alpha  occ. eigenvalues --   -0.42719  -0.42470  -0.41678  -0.40938  -0.40787
 Alpha  occ. eigenvalues --   -0.40304  -0.40216  -0.39964  -0.39820  -0.39593
 Alpha  occ. eigenvalues --   -0.39537  -0.39415  -0.39236  -0.39089  -0.38810
 Alpha  occ. eigenvalues --   -0.37995  -0.37448  -0.36764  -0.36702  -0.36519
 Alpha  occ. eigenvalues --   -0.36095  -0.35589  -0.34511  -0.33732  -0.33488
 Alpha  occ. eigenvalues --   -0.32543  -0.31329  -0.30432  -0.28388  -0.26528
 Alpha  occ. eigenvalues --   -0.26315  -0.26056  -0.23494
 Alpha virt. eigenvalues --   -0.12343  -0.11957  -0.09133  -0.08834  -0.08421
 Alpha virt. eigenvalues --   -0.08208  -0.07980  -0.07696  -0.05565  -0.04307
 Alpha virt. eigenvalues --   -0.03918  -0.03833  -0.03270  -0.03046  -0.02798

 Mulliken charges:
               1
     1  N   -0.754174
     2  H    0.416634
     3  H    0.404121
     4  H    0.442875
     5  C   -0.130882
     6  H    0.236811
     7  C    0.666247
     8  C   -0.484483
     9  H    0.217801
    10  H    0.186069
    11  H    0.189558
    12  O   -0.568545
    13  N   -0.612389
    14  H    0.375135
    15  C   -0.063071
    16  H    0.186287
    17  C    0.643602
    18  C   -0.417303
    19  H    0.188068
    20  H    0.198659
    21  O   -0.519817
    22  C    0.042123
    23  C   -0.024844
    24  H    0.163108
    25  C    0.065834
    26  C    0.297692
    27  C   -0.269891
    28  H    0.126965
    29  N   -0.675021
    30  H    0.395215
    31  C   -0.158649
    32  H    0.138704
    33  C   -0.158182
    34  H    0.160836
    35  C   -0.147701
    36  H    0.128063
    37  N   -0.623070
    38  H    0.368826
    39  C   -0.090001
    40  H    0.200433
    41  C    0.627455
    42  C   -0.281643
    43  H    0.166544
    44  H    0.199751
    45  O   -0.514273
    46  C   -0.350139
    47  H    0.204567
    48  H    0.168587
    49  C    0.595898
    50  O   -0.523320
    51  O   -0.516486
    52  N   -0.652331
    53  H    0.392856
    54  C   -0.010768
    55  H    0.167187
    56  C    0.620046
    57  C   -0.094467
    58  H    0.204462
    59  O   -0.528609
    60  C   -0.501763
    61  H    0.167344
    62  H    0.142086
    63  H    0.154160
    64  C   -0.478587
    65  H    0.106683
    66  H    0.168988
    67  H    0.158224
    68  N   -0.637532
    69  H    0.355363
    70  C   -0.043900
    71  H    0.158171
    72  C    0.711018
    73  C    0.122050
    74  H    0.113222
    75  O   -0.604482
    76  C   -0.520402
    77  H    0.228186
    78  H    0.143736
    79  H    0.182211
    80  O   -0.623424
    81  H    0.408333
    82  N   -0.602886
    83  H    0.346535
    84  C   -0.038412
    85  H    0.177790
    86  C    0.647881
    87  C   -0.126998
    88  H    0.130966
    89  O   -0.580551
    90  C   -0.451183
    91  H    0.178466
    92  H    0.130015
    93  H    0.159758
    94  C   -0.476381
    95  H    0.193601
    96  H    0.153172
    97  H    0.162123
    98  N   -0.649958
    99  H    0.392541
   100  C   -0.072641
   101  H    0.158170
   102  C    0.592066
   103  C   -0.264760
   104  H    0.185220
   105  H    0.123974
   106  O   -0.538025
   107  C   -0.271642
   108  H    0.136108
   109  H    0.168752
   110  C   -0.291806
   111  H    0.197776
   112  H    0.131992
   113  C   -0.198035
   114  H    0.231827
   115  H    0.188376
   116  N   -0.789805
   117  H    0.395921
   118  H    0.461203
   119  H    0.392377
   120  O   -0.642027
   121  H    0.431858
 Sum of Mulliken charges =   1.00000

 Dipole moment (field-independent basis, Debye):
    X=            -10.3714    Y=              2.4383    Z=            -17.8110  Tot=             20.7543
 Quadrupole moment (field-independent basis, Debye-Ang):
   XX=           -154.1342   YY=           -294.7698   ZZ=           -384.9713
   XY=             76.1861   XZ=              4.7494   YZ=             39.0250

 Normal termination of Gaussian 16 at Sat Jun 25 09:16:13 2022.
