 Gaussian 16, Revision C.01,
 Gaussian 16:  ES64L-G16RevC.01  3-Jul-2019

 ----------------------------------------------------------------------
 # B3LYP/6-31G* empiricaldispersion=gd3 guess=read geom=check nosymm in
 tegral(ultrafinegrid)
 ----------------------------------------------------------------------

 ------------------------------------------------------
 Candidate Structure: Conf:102 Charge calc in gas phase
 ------------------------------------------------------
 Structure from the checkpoint file:  "conf-102.chk"
 Charge =  1 Multiplicity = 1

                          Input orientation:
 ---------------------------------------------------------------------
 Center     Atomic      Atomic             Coordinates (Angstroms)
 Number     Number       Type             X           Y           Z
 ---------------------------------------------------------------------
      1          7           0       -6.659373   -4.888749   -7.862285
      2          1           0       -7.514299   -5.392778   -7.613143
      3          1           0       -6.320813   -5.242460   -8.761349
      4          1           0       -6.865104   -3.836094   -7.919652
      5          6           0       -5.600207   -4.913395   -6.775044
      6          1           0       -5.951090   -5.573190   -5.977829
      7          6           0       -5.582676   -3.432857   -6.297243
      8          6           0       -4.253134   -5.376614   -7.327399
      9          1           0       -3.500592   -5.350808   -6.534754
     10          1           0       -4.309155   -6.404443   -7.700009
     11          1           0       -3.910319   -4.714469   -8.130048
     12          8           0       -6.272191   -2.618208   -6.937650
     13          7           0       -4.813042   -3.154882   -5.261291
     14          1           0       -4.230092   -3.848060   -4.785367
     15          6           0       -4.595726   -1.805687   -4.741897
     16          1           0       -4.493941   -1.118004   -5.585940
     17          6           0       -3.271985   -1.907923   -3.962646
     18          6           0       -5.780496   -1.333894   -3.848068
     19          1           0       -6.698109   -1.510986   -4.422921
     20          1           0       -5.821676   -1.967156   -2.954378
     21          8           0       -2.852458   -3.022142   -3.621121
     22          6           0       -5.641982    0.109847   -3.489896
     23          6           0       -5.332798    0.644642   -2.262628
     24          1           0       -5.193397    0.148917   -1.311672
     25          6           0       -5.665901    1.209243   -4.424271
     26          6           0       -5.355518    2.383321   -3.686139
     27          6           0       -5.906954    1.308131   -5.806905
     28          1           0       -6.171639    0.426513   -6.387068
     29          7           0       -5.202285    2.011152   -2.364712
     30          1           0       -4.742685    2.576115   -1.666218
     31          6           0       -5.486015    3.705665   -5.664030
     32          1           0       -5.415871    4.665236   -6.167894
     33          6           0       -5.259207    3.638266   -4.294090
     34          1           0       -5.014224    4.525893   -3.718092
     35          6           0       -5.811808    2.554744   -6.412655
     36          1           0       -5.993762    2.650569   -7.479328
     37          7           0       -2.647142   -0.749332   -3.709681
     38          1           0       -3.101854    0.138881   -3.912165
     39          6           0       -1.467021   -0.651160   -2.859480
     40          1           0       -1.477148   -1.498874   -2.165846
     41          6           0       -1.576781    0.682348   -2.097324
     42          6           0       -0.155394   -0.666623   -3.673914
     43          1           0       -0.168427    0.187446   -4.362154
     44          1           0        0.687826   -0.516494   -2.991543
     45          8           0       -2.233574    1.618196   -2.555841
     46          6           0        0.038358   -1.974462   -4.454718
     47          1           0        0.079201   -2.818463   -3.754675
     48          1           0       -0.794980   -2.159725   -5.133510
     49          6           0        1.297690   -1.997304   -5.293935
     50          8           0        1.356985   -2.342009   -6.452977
     51          8           0        2.383512   -1.598868   -4.586302
     52          7           0       -0.883833    0.730882   -0.942661
     53          1           0       -0.286018   -0.041474   -0.662043
     54          6           0       -0.635672    1.956844   -0.190942
     55          1           0       -0.822448    2.805386   -0.858564
     56          6           0        0.839924    1.883287    0.228868
     57          6           0       -1.561368    2.070411    1.054602
     58          1           0       -1.378087    1.170553    1.657779
     59          8           0        1.359465    0.791005    0.471224
     60          6           0       -1.233370    3.304052    1.909476
     61          1           0       -1.306035    4.222998    1.310314
     62          1           0       -1.957886    3.392215    2.726278
     63          1           0       -0.234391    3.250046    2.349667
     64          6           0       -3.035322    2.084875    0.625578
     65          1           0       -3.247556    2.987962    0.037964
     66          1           0       -3.291016    1.211692    0.017944
     67          1           0       -3.686838    2.094217    1.505907
     68          7           0        1.492963    3.054152    0.343615
     69          1           0        1.069048    3.921080    0.042548
     70          6           0        2.833974    3.134734    0.893523
     71          1           0        3.543801    2.665659    0.199777
     72          6           0        2.873149    2.446160    2.276118
     73          6           0        3.203440    4.617864    1.087863
     74          1           0        2.593217    4.992869    1.923653
     75          8           0        1.993191    2.656663    3.106132
     76          6           0        4.687440    4.806585    1.392954
     77          1           0        4.987498    4.261906    2.293566
     78          1           0        5.292223    4.452745    0.551162
     79          1           0        4.909138    5.868070    1.552044
     80          8           0        2.829595    5.280351   -0.126189
     81          1           0        2.978960    6.230679   -0.003900
     82          7           0        3.964404    1.684627    2.502346
     83          1           0        4.684708    1.581567    1.797480
     84          6           0        4.277952    1.094703    3.794590
     85          1           0        3.684923    1.625747    4.546797
     86          6           0        5.780410    1.329506    4.006479
     87          6           0        3.922839   -0.418807    3.849203
     88          1           0        4.534248   -0.911940    3.079725
     89          8           0        6.563199    1.307338    3.054414
     90          6           0        4.267609   -1.030216    5.215863
     91          1           0        3.727545   -0.516346    6.022428
     92          1           0        5.336663   -0.983194    5.443767
     93          1           0        3.968430   -2.083226    5.243055
     94          6           0        2.439669   -0.634547    3.515891
     95          1           0        1.801314   -0.119298    4.243328
     96          1           0        2.202195   -1.704235    3.551613
     97          1           0        2.184525   -0.259878    2.521794
     98          7           0        6.176357    1.546322    5.280753
     99          1           0        5.522916    1.496155    6.054340
    100          6           0        7.579542    1.649757    5.643282
    101          1           0        8.145571    0.935139    5.030860
    102          6           0        7.686292    1.256969    7.120861
    103          6           0        8.128850    3.070179    5.358734
    104          1           0        7.545370    3.792107    5.943958
    105          1           0        7.914253    3.257303    4.300538
    106          8           0        8.921092    0.965384    7.578124
    107          6           0        9.628240    3.249018    5.620190
    108          1           0        9.833094    3.213806    6.698569
    109          1           0       10.198562    2.432213    5.155649
    110          6           0       10.172089    4.571346    5.066611
    111          1           0        9.967119    4.625074    3.986745
    112          1           0        9.639275    5.415881    5.524473
    113          6           0       11.676568    4.744201    5.304929
    114          1           0       11.876588    4.697750    6.383400
    115          1           0       11.977390    5.753355    4.971846
    116          7           0       12.430654    3.656085    4.667159
    117          1           0       13.415452    3.721893    4.917920
    118          1           0        9.580127    1.038792    6.867075
    119          1           0       12.390835    3.763811    3.653843
    120          8           0        6.730446    1.217802    7.859657
    121          1           0        3.147557   -1.654906   -5.191008
 ---------------------------------------------------------------------

 SCF Done:  E(RB3LYP) =  -2843.80412845     A.U. after    1 cycles

 Alpha  occ. eigenvalues --  -19.27298 -19.25672 -19.24874 -19.21570 -19.21481
 Alpha  occ. eigenvalues --  -19.19909 -19.19370 -19.19033 -19.18262 -19.16967
 Alpha  occ. eigenvalues --  -19.16550 -14.60298 -14.49514 -14.44874 -14.43903
 Alpha  occ. eigenvalues --  -14.43297 -14.42458 -14.41455 -14.41135 -14.35420
 Alpha  occ. eigenvalues --  -10.43807 -10.41599 -10.38455 -10.38196 -10.37338
 Alpha  occ. eigenvalues --  -10.36492 -10.35160 -10.34060 -10.34016 -10.34004
 Alpha  occ. eigenvalues --  -10.33906 -10.31647 -10.30838 -10.29914 -10.29509
 Alpha  occ. eigenvalues --  -10.29467 -10.28688 -10.28611 -10.28049 -10.27968
 Alpha  occ. eigenvalues --  -10.27130 -10.26714 -10.25792 -10.25231 -10.24936
 Alpha  occ. eigenvalues --  -10.24853 -10.24826 -10.24794 -10.24348 -10.24158
 Alpha  occ. eigenvalues --  -10.24087 -10.24020 -10.24005 -10.23906 -10.23134
 Alpha  occ. eigenvalues --  -10.22780 -10.22392 -10.21879 -10.20585  -1.19648
 Alpha  occ. eigenvalues --   -1.16438  -1.15493  -1.14179  -1.13361  -1.11379
 Alpha  occ. eigenvalues --   -1.10382  -1.09163  -1.08880  -1.08162  -1.07454
 Alpha  occ. eigenvalues --   -1.07344  -1.06229  -1.04166  -1.01583  -0.99926
 Alpha  occ. eigenvalues --   -0.98854  -0.98146  -0.97668  -0.93766  -0.92104
 Alpha  occ. eigenvalues --   -0.90237  -0.89352  -0.87865  -0.86685  -0.85904
 Alpha  occ. eigenvalues --   -0.84797  -0.84457  -0.83708  -0.81860  -0.81145
 Alpha  occ. eigenvalues --   -0.80285  -0.79611  -0.78806  -0.78429  -0.76732
 Alpha  occ. eigenvalues --   -0.75950  -0.74924  -0.74459  -0.74114  -0.73286
 Alpha  occ. eigenvalues --   -0.73061  -0.72332  -0.72176  -0.70351  -0.68377
 Alpha  occ. eigenvalues --   -0.68253  -0.67991  -0.67290  -0.67023  -0.66808
 Alpha  occ. eigenvalues --   -0.66254  -0.65938  -0.65545  -0.65383  -0.64069
 Alpha  occ. eigenvalues --   -0.63942  -0.63491  -0.63456  -0.62955  -0.62926
 Alpha  occ. eigenvalues --   -0.62092  -0.61486  -0.60536  -0.59921  -0.59428
 Alpha  occ. eigenvalues --   -0.59061  -0.58325  -0.57626  -0.56967  -0.55988
 Alpha  occ. eigenvalues --   -0.55806  -0.55056  -0.54854  -0.54747  -0.54647
 Alpha  occ. eigenvalues --   -0.54403  -0.54172  -0.54156  -0.53453  -0.53402
 Alpha  occ. eigenvalues --   -0.53367  -0.53019  -0.52873  -0.52414  -0.52301
 Alpha  occ. eigenvalues --   -0.51804  -0.51678  -0.51584  -0.51515  -0.51186
 Alpha  occ. eigenvalues --   -0.51072  -0.50340  -0.49889  -0.49473  -0.49435
 Alpha  occ. eigenvalues --   -0.49252  -0.49182  -0.49032  -0.48555  -0.48400
 Alpha  occ. eigenvalues --   -0.47999  -0.47811  -0.47388  -0.47145  -0.46968
 Alpha  occ. eigenvalues --   -0.46894  -0.46658  -0.46337  -0.45922  -0.45865
 Alpha  occ. eigenvalues --   -0.45401  -0.45091  -0.44876  -0.44723  -0.44515
 Alpha  occ. eigenvalues --   -0.44328  -0.44215  -0.44011  -0.43977  -0.43659
 Alpha  occ. eigenvalues --   -0.43513  -0.43187  -0.43109  -0.42739  -0.42580
 Alpha  occ. eigenvalues --   -0.42278  -0.41951  -0.41870  -0.41521  -0.41483
 Alpha  occ. eigenvalues --   -0.40666  -0.40332  -0.39924  -0.39638  -0.39448
 Alpha  occ. eigenvalues --   -0.39338  -0.39161  -0.39015  -0.38910  -0.38235
 Alpha  occ. eigenvalues --   -0.38035  -0.37832  -0.37830  -0.37679  -0.37325
 Alpha  occ. eigenvalues --   -0.36363  -0.35984  -0.35050  -0.33996  -0.33986
 Alpha  occ. eigenvalues --   -0.33595  -0.33422  -0.32919  -0.32578  -0.32390
 Alpha  occ. eigenvalues --   -0.31740  -0.31406  -0.30828  -0.30133  -0.29621
 Alpha  occ. eigenvalues --   -0.28423  -0.27625  -0.26780
 Alpha virt. eigenvalues --   -0.12486  -0.11508  -0.07684  -0.07206  -0.06561
 Alpha virt. eigenvalues --   -0.05973  -0.04777  -0.04666  -0.04619  -0.03966
 Alpha virt. eigenvalues --   -0.03613  -0.03444  -0.02230  -0.01722  -0.01194

 Mulliken charges:
               1
     1  N   -0.758890
     2  H    0.417761
     3  H    0.415336
     4  H    0.437620
     5  C   -0.106175
     6  H    0.225448
     7  C    0.655131
     8  C   -0.483282
     9  H    0.222162
    10  H    0.196019
    11  H    0.199103
    12  O   -0.543428
    13  N   -0.606610
    14  H    0.373193
    15  C   -0.066381
    16  H    0.203219
    17  C    0.625168
    18  C   -0.350194
    19  H    0.173972
    20  H    0.159869
    21  O   -0.560330
    22  C    0.032085
    23  C    0.004789
    24  H    0.158007
    25  C    0.067800
    26  C    0.315217
    27  C   -0.226692
    28  H    0.130607
    29  N   -0.665582
    30  H    0.350551
    31  C   -0.150723
    32  H    0.137948
    33  C   -0.153194
    34  H    0.137939
    35  C   -0.138916
    36  H    0.129604
    37  N   -0.606233
    38  H    0.384050
    39  C   -0.071382
    40  H    0.180396
    41  C    0.622478
    42  C   -0.271776
    43  H    0.167285
    44  H    0.182148
    45  O   -0.546141
    46  C   -0.337524
    47  H    0.187330
    48  H    0.168996
    49  C    0.567499
    50  O   -0.458982
    51  O   -0.558431
    52  N   -0.607536
    53  H    0.356028
    54  C   -0.061583
    55  H    0.166763
    56  C    0.643544
    57  C   -0.064003
    58  H    0.149252
    59  O   -0.548798
    60  C   -0.492646
    61  H    0.125587
    62  H    0.153353
    63  H    0.213119
    64  C   -0.460224
    65  H    0.139832
    66  H    0.147004
    67  H    0.157613
    68  N   -0.611041
    69  H    0.352487
    70  C   -0.010670
    71  H    0.159674
    72  C    0.639215
    73  C    0.101695
    74  H    0.155119
    75  O   -0.536305
    76  C   -0.475703
    77  H    0.170625
    78  H    0.165786
    79  H    0.150673
    80  O   -0.640826
    81  H    0.404726
    82  N   -0.600564
    83  H    0.348382
    84  C   -0.055352
    85  H    0.172866
    86  C    0.622874
    87  C   -0.067795
    88  H    0.136792
    89  O   -0.553011
    90  C   -0.464583
    91  H    0.147389
    92  H    0.152093
    93  H    0.155697
    94  C   -0.471833
    95  H    0.150743
    96  H    0.135503
    97  H    0.193733
    98  N   -0.613523
    99  H    0.359418
   100  C   -0.077207
   101  H    0.179151
   102  C    0.607991
   103  C   -0.254928
   104  H    0.150723
   105  H    0.174035
   106  O   -0.558578
   107  C   -0.299532
   108  H    0.146614
   109  H    0.158298
   110  C   -0.259372
   111  H    0.132019
   112  H    0.138958
   113  C   -0.142297
   114  H    0.144413
   115  H    0.124140
   116  N   -0.719161
   117  H    0.305140
   118  H    0.427529
   119  H    0.295982
   120  O   -0.449993
   121  H    0.416621
 Sum of Mulliken charges =   1.00000

 Dipole moment (field-independent basis, Debye):
    X=            -14.4771    Y=            -10.8379    Z=            -24.6090  Tot=             30.5393
 Quadrupole moment (field-independent basis, Debye-Ang):
   XX=           -109.8891   YY=           -195.9182   ZZ=           -173.5175
   XY=            165.4714   XZ=            184.1671   YZ=            153.4896

 Normal termination of Gaussian 16 at Sat Jun 25 08:33:41 2022.
