 Gaussian 16, Revision C.01,
 Gaussian 16:  ES64L-G16RevC.01  3-Jul-2019

 ----------------------------------------------------------------------
 # B3LYP/6-31G* empiricaldispersion=gd3 guess=read geom=check nosymm in
 tegral(ultrafinegrid)
 ----------------------------------------------------------------------

 ------------------------------------------------------
 Candidate Structure: Conf:747 Charge calc in gas phase
 ------------------------------------------------------
 Structure from the checkpoint file:  "conf-747.chk"
 Charge =  1 Multiplicity = 1

                          Input orientation:
 ---------------------------------------------------------------------
 Center     Atomic      Atomic             Coordinates (Angstroms)
 Number     Number       Type             X           Y           Z
 ---------------------------------------------------------------------
      1          7           0       -5.714977   -0.124101   -5.694984
      2          1           0       -5.180133    0.633755   -6.120541
      3          1           0       -5.462536   -0.994627   -6.172466
      4          1           0       -6.716093    0.052599   -5.787253
      5          6           0       -5.355921   -0.303232   -4.277866
      6          1           0       -5.141648    0.668389   -3.826071
      7          6           0       -4.111661   -1.184759   -4.232983
      8          6           0       -6.501126   -0.954522   -3.497170
      9          1           0       -6.690518   -1.947530   -3.910458
     10          1           0       -6.188007   -1.089448   -2.460118
     11          8           0       -3.831318   -1.904347   -5.199875
     12          6           0       -7.757733   -0.123571   -3.554405
     13          6           0       -7.820721    1.102485   -2.895330
     14          1           0       -6.962291    1.429396   -2.319834
     15          6           0       -8.849416   -0.529246   -4.315288
     16          1           0       -8.804108   -1.471987   -4.852060
     17          6           0       -8.961826    1.894536   -2.968974
     18          1           0       -8.991909    2.839723   -2.438904
     19          6           0       -9.988964    0.264791   -4.408399
     20          1           0      -10.826261   -0.068202   -5.010297
     21          6           0      -10.049902    1.478485   -3.730439
     22          1           0      -10.938507    2.095890   -3.796222
     23          7           0       -3.390666   -1.176771   -3.105543
     24          1           0       -3.583924   -0.541031   -2.343264
     25          6           0       -2.289991   -2.095318   -2.846511
     26          1           0       -2.618279   -3.122682   -3.026264
     27          6           0       -1.926740   -1.897177   -1.377848
     28          6           0       -1.075528   -1.844227   -3.751874
     29          1           0       -0.181162   -2.306079   -3.340305
     30          1           0       -0.921952   -0.777041   -3.881339
     31          8           0       -2.248623   -0.893903   -0.767838
     32          8           0       -1.300359   -2.417562   -5.091605
     33          1           0       -1.107769   -3.371884   -5.086541
     34          7           0       -1.204087   -2.907411   -0.814296
     35          1           0       -0.796201   -3.586262   -1.435552
     36          6           0       -0.373826   -2.616539    0.339595
     37          1           0       -0.896904   -1.866886    0.931388
     38          6           0        0.977529   -2.056020   -0.141257
     39          6           0       -0.179533   -3.869026    1.163962
     40          1           0       -1.159546   -4.251120    1.465856
     41          1           0        0.399284   -3.635401    2.068475
     42          8           0        1.349576   -2.135756   -1.300034
     43          8           0        0.504879   -4.802805    0.330716
     44          1           0        0.762035   -5.555315    0.869765
     45          7           0        1.731843   -1.483517    0.819404
     46          1           0        1.485028   -1.505718    1.795676
     47          6           0        3.066659   -0.990415    0.536901
     48          1           0        3.637022   -1.765713    0.011355
     49          6           0        3.701902   -0.741261    1.920589
     50          6           0        3.049885    0.257199   -0.354239
     51          1           0        2.173987    0.232244   -1.002157
     52          1           0        2.986255    1.168200    0.244587
     53          8           0        3.097256   -0.936471    2.959568
     54          6           0        4.303686    0.381968   -1.268996
     55          8           0        4.122823    1.013373   -2.316589
     56          8           0        5.370447   -0.126927   -0.853482
     57          7           0        4.964566   -0.280785    1.873841
     58          1           0        5.413198   -0.202704    0.957447
     59          6           0        5.695474   -0.051050    3.091727
     60          1           0        5.030324    0.417804    3.818071
     61          6           0        6.883896    0.904006    2.759715
     62          6           0        6.310717   -1.312330    3.658414
     63          1           0        6.929363   -1.750617    2.868657
     64          1           0        5.524845   -2.025220    3.905020
     65          8           0        6.791778    2.062482    3.183246
     66          6           0        7.164345   -0.956871    4.879524
     67          1           0        6.518341   -0.845114    5.751168
     68          1           0        7.625878    0.020310    4.725496
     69          6           0        8.257143   -1.984150    5.153347
     70          1           0        7.819360   -2.911631    5.524495
     71          1           0        8.784228   -2.223494    4.224866
     72          7           0        9.249810   -1.558705    6.156972
     73          1           0        8.966529   -1.646798    7.122173
     74          7           0       10.382832   -0.156041    4.668754
     75          1           0       10.981845    0.647473    4.553026
     76          1           0        9.635254   -0.223701    3.989311
     77          7           0       10.980208   -0.232025    6.945154
     78          1           0       11.066089   -0.885110    7.715810
     79          1           0       11.853930    0.211891    6.695827
     80          6           0       10.197827   -0.645366    5.911897
     81          8           0        7.812800    0.383192    2.101365
     82          1           0       -2.297635   -2.290533   -5.266463
 ---------------------------------------------------------------------

 SCF Done:  E(RB3LYP) =  -2166.11397110     A.U. after    3 cycles

 Alpha  occ. eigenvalues --  -19.44665 -19.30946 -19.24796 -19.22358 -19.16446
 Alpha  occ. eigenvalues --  -19.11249 -19.05485 -19.05309 -19.04540 -19.04496
 Alpha  occ. eigenvalues --  -14.63960 -14.52486 -14.48238 -14.47683 -14.46880
 Alpha  occ. eigenvalues --  -14.46822 -14.38634 -14.32552 -10.45222 -10.43985
 Alpha  occ. eigenvalues --  -10.43161 -10.42373 -10.41924 -10.40360 -10.35591
 Alpha  occ. eigenvalues --  -10.33221 -10.32930 -10.31772 -10.31416 -10.31402
 Alpha  occ. eigenvalues --  -10.30971 -10.30965 -10.30811 -10.30650 -10.29455
 Alpha  occ. eigenvalues --  -10.27377 -10.22921 -10.22906 -10.22507 -10.21977
 Alpha  occ. eigenvalues --  -10.18945 -10.18447 -10.16337  -1.32137  -1.23305
 Alpha  occ. eigenvalues --   -1.19105  -1.17316  -1.12357  -1.10221  -1.09583
 Alpha  occ. eigenvalues --   -1.08622  -1.03918  -1.03460  -1.01709  -1.00531
 Alpha  occ. eigenvalues --   -0.99543  -0.98790  -0.98673  -0.96479  -0.95364
 Alpha  occ. eigenvalues --   -0.94000  -0.90682  -0.89777  -0.89317  -0.88954
 Alpha  occ. eigenvalues --   -0.86967  -0.86395  -0.84128  -0.83875  -0.81988
 Alpha  occ. eigenvalues --   -0.81261  -0.78195  -0.78023  -0.77238  -0.76483
 Alpha  occ. eigenvalues --   -0.76093  -0.73469  -0.73325  -0.73259  -0.71631
 Alpha  occ. eigenvalues --   -0.71052  -0.70313  -0.69367  -0.68936  -0.68883
 Alpha  occ. eigenvalues --   -0.67667  -0.66728  -0.65723  -0.65274  -0.64212
 Alpha  occ. eigenvalues --   -0.63809  -0.62382  -0.61587  -0.60564  -0.60367
 Alpha  occ. eigenvalues --   -0.60155  -0.59728  -0.59456  -0.59344  -0.58915
 Alpha  occ. eigenvalues --   -0.58418  -0.57768  -0.57102  -0.56285  -0.55673
 Alpha  occ. eigenvalues --   -0.55548  -0.54676  -0.54447  -0.54221  -0.53587
 Alpha  occ. eigenvalues --   -0.53470  -0.52954  -0.52721  -0.52608  -0.51044
 Alpha  occ. eigenvalues --   -0.50759  -0.49872  -0.49487  -0.48803  -0.48530
 Alpha  occ. eigenvalues --   -0.47387  -0.46979  -0.46440  -0.46402  -0.45963
 Alpha  occ. eigenvalues --   -0.45350  -0.44726  -0.43859  -0.43450  -0.43250
 Alpha  occ. eigenvalues --   -0.42770  -0.42450  -0.42065  -0.41168  -0.39649
 Alpha  occ. eigenvalues --   -0.39290  -0.39067  -0.38866  -0.38343  -0.37742
 Alpha  occ. eigenvalues --   -0.37734  -0.37349  -0.36968  -0.36786  -0.36312
 Alpha  occ. eigenvalues --   -0.35390  -0.35169  -0.35122  -0.34379  -0.33438
 Alpha  occ. eigenvalues --   -0.33023  -0.32406  -0.30373  -0.28558  -0.25626
 Alpha  occ. eigenvalues --   -0.23989  -0.20766  -0.20483  -0.19248  -0.18798
 Alpha  occ. eigenvalues --   -0.18431  -0.18048
 Alpha virt. eigenvalues --   -0.17134  -0.14173  -0.13624  -0.12719  -0.12348
 Alpha virt. eigenvalues --   -0.11406  -0.09023  -0.08076  -0.06005  -0.05572
 Alpha virt. eigenvalues --   -0.05058  -0.04509  -0.03248  -0.02669  -0.02356

 Mulliken charges:
               1
     1  N   -0.715858
     2  H    0.427814
     3  H    0.426476
     4  H    0.415224
     5  C   -0.136259
     6  H    0.219532
     7  C    0.621989
     8  C   -0.381020
     9  H    0.184165
    10  H    0.213057
    11  O   -0.629971
    12  C    0.138141
    13  C   -0.188932
    14  H    0.141021
    15  C   -0.215938
    16  H    0.139049
    17  C   -0.121994
    18  H    0.171705
    19  C   -0.122096
    20  H    0.167886
    21  C   -0.123882
    22  H    0.172944
    23  N   -0.616540
    24  H    0.378260
    25  C   -0.107058
    26  H    0.189152
    27  C    0.616410
    28  C   -0.129480
    29  H    0.280107
    30  H    0.257168
    31  O   -0.491849
    32  O   -0.583236
    33  H    0.486212
    34  N   -0.573319
    35  H    0.341572
    36  C   -0.117120
    37  H    0.207720
    38  C    0.645616
    39  C   -0.041597
    40  H    0.141764
    41  H    0.168459
    42  O   -0.550787
    43  O   -0.627067
    44  H    0.413724
    45  N   -0.620516
    46  H    0.340565
    47  C   -0.023122
    48  H    0.189253
    49  C    0.574390
    50  C   -0.372035
    51  H    0.130055
    52  H    0.158151
    53  O   -0.576571
    54  C    0.594520
    55  O   -0.542428
    56  O   -0.572669
    57  N   -0.636528
    58  H    0.405433
    59  C    0.022899
    60  H    0.138799
    61  C    0.518607
    62  C   -0.271182
    63  H    0.158791
    64  H    0.133174
    65  O   -0.548606
    66  C   -0.287094
    67  H    0.140939
    68  H    0.176998
    69  C   -0.198128
    70  H    0.178907
    71  H    0.198524
    72  N   -0.573672
    73  H    0.359410
    74  N   -0.733252
    75  H    0.380240
    76  H    0.416927
    77  N   -0.737176
    78  H    0.367783
    79  H    0.371445
    80  C    0.762141
    81  O   -0.601977
    82  H    0.485839
 Sum of Mulliken charges =   1.00000

 Dipole moment (field-independent basis, Debye):
    X=            -24.6973    Y=            -16.4493    Z=            -10.4767  Tot=             31.4690
 Quadrupole moment (field-independent basis, Debye-Ang):
   XX=            113.9514   YY=           -206.6279   ZZ=             18.3217
   XY=            -53.6188   XZ=            344.6978   YZ=             -4.8115

 Normal termination of Gaussian 16 at Tue May 17 19:49:17 2022.
