 Gaussian 16, Revision C.01,
 Gaussian 16:  ES64L-G16RevC.01  3-Jul-2019

 ----------------------------------------------------------------------
 # B3LYP/6-31G* empiricaldispersion=gd3 guess=read geom=check nosymm in
 tegral(ultrafinegrid)
 ----------------------------------------------------------------------

 ------------------------------------------------------
 Candidate Structure: Conf:669 Charge calc in gas phase
 ------------------------------------------------------
 Structure from the checkpoint file:  "conf-669.chk"
 Charge =  1 Multiplicity = 1

                          Input orientation:
 ---------------------------------------------------------------------
 Center     Atomic      Atomic             Coordinates (Angstroms)
 Number     Number       Type             X           Y           Z
 ---------------------------------------------------------------------
      1          7           0       -5.580935   -4.086112   -3.188718
      2          1           0       -5.746030   -3.739210   -4.135212
      3          1           0       -4.914684   -4.860354   -3.255030
      4          1           0       -6.458048   -4.430985   -2.803184
      5          6           0       -4.974863   -3.051080   -2.329135
      6          1           0       -5.522071   -2.110575   -2.437180
      7          6           0       -3.520591   -2.866612   -2.758310
      8          6           0       -5.019076   -3.473514   -0.856274
      9          1           0       -6.062931   -3.680099   -0.604866
     10          1           0       -4.458717   -4.406253   -0.764636
     11          8           0       -2.856760   -3.801916   -3.179233
     12          6           0       -4.446066   -2.424503    0.059141
     13          6           0       -3.155944   -2.553312    0.568459
     14          1           0       -2.568184   -3.430174    0.316080
     15          6           0       -5.181667   -1.282017    0.364080
     16          1           0       -6.178433   -1.175380   -0.054950
     17          6           0       -2.615193   -1.557762    1.380496
     18          1           0       -1.605575   -1.666675    1.762085
     19          6           0       -4.650042   -0.290356    1.184296
     20          1           0       -5.240698    0.585920    1.419048
     21          6           0       -3.363507   -0.429900    1.695811
     22          1           0       -2.942621    0.342590    2.329427
     23          7           0       -3.018139   -1.614876   -2.607644
     24          1           0       -3.521917   -0.925150   -2.067559
     25          6           0       -1.591079   -1.371860   -2.722791
     26          1           0       -1.043046   -2.221836   -2.309988
     27          6           0       -1.312354   -0.089501   -1.933616
     28          6           0       -1.189339   -1.226639   -4.181262
     29          1           0       -1.554724   -2.092516   -4.726450
     30          1           0       -0.109699   -1.100799   -4.292163
     31          8           0       -2.205981    0.690827   -1.656550
     32          8           0       -1.848155   -0.007157   -4.741814
     33          1           0       -1.883782    0.007225   -5.716334
     34          7           0       -0.017259    0.141271   -1.646980
     35          1           0        0.719937   -0.508079   -1.876018
     36          6           0        0.422668    1.356382   -1.001191
     37          1           0       -0.042900    2.229923   -1.468978
     38          6           0        1.939214    1.399454   -1.165681
     39          6           0        0.036903    1.384170    0.488389
     40          1           0        0.446951    0.492742    0.985296
     41          1           0       -1.048350    1.347544    0.541902
     42          8           0        2.585084    0.388500   -1.381661
     43          8           0        0.461046    2.581439    1.109787
     44          1           0        1.394042    2.502458    1.354043
     45          7           0        2.508766    2.629013   -1.036160
     46          1           0        1.942165    3.360050   -0.636932
     47          6           0        3.927278    2.729117   -0.767319
     48          1           0        4.412664    1.912130   -1.308457
     49          6           0        4.170893    2.564647    0.742119
     50          6           0        4.487968    4.061417   -1.266694
     51          1           0        4.002492    4.903131   -0.773164
     52          1           0        5.566366    4.097900   -1.084640
     53          8           0        3.328982    2.899285    1.573913
     54          6           0        4.241872    4.121172   -2.806101
     55          8           0        4.838170    3.248716   -3.456673
     56          8           0        3.492835    5.030044   -3.211692
     57          7           0        5.379624    2.066407    1.083691
     58          1           0        6.155689    2.078920    0.430174
     59          6           0        5.882233    2.178043    2.426041
     60          1           0        5.410284    3.026064    2.941129
     61          6           0        7.414661    2.449923    2.273052
     62          6           0        5.697530    0.919917    3.274281
     63          1           0        6.239332    1.082650    4.205756
     64          1           0        6.160799    0.063186    2.775068
     65          8           0        8.049864    2.656975    3.307056
     66          6           0        4.231922    0.620810    3.545316
     67          1           0        3.732652    0.376141    2.608635
     68          1           0        3.739136    1.512997    3.935622
     69          6           0        4.049729   -0.531191    4.511751
     70          1           0        2.991438   -0.810469    4.580138
     71          1           0        4.596357   -1.398948    4.135710
     72          7           0        4.583001   -0.160235    5.841770
     73          1           0        4.374675    0.788837    6.118955
     74          7           0        4.299004   -2.326720    6.682199
     75          1           0        4.589556   -2.995011    7.377933
     76          1           0        4.256557   -2.667916    5.736298
     77          7           0        4.839260   -0.544521    8.110221
     78          1           0        5.365423    0.316767    8.169338
     79          1           0        5.059103   -1.217827    8.828171
     80          6           0        4.586664   -1.025150    6.868752
     81          8           0        7.829448    2.437613    1.089183
     82          1           0       -2.784476    0.000631   -4.435600
 ---------------------------------------------------------------------

 SCF Done:  E(RB3LYP) =  -2166.06402183     A.U. after    4 cycles

 Alpha  occ. eigenvalues --  -19.46055 -19.28835 -19.24338 -19.19250 -19.17218
 Alpha  occ. eigenvalues --  -19.13504 -19.06735 -19.05678 -19.05034 -19.04781
 Alpha  occ. eigenvalues --  -14.65994 -14.52802 -14.52547 -14.52004 -14.51265
 Alpha  occ. eigenvalues --  -14.46999 -14.39129 -14.34678 -10.48263 -10.45330
 Alpha  occ. eigenvalues --  -10.43857 -10.43667 -10.41569 -10.40057 -10.36686
 Alpha  occ. eigenvalues --  -10.33783 -10.33440 -10.33213 -10.31754 -10.31671
 Alpha  occ. eigenvalues --  -10.31064 -10.30997 -10.30701 -10.30392 -10.30297
 Alpha  occ. eigenvalues --  -10.29307 -10.24881 -10.23427 -10.23396 -10.22969
 Alpha  occ. eigenvalues --  -10.21192 -10.20866 -10.16491  -1.33121  -1.22774
 Alpha  occ. eigenvalues --   -1.19922  -1.17171  -1.16854  -1.09951  -1.09354
 Alpha  occ. eigenvalues --   -1.07113  -1.05877  -1.05471  -1.05258  -1.03544
 Alpha  occ. eigenvalues --   -1.00100  -0.99473  -0.99245  -0.96901  -0.96010
 Alpha  occ. eigenvalues --   -0.94934  -0.92617  -0.90702  -0.89675  -0.89003
 Alpha  occ. eigenvalues --   -0.87888  -0.87011  -0.86208  -0.83923  -0.82500
 Alpha  occ. eigenvalues --   -0.81335  -0.80222  -0.79717  -0.78317  -0.78285
 Alpha  occ. eigenvalues --   -0.77041  -0.76192  -0.74545  -0.74087  -0.73483
 Alpha  occ. eigenvalues --   -0.71946  -0.71622  -0.71413  -0.70921  -0.69114
 Alpha  occ. eigenvalues --   -0.68583  -0.67480  -0.66578  -0.66006  -0.65328
 Alpha  occ. eigenvalues --   -0.64875  -0.64267  -0.63922  -0.63427  -0.62410
 Alpha  occ. eigenvalues --   -0.61580  -0.60586  -0.59899  -0.59599  -0.59039
 Alpha  occ. eigenvalues --   -0.58423  -0.58280  -0.58054  -0.57538  -0.57090
 Alpha  occ. eigenvalues --   -0.56997  -0.55729  -0.54835  -0.54443  -0.54326
 Alpha  occ. eigenvalues --   -0.54052  -0.53832  -0.53319  -0.52797  -0.52603
 Alpha  occ. eigenvalues --   -0.51845  -0.50335  -0.50110  -0.48934  -0.48763
 Alpha  occ. eigenvalues --   -0.48587  -0.47676  -0.47078  -0.46968  -0.46577
 Alpha  occ. eigenvalues --   -0.46171  -0.44734  -0.44348  -0.44065  -0.44043
 Alpha  occ. eigenvalues --   -0.43499  -0.43384  -0.42737  -0.42206  -0.41657
 Alpha  occ. eigenvalues --   -0.40457  -0.40030  -0.39431  -0.38993  -0.38682
 Alpha  occ. eigenvalues --   -0.38498  -0.37885  -0.37558  -0.37503  -0.37224
 Alpha  occ. eigenvalues --   -0.36835  -0.36627  -0.34943  -0.34456  -0.33256
 Alpha  occ. eigenvalues --   -0.32966  -0.32536  -0.31342  -0.29936  -0.27094
 Alpha  occ. eigenvalues --   -0.26678  -0.21310  -0.20514  -0.19962  -0.19548
 Alpha  occ. eigenvalues --   -0.18879  -0.18606
 Alpha virt. eigenvalues --   -0.17617  -0.16145  -0.14673  -0.13577  -0.13478
 Alpha virt. eigenvalues --   -0.12784  -0.10532  -0.09883  -0.08493  -0.08165
 Alpha virt. eigenvalues --   -0.07387  -0.06265  -0.05428  -0.04259  -0.04226

 Mulliken charges:
               1
     1  N   -0.705735
     2  H    0.420413
     3  H    0.429173
     4  H    0.421871
     5  C   -0.149614
     6  H    0.210015
     7  C    0.598591
     8  C   -0.374319
     9  H    0.179327
    10  H    0.190255
    11  O   -0.530096
    12  C    0.157021
    13  C   -0.191418
    14  H    0.143181
    15  C   -0.198654
    16  H    0.131392
    17  C   -0.128328
    18  H    0.157816
    19  C   -0.115756
    20  H    0.171183
    21  C   -0.114060
    22  H    0.177792
    23  N   -0.633034
    24  H    0.377423
    25  C   -0.107253
    26  H    0.225363
    27  C    0.636754
    28  C   -0.120731
    29  H    0.221802
    30  H    0.261619
    31  O   -0.525948
    32  O   -0.500315
    33  H    0.414793
    34  N   -0.623191
    35  H    0.350371
    36  C   -0.052244
    37  H    0.197919
    38  C    0.588294
    39  C   -0.038617
    40  H    0.114054
    41  H    0.160067
    42  O   -0.536765
    43  O   -0.640183
    44  H    0.432825
    45  N   -0.565141
    46  H    0.345845
    47  C   -0.090880
    48  H    0.205668
    49  C    0.604748
    50  C   -0.363937
    51  H    0.133839
    52  H    0.180535
    53  O   -0.587216
    54  C    0.574755
    55  O   -0.537433
    56  O   -0.525548
    57  N   -0.589633
    58  H    0.370072
    59  C   -0.071676
    60  H    0.146957
    61  C    0.579929
    62  C   -0.259745
    63  H    0.149651
    64  H    0.137143
    65  O   -0.573051
    66  C   -0.301588
    67  H    0.173817
    68  H    0.163790
    69  C   -0.177786
    70  H    0.167438
    71  H    0.172688
    72  N   -0.553432
    73  H    0.374979
    74  N   -0.729852
    75  H    0.377190
    76  H    0.392009
    77  N   -0.731953
    78  H    0.394312
    79  H    0.372945
    80  C    0.762882
    81  O   -0.589994
    82  H    0.384620
 Sum of Mulliken charges =   1.00000

 Dipole moment (field-independent basis, Debye):
    X=            -40.0572    Y=            -38.0412    Z=              7.5266  Tot=             55.7527
 Quadrupole moment (field-independent basis, Debye-Ang):
   XX=           -246.3842   YY=           -246.1922   ZZ=              0.8093
   XY=            -37.1337   XZ=            208.7471   YZ=             30.0206

 Normal termination of Gaussian 16 at Tue May 17 19:50:08 2022.
