 Gaussian 16, Revision C.01,
 Gaussian 16:  ES64L-G16RevC.01  3-Jul-2019

 ----------------------------------------------------------------------
 # B3LYP/6-31G* empiricaldispersion=gd3 guess=read geom=check nosymm in
 tegral(ultrafinegrid)
 ----------------------------------------------------------------------

 ------------------------------------------------------
 Candidate Structure: Conf:433 Charge calc in gas phase
 ------------------------------------------------------
 Structure from the checkpoint file:  "conf-433.chk"
 Charge =  1 Multiplicity = 1

                          Input orientation:
 ---------------------------------------------------------------------
 Center     Atomic      Atomic             Coordinates (Angstroms)
 Number     Number       Type             X           Y           Z
 ---------------------------------------------------------------------
      1          7           0       -5.887009   -4.114935   -3.826416
      2          1           0       -5.189722   -4.536508   -4.452687
      3          1           0       -5.766559   -4.533445   -2.895023
      4          1           0       -6.833194   -4.317894   -4.167061
      5          6           0       -5.610446   -2.642965   -3.749548
      6          1           0       -5.941857   -2.199547   -4.703007
      7          6           0       -4.109492   -2.505070   -3.689755
      8          6           0       -6.394275   -1.973331   -2.606009
      9          1           0       -6.190730   -0.898520   -2.638318
     10          1           0       -7.460038   -2.093160   -2.834104
     11          8           0       -3.386666   -3.412707   -4.235779
     12          6           0       -6.091601   -2.545078   -1.239774
     13          6           0       -6.783404   -3.673316   -0.782628
     14          1           0       -7.572846   -4.106743   -1.393903
     15          6           0       -5.126973   -1.970229   -0.400816
     16          1           0       -4.603715   -1.072799   -0.711546
     17          6           0       -6.485662   -4.247444    0.454658
     18          1           0       -7.026442   -5.129442    0.781207
     19          6           0       -4.833652   -2.537274    0.837863
     20          1           0       -4.075397   -2.076476    1.463258
     21          6           0       -5.504718   -3.681947    1.267100
     22          1           0       -5.272828   -4.123711    2.230603
     23          7           0       -3.545919   -1.430445   -3.118112
     24          1           0       -4.059609   -0.647905   -2.729232
     25          6           0       -2.134309   -1.412401   -2.794217
     26          1           0       -1.847522   -2.365255   -2.329111
     27          6           0       -1.957094   -0.268312   -1.778959
     28          6           0       -1.287529   -1.245365   -4.055428
     29          1           0       -0.249525   -0.996979   -3.834132
     30          1           0       -1.718367   -0.495847   -4.715299
     31          8           0       -2.865183    0.540853   -1.596178
     32          8           0       -1.309872   -2.521567   -4.816681
     33          1           0       -0.599171   -3.109469   -4.521826
     34          7           0       -0.778198   -0.245039   -1.151185
     35          1           0       -0.015863   -0.889283   -1.353376
     36          6           0       -0.384864    0.797532   -0.224223
     37          1           0       -0.660120    1.774736   -0.632686
     38          6           0        1.151658    0.648081   -0.125970
     39          6           0       -1.078718    0.662136    1.133162
     40          1           0       -0.701929   -0.225947    1.662553
     41          1           0       -2.154188    0.533300    0.951147
     42          8           0        1.693544   -0.353992   -0.596642
     43          8           0       -0.808181    1.864562    1.836647
     44          1           0       -1.106891    1.775687    2.750256
     45          7           0        1.795184    1.654583    0.467136
     46          1           0        1.284738    2.353102    1.003534
     47          6           0        3.230840    1.630622    0.711282
     48          1           0        3.513520    0.675929    1.171747
     49          6           0        3.480787    2.762959    1.727300
     50          6           0        4.055074    1.754560   -0.584866
     51          1           0        3.480585    1.358553   -1.424380
     52          1           0        4.285894    2.801751   -0.805497
     53          8           0        2.543179    3.405479    2.198072
     54          6           0        5.376946    0.949383   -0.489456
     55          8           0        5.780132    0.419492   -1.538640
     56          8           0        5.942103    0.905734    0.641287
     57          7           0        4.775293    2.960541    2.041003
     58          1           0        5.479832    2.378314    1.553704
     59          6           0        5.175076    3.925648    3.038526
     60          1           0        4.324767    4.576798    3.235247
     61          6           0        6.385908    4.780900    2.463512
     62          6           0        5.681611    3.205566    4.281592
     63          1           0        6.028741    3.949648    5.010039
     64          1           0        6.560395    2.642915    3.950059
     65          8           0        6.073011    5.944698    2.157293
     66          6           0        4.653564    2.266335    4.898554
     67          1           0        4.389068    1.516534    4.151020
     68          1           0        3.731118    2.796074    5.157188
     69          6           0        5.210979    1.555367    6.131784
     70          1           0        5.418105    2.266150    6.935214
     71          1           0        4.500659    0.828601    6.542746
     72          7           0        6.502510    0.882224    5.854937
     73          1           0        7.291966    1.516981    5.863535
     74          7           0        5.557126   -0.763290    4.492567
     75          1           0        5.666049   -1.646120    4.016421
     76          1           0        4.661098   -0.601720    4.924480
     77          7           0        7.863291   -0.442039    4.523565
     78          1           0        8.664869   -0.160404    5.071501
     79          1           0        7.985097   -1.292080    3.991863
     80          6           0        6.632940   -0.119293    4.971176
     81          8           0        7.461601    4.155699    2.385110
     82          1           0       -2.265973   -2.994410   -4.588527
 ---------------------------------------------------------------------

 SCF Done:  E(RB3LYP) =  -2166.11129068     A.U. after    4 cycles

 Alpha  occ. eigenvalues --  -19.39885 -19.30395 -19.24857 -19.23106 -19.18194
 Alpha  occ. eigenvalues --  -19.13453 -19.08372 -19.07322 -19.06854 -19.06844
 Alpha  occ. eigenvalues --  -14.62810 -14.51768 -14.49999 -14.49415 -14.49048
 Alpha  occ. eigenvalues --  -14.47570 -14.40197 -14.35928 -10.45837 -10.43925
 Alpha  occ. eigenvalues --  -10.42787 -10.42192 -10.42099 -10.39665 -10.35722
 Alpha  occ. eigenvalues --  -10.34843 -10.33433 -10.32511 -10.32348 -10.32285
 Alpha  occ. eigenvalues --  -10.31923 -10.31533 -10.31462 -10.31310 -10.31138
 Alpha  occ. eigenvalues --  -10.30050 -10.25402 -10.25283 -10.24892 -10.24714
 Alpha  occ. eigenvalues --  -10.22628 -10.21642 -10.18286  -1.27961  -1.21462
 Alpha  occ. eigenvalues --   -1.17470  -1.17003  -1.14369  -1.10946  -1.10067
 Alpha  occ. eigenvalues --   -1.09030  -1.05563  -1.04178  -1.03437  -1.02892
 Alpha  occ. eigenvalues --   -1.00907  -1.00136  -0.99216  -0.97076  -0.95907
 Alpha  occ. eigenvalues --   -0.93351  -0.93037  -0.92478  -0.91100  -0.88810
 Alpha  occ. eigenvalues --   -0.87168  -0.86439  -0.86294  -0.83826  -0.81613
 Alpha  occ. eigenvalues --   -0.80215  -0.78540  -0.78320  -0.76481  -0.76260
 Alpha  occ. eigenvalues --   -0.76151  -0.75213  -0.74462  -0.73167  -0.71999
 Alpha  occ. eigenvalues --   -0.71658  -0.71313  -0.70447  -0.69945  -0.68947
 Alpha  occ. eigenvalues --   -0.68171  -0.67412  -0.66325  -0.65573  -0.64468
 Alpha  occ. eigenvalues --   -0.63484  -0.62568  -0.62457  -0.62231  -0.62141
 Alpha  occ. eigenvalues --   -0.61526  -0.60638  -0.59842  -0.59162  -0.58636
 Alpha  occ. eigenvalues --   -0.58079  -0.57680  -0.57306  -0.57097  -0.56694
 Alpha  occ. eigenvalues --   -0.55692  -0.55471  -0.55022  -0.54867  -0.54397
 Alpha  occ. eigenvalues --   -0.53827  -0.53465  -0.53341  -0.52693  -0.52422
 Alpha  occ. eigenvalues --   -0.52276  -0.51466  -0.51328  -0.50319  -0.49175
 Alpha  occ. eigenvalues --   -0.48825  -0.48501  -0.47630  -0.47020  -0.46765
 Alpha  occ. eigenvalues --   -0.46364  -0.46232  -0.45982  -0.45423  -0.44658
 Alpha  occ. eigenvalues --   -0.44235  -0.43092  -0.42774  -0.42458  -0.42426
 Alpha  occ. eigenvalues --   -0.41114  -0.40995  -0.40448  -0.39468  -0.39386
 Alpha  occ. eigenvalues --   -0.38509  -0.38367  -0.37928  -0.37913  -0.37535
 Alpha  occ. eigenvalues --   -0.37503  -0.37418  -0.36436  -0.35672  -0.35493
 Alpha  occ. eigenvalues --   -0.35477  -0.34175  -0.32376  -0.30372  -0.27664
 Alpha  occ. eigenvalues --   -0.27210  -0.22869  -0.22395  -0.21590  -0.21363
 Alpha  occ. eigenvalues --   -0.20048  -0.19376
 Alpha virt. eigenvalues --   -0.18559  -0.13710  -0.13575  -0.12365  -0.11354
 Alpha virt. eigenvalues --   -0.10659  -0.10418  -0.06853  -0.06163  -0.06054
 Alpha virt. eigenvalues --   -0.05029  -0.04351  -0.04112  -0.03759  -0.02588

 Mulliken charges:
               1
     1  N   -0.700369
     2  H    0.428259
     3  H    0.398967
     4  H    0.390197
     5  C   -0.131622
     6  H    0.210322
     7  C    0.604034
     8  C   -0.396349
     9  H    0.206668
    10  H    0.188941
    11  O   -0.676635
    12  C    0.168156
    13  C   -0.229759
    14  H    0.125324
    15  C   -0.194201
    16  H    0.158557
    17  C   -0.119983
    18  H    0.165651
    19  C   -0.132270
    20  H    0.159575
    21  C   -0.122669
    22  H    0.167457
    23  N   -0.618145
    24  H    0.382572
    25  C   -0.107754
    26  H    0.189814
    27  C    0.631657
    28  C   -0.089707
    29  H    0.240901
    30  H    0.237656
    31  O   -0.526898
    32  O   -0.611537
    33  H    0.470602
    34  N   -0.627296
    35  H    0.355416
    36  C   -0.056250
    37  H    0.208773
    38  C    0.606947
    39  C   -0.029142
    40  H    0.131326
    41  H    0.143626
    42  O   -0.556753
    43  O   -0.602019
    44  H    0.411958
    45  N   -0.619487
    46  H    0.381194
    47  C   -0.025641
    48  H    0.165880
    49  C    0.571423
    50  C   -0.377681
    51  H    0.148916
    52  H    0.171058
    53  O   -0.561059
    54  C    0.587513
    55  O   -0.541130
    56  O   -0.608928
    57  N   -0.608889
    58  H    0.400109
    59  C   -0.038589
    60  H    0.174662
    61  C    0.586624
    62  C   -0.281823
    63  H    0.141483
    64  H    0.159130
    65  O   -0.511464
    66  C   -0.283305
    67  H    0.153883
    68  H    0.174346
    69  C   -0.199496
    70  H    0.195885
    71  H    0.159454
    72  N   -0.567226
    73  H    0.377430
    74  N   -0.713157
    75  H    0.379321
    76  H    0.382611
    77  N   -0.718112
    78  H    0.382167
    79  H    0.380015
    80  C    0.784503
    81  O   -0.551946
    82  H    0.496328
 Sum of Mulliken charges =   1.00000

 Dipole moment (field-independent basis, Debye):
    X=            -29.4727    Y=            -33.7208    Z=             -1.2840  Tot=             44.8039
 Quadrupole moment (field-independent basis, Debye-Ang):
   XX=           -129.9448   YY=           -245.0476   ZZ=            -63.6947
   XY=             -5.4882   XZ=            188.7947   YZ=             32.5789

 Normal termination of Gaussian 16 at Tue May 17 19:50:06 2022.
