 Gaussian 16, Revision C.01,
 Gaussian 16:  ES64L-G16RevC.01  3-Jul-2019

 ----------------------------------------------------------------------
 # B3LYP/6-31G* empiricaldispersion=gd3 guess=read geom=check nosymm in
 tegral(ultrafinegrid)
 ----------------------------------------------------------------------

 -----------------------------------------------------
 Candidate Structure: Conf:34 Charge calc in gas phase
 -----------------------------------------------------
 Structure from the checkpoint file:  "conf-34.chk"
 Charge =  1 Multiplicity = 1

                          Input orientation:
 ---------------------------------------------------------------------
 Center     Atomic      Atomic             Coordinates (Angstroms)
 Number     Number       Type             X           Y           Z
 ---------------------------------------------------------------------
      1          7           0       -5.249747   -0.395086   -6.811663
      2          1           0       -4.621291   -0.104020   -7.560194
      3          1           0       -5.272412   -1.416012   -6.807873
      4          1           0       -6.188015   -0.038235   -6.995412
      5          6           0       -4.769826    0.089588   -5.505455
      6          1           0       -4.640403    1.175081   -5.551954
      7          6           0       -3.421470   -0.555824   -5.207700
      8          6           0       -5.783710   -0.215663   -4.404019
      9          1           0       -5.880768   -1.298671   -4.312094
     10          1           0       -5.397753    0.158408   -3.454396
     11          8           0       -3.033801   -1.518176   -5.878808
     12          6           0       -7.129330    0.398076   -4.696255
     13          6           0       -7.282117    1.781181   -4.724565
     14          1           0       -6.423260    2.406117   -4.510200
     15          6           0       -8.230519   -0.401617   -4.985201
     16          1           0       -8.122706   -1.481321   -4.972951
     17          6           0       -8.513639    2.357668   -5.016510
     18          1           0       -8.610607    3.437512   -5.026018
     19          6           0       -9.463678    0.165765   -5.292697
     20          1           0      -10.308571   -0.474806   -5.517649
     21          6           0       -9.608891    1.549488   -5.306262
     22          1           0      -10.568942    1.995466   -5.540403
     23          7           0       -2.715733   -0.044909   -4.188559
     24          1           0       -3.014392    0.787782   -3.699498
     25          6           0       -1.505819   -0.644030   -3.640078
     26          1           0       -1.691227   -1.695320   -3.403027
     27          6           0       -1.208803    0.146844   -2.365207
     28          6           0       -0.326071   -0.608416   -4.617107
     29          1           0        0.616623   -0.779145   -4.100846
     30          1           0       -0.299830    0.342064   -5.139935
     31          8           0       -1.734610    1.225017   -2.149344
     32          8           0       -0.464865   -1.662562   -5.640685
     33          1           0       -0.165836   -2.519275   -5.287935
     34          7           0       -0.313098   -0.422828   -1.519475
     35          1           0        0.220280   -1.233019   -1.797325
     36          6           0        0.183366    0.269567   -0.350316
     37          1           0       -0.140686    1.306891   -0.413096
     38          6           0        1.701475    0.147267   -0.322023
     39          6           0       -0.386856   -0.333300    0.928555
     40          1           0        0.113905    0.117073    1.797532
     41          1           0       -0.174238   -1.410074    0.932136
     42          8           0        2.276283   -0.831382   -0.761197
     43          8           0       -1.780872   -0.064476    0.934024
     44          1           0       -2.193825   -0.593738    1.619694
     45          7           0        2.351421    1.205422    0.256160
     46          1           0        1.774211    1.808694    0.821252
     47          6           0        3.688681    1.018119    0.801947
     48          1           0        4.154739    0.197452    0.255613
     49          6           0        3.534363    0.619966    2.288793
     50          6           0        4.543404    2.271686    0.628580
     51          1           0        4.301289    2.757669   -0.317402
     52          1           0        4.367268    2.998906    1.425525
     53          8           0        2.497976    0.808305    2.907367
     54          6           0        6.079700    1.980854    0.577064
     55          8           0        6.779597    2.979472    0.372970
     56          8           0        6.423201    0.792647    0.751734
     57          7           0        4.646521    0.069759    2.831042
     58          1           0        5.550104    0.188691    2.358473
     59          6           0        4.761733   -0.128961    4.243671
     60          1           0        4.054625    0.517123    4.780753
     61          6           0        6.221321    0.257540    4.638433
     62          6           0        4.564736   -1.578189    4.681967
     63          1           0        4.910866   -1.649399    5.718537
     64          1           0        5.207192   -2.223771    4.074877
     65          8           0        6.452610    0.283853    5.854225
     66          6           0        3.119272   -2.046032    4.587178
     67          1           0        2.761922   -1.956942    3.564533
     68          1           0        2.491471   -1.395979    5.202952
     69          6           0        2.970308   -3.477243    5.069379
     70          1           0        3.576846   -4.145398    4.445110
     71          1           0        3.351264   -3.547918    6.091883
     72          7           0        1.550621   -3.874543    5.046649
     73          1           0        1.017719   -3.484829    4.283562
     74          7           0        2.014256   -5.967072    5.987066
     75          1           0        1.656028   -6.742519    6.520062
     76          1           0        2.921523   -5.626564    6.255751
     77          7           0       -0.132631   -5.457609    5.184555
     78          1           0       -0.804546   -4.707373    5.099810
     79          1           0       -0.479937   -6.276393    5.659077
     80          6           0        1.151220   -5.099974    5.427108
     81          8           0        6.990939    0.508878    3.687702
     82          1           0       -1.466590   -1.721881   -5.822812
 ---------------------------------------------------------------------

 SCF Done:  E(RB3LYP) =  -2166.04829070     A.U. after    3 cycles

 Alpha  occ. eigenvalues --  -19.45003 -19.29518 -19.24577 -19.22789 -19.18059
 Alpha  occ. eigenvalues --  -19.11927 -19.05052 -19.04916 -19.04853 -19.04003
 Alpha  occ. eigenvalues --  -14.64560 -14.53061 -14.52918 -14.51651 -14.51581
 Alpha  occ. eigenvalues --  -14.47682 -14.39675 -14.32555 -10.48764 -10.43809
 Alpha  occ. eigenvalues --  -10.43584 -10.42809 -10.42167 -10.40630 -10.35318
 Alpha  occ. eigenvalues --  -10.34632 -10.32750 -10.32715 -10.31611 -10.31592
 Alpha  occ. eigenvalues --  -10.31382 -10.31344 -10.30913 -10.30855 -10.30550
 Alpha  occ. eigenvalues --  -10.27908 -10.24370 -10.22721 -10.22463 -10.22285
 Alpha  occ. eigenvalues --  -10.20144 -10.19428 -10.16833  -1.32546  -1.22262
 Alpha  occ. eigenvalues --   -1.19139  -1.17353  -1.17235  -1.10807  -1.10108
 Alpha  occ. eigenvalues --   -1.08860  -1.06308  -1.06038  -1.04154  -1.03967
 Alpha  occ. eigenvalues --   -0.99456  -0.98735  -0.98033  -0.96561  -0.96274
 Alpha  occ. eigenvalues --   -0.94327  -0.91056  -0.89436  -0.89110  -0.88855
 Alpha  occ. eigenvalues --   -0.87418  -0.86975  -0.86854  -0.84178  -0.82204
 Alpha  occ. eigenvalues --   -0.81383  -0.80325  -0.78447  -0.77921  -0.77220
 Alpha  occ. eigenvalues --   -0.76641  -0.75723  -0.74612  -0.74034  -0.73272
 Alpha  occ. eigenvalues --   -0.71912  -0.71643  -0.71302  -0.70263  -0.69483
 Alpha  occ. eigenvalues --   -0.68851  -0.67827  -0.66527  -0.65752  -0.65637
 Alpha  occ. eigenvalues --   -0.65441  -0.64164  -0.63923  -0.63168  -0.61574
 Alpha  occ. eigenvalues --   -0.61331  -0.60458  -0.59857  -0.59548  -0.59472
 Alpha  occ. eigenvalues --   -0.58581  -0.58261  -0.57916  -0.57598  -0.57220
 Alpha  occ. eigenvalues --   -0.56813  -0.55632  -0.55259  -0.54989  -0.54426
 Alpha  occ. eigenvalues --   -0.54188  -0.53896  -0.53221  -0.52923  -0.52405
 Alpha  occ. eigenvalues --   -0.52199  -0.50176  -0.49448  -0.48681  -0.48516
 Alpha  occ. eigenvalues --   -0.48193  -0.47657  -0.47036  -0.46343  -0.46110
 Alpha  occ. eigenvalues --   -0.45867  -0.45199  -0.45026  -0.44590  -0.44117
 Alpha  occ. eigenvalues --   -0.43163  -0.42863  -0.42609  -0.42029  -0.41737
 Alpha  occ. eigenvalues --   -0.40993  -0.40475  -0.39239  -0.38897  -0.38498
 Alpha  occ. eigenvalues --   -0.37783  -0.37572  -0.37329  -0.37111  -0.36889
 Alpha  occ. eigenvalues --   -0.35973  -0.35821  -0.35252  -0.34236  -0.33596
 Alpha  occ. eigenvalues --   -0.32224  -0.32065  -0.31478  -0.30195  -0.25863
 Alpha  occ. eigenvalues --   -0.24871  -0.20132  -0.19951  -0.18706  -0.18436
 Alpha  occ. eigenvalues --   -0.18039  -0.17413
 Alpha virt. eigenvalues --   -0.16571  -0.14688  -0.13987  -0.13824  -0.12503
 Alpha virt. eigenvalues --   -0.12353  -0.11408  -0.08887  -0.08566  -0.07213
 Alpha virt. eigenvalues --   -0.06478  -0.05912  -0.04498  -0.04330  -0.03859

 Mulliken charges:
               1
     1  N   -0.701690
     2  H    0.424862
     3  H    0.424307
     4  H    0.423978
     5  C   -0.146505
     6  H    0.211230
     7  C    0.598099
     8  C   -0.370249
     9  H    0.173020
    10  H    0.212645
    11  O   -0.637930
    12  C    0.130785
    13  C   -0.196631
    14  H    0.138510
    15  C   -0.211221
    16  H    0.135072
    17  C   -0.123236
    18  H    0.168292
    19  C   -0.123556
    20  H    0.164421
    21  C   -0.126296
    22  H    0.169820
    23  N   -0.626254
    24  H    0.375250
    25  C   -0.091465
    26  H    0.179369
    27  C    0.621910
    28  C   -0.115612
    29  H    0.248226
    30  H    0.247906
    31  O   -0.495040
    32  O   -0.575734
    33  H    0.459651
    34  N   -0.594843
    35  H    0.328166
    36  C   -0.092871
    37  H    0.210581
    38  C    0.593182
    39  C   -0.038517
    40  H    0.193997
    41  H    0.109659
    42  O   -0.532676
    43  O   -0.618030
    44  H    0.393992
    45  N   -0.568495
    46  H    0.332503
    47  C   -0.075258
    48  H    0.204869
    49  C    0.571151
    50  C   -0.385777
    51  H    0.143630
    52  H    0.160198
    53  O   -0.585709
    54  C    0.606371
    55  O   -0.521288
    56  O   -0.562285
    57  N   -0.618177
    58  H    0.434263
    59  C   -0.067917
    60  H    0.147867
    61  C    0.577946
    62  C   -0.268889
    63  H    0.161678
    64  H    0.141756
    65  O   -0.550757
    66  C   -0.297902
    67  H    0.156765
    68  H    0.165893
    69  C   -0.179845
    70  H    0.187909
    71  H    0.183609
    72  N   -0.572288
    73  H    0.363929
    74  N   -0.726124
    75  H    0.378171
    76  H    0.404186
    77  N   -0.736830
    78  H    0.379725
    79  H    0.372065
    80  C    0.766729
    81  O   -0.517086
    82  H    0.474840
 Sum of Mulliken charges =   1.00000

 Dipole moment (field-independent basis, Debye):
    X=            -52.0059    Y=            -30.7643    Z=            -25.6176  Tot=             65.6302
 Quadrupole moment (field-independent basis, Debye-Ang):
   XX=           -327.6587   YY=           -129.9733   ZZ=             32.6932
   XY=            -63.9090   XZ=             77.8751   YZ=           -116.1261

 Normal termination of Gaussian 16 at Tue May 17 19:49:33 2022.
