 Gaussian 16, Revision C.01,
 Gaussian 16:  ES64L-G16RevC.01  3-Jul-2019

 ----------------------------------------------------------------------
 # B3LYP/6-31G* empiricaldispersion=gd3 guess=read geom=check nosymm in
 tegral(ultrafinegrid)
 ----------------------------------------------------------------------

 ------------------------------------------------------
 Candidate Structure: Conf:197 Charge calc in gas phase
 ------------------------------------------------------
 Structure from the checkpoint file:  "conf-197.chk"
 Charge =  1 Multiplicity = 1

                          Input orientation:
 ---------------------------------------------------------------------
 Center     Atomic      Atomic             Coordinates (Angstroms)
 Number     Number       Type             X           Y           Z
 ---------------------------------------------------------------------
      1          7           0       -3.209938    2.563754   -3.652445
      2          1           0       -2.849015    3.033492   -4.487110
      3          1           0       -4.108061    2.097138   -3.895738
      4          1           0       -3.332573    3.254966   -2.894551
      5          6           0       -2.322309    1.430044   -3.192975
      6          1           0       -1.273936    1.690868   -3.360311
      7          6           0       -2.794941    0.209030   -4.004018
      8          6           0       -2.609397    1.177111   -1.696022
      9          1           0       -3.656515    0.861939   -1.603504
     10          1           0       -2.001883    0.321450   -1.397793
     11          8           0       -3.998154    0.122428   -4.272770
     12          6           0       -2.322564    2.391300   -0.843748
     13          6           0       -1.029994    2.628648   -0.360577
     14          1           0       -0.221165    1.934680   -0.564399
     15          6           0       -3.342689    3.313131   -0.551391
     16          1           0       -4.368384    3.106011   -0.859461
     17          6           0       -0.760824    3.744044    0.432296
     18          1           0        0.231523    3.843911    0.862009
     19          6           0       -3.066730    4.453761    0.210648
     20          1           0       -3.864353    5.155471    0.439761
     21          6           0       -1.779525    4.662781    0.706133
     22          1           0       -1.573329    5.533764    1.322265
     23          7           0       -1.813425   -0.646627   -4.275165
     24          1           0       -0.816661   -0.371807   -3.972388
     25          6           0       -1.981115   -2.056004   -4.541764
     26          1           0       -2.950666   -2.239772   -5.017130
     27          6           0       -1.983607   -2.772037   -3.154783
     28          6           0       -0.799779   -2.416460   -5.491814
     29          1           0        0.055469   -1.788132   -5.219658
     30          1           0       -1.108141   -2.177351   -6.514625
     31          8           0       -2.055780   -2.130320   -2.118281
     32          8           0       -0.412652   -3.803322   -5.404331
     33          1           0        0.161662   -4.006372   -6.159412
     34          7           0       -1.786121   -4.140129   -3.121346
     35          1           0       -1.569777   -4.585482   -4.009477
     36          6           0       -0.965695   -4.621835   -2.002889
     37          1           0       -1.512461   -4.470407   -1.069143
     38          6           0        0.292279   -3.746255   -1.962198
     39          6           0       -0.644626   -6.102449   -2.174321
     40          1           0       -1.589218   -6.662922   -2.136674
     41          1           0       -0.009008   -6.429400   -1.338590
     42          8           0        0.969970   -3.526131   -3.057634
     43          8           0        0.007561   -6.244729   -3.429637
     44          1           0        0.217063   -7.179294   -3.575006
     45          7           0        0.634001   -3.113611   -0.882668
     46          1           0        0.116198   -3.229401   -0.000997
     47          6           0        1.530632   -1.943498   -0.785377
     48          1           0        2.507214   -2.166145   -1.230395
     49          6           0        1.578831   -1.637459    0.718338
     50          6           0        0.928319   -0.744623   -1.554321
     51          1           0       -0.162532   -0.818319   -1.537555
     52          1           0        1.201595    0.176294   -1.021150
     53          8           0        0.793753   -2.209263    1.485106
     54          6           0        1.460149   -0.607291   -3.006830
     55          8           0        2.580077   -1.054196   -3.256142
     56          8           0        0.666382    0.009131   -3.810229
     57          7           0        2.470726   -0.687586    1.079448
     58          1           0        2.862579   -0.153785    0.304936
     59          6           0        2.201869    0.218871    2.202674
     60          1           0        1.353275   -0.184365    2.762929
     61          6           0        1.811580    1.641334    1.619024
     62          6           0        3.435213    0.319842    3.122703
     63          1           0        4.226090    0.854385    2.576383
     64          1           0        3.822067   -0.682945    3.339150
     65          8           0        1.479693    2.505386    2.465076
     66          6           0        3.104508    1.073360    4.419095
     67          1           0        2.557105    0.410347    5.106879
     68          1           0        2.427514    1.892829    4.147011
     69          6           0        4.347433    1.647062    5.094874
     70          1           0        5.024774    0.884404    5.497360
     71          1           0        4.926802    2.237776    4.380561
     72          7           0        4.004762    2.577634    6.197376
     73          1           0        3.784685    3.526800    5.919897
     74          7           0        3.591809    0.921012    7.769269
     75          1           0        3.572262    0.636159    8.737479
     76          1           0        3.577130    0.202007    7.060351
     77          7           0        3.449469    3.144357    8.390187
     78          1           0        3.584245    4.127945    8.197339
     79          1           0        2.904735    2.911690    9.210221
     80          6           0        3.670695    2.216330    7.430376
     81          8           0        1.890359    1.754658    0.369722
     82          1           0        0.539079   -3.900031   -3.875295
 ---------------------------------------------------------------------

 SCF Done:  E(RB3LYP) =  -2166.29845648     A.U. after    1 cycles

 Alpha  occ. eigenvalues --  -19.29503 -19.27099 -19.25564 -19.21653 -19.20376
 Alpha  occ. eigenvalues --  -19.18122 -19.11923 -19.10784 -19.10757 -19.10551
 Alpha  occ. eigenvalues --  -14.54922 -14.52037 -14.52030 -14.51736 -14.48100
 Alpha  occ. eigenvalues --  -14.44977 -14.41976 -14.40061 -10.48270 -10.42158
 Alpha  occ. eigenvalues --  -10.38222 -10.37064 -10.35034 -10.34620 -10.34600
 Alpha  occ. eigenvalues --  -10.33929 -10.33836 -10.32769 -10.32530 -10.29868
 Alpha  occ. eigenvalues --  -10.29612 -10.29002 -10.27216 -10.26038 -10.25899
 Alpha  occ. eigenvalues --  -10.25781 -10.25209 -10.24862 -10.24669 -10.23885
 Alpha  occ. eigenvalues --  -10.23048 -10.22845 -10.22028  -1.20167  -1.16633
 Alpha  occ. eigenvalues --   -1.14022  -1.13266  -1.12872  -1.12587  -1.09891
 Alpha  occ. eigenvalues --   -1.08737  -1.05706  -1.05004  -1.04890  -1.04510
 Alpha  occ. eigenvalues --   -1.04029  -1.01975  -1.00471  -0.97281  -0.95926
 Alpha  occ. eigenvalues --   -0.95088  -0.91351  -0.88559  -0.88316  -0.87200
 Alpha  occ. eigenvalues --   -0.84607  -0.83699  -0.82009  -0.80016  -0.79391
 Alpha  occ. eigenvalues --   -0.78569  -0.76564  -0.74784  -0.74361  -0.73909
 Alpha  occ. eigenvalues --   -0.73745  -0.72388  -0.70806  -0.69837  -0.68680
 Alpha  occ. eigenvalues --   -0.68459  -0.68165  -0.66736  -0.66281  -0.65356
 Alpha  occ. eigenvalues --   -0.65308  -0.65147  -0.64943  -0.64128  -0.63882
 Alpha  occ. eigenvalues --   -0.62762  -0.62228  -0.60755  -0.60188  -0.58874
 Alpha  occ. eigenvalues --   -0.58666  -0.58368  -0.57853  -0.57653  -0.56760
 Alpha  occ. eigenvalues --   -0.56220  -0.55615  -0.55568  -0.54719  -0.53852
 Alpha  occ. eigenvalues --   -0.53400  -0.53341  -0.52255  -0.52044  -0.51774
 Alpha  occ. eigenvalues --   -0.51712  -0.51366  -0.50547  -0.50392  -0.49527
 Alpha  occ. eigenvalues --   -0.49289  -0.49091  -0.48577  -0.48481  -0.47812
 Alpha  occ. eigenvalues --   -0.47586  -0.46959  -0.46656  -0.46495  -0.45839
 Alpha  occ. eigenvalues --   -0.45570  -0.45077  -0.44780  -0.44282  -0.44099
 Alpha  occ. eigenvalues --   -0.43892  -0.43603  -0.43177  -0.42882  -0.42220
 Alpha  occ. eigenvalues --   -0.41821  -0.41257  -0.41149  -0.41059  -0.40294
 Alpha  occ. eigenvalues --   -0.39642  -0.39194  -0.38979  -0.38791  -0.38562
 Alpha  occ. eigenvalues --   -0.37986  -0.37714  -0.36405  -0.36083  -0.35045
 Alpha  occ. eigenvalues --   -0.34772  -0.33061  -0.32677  -0.31622  -0.30313
 Alpha  occ. eigenvalues --   -0.29962  -0.27292  -0.26556  -0.26281  -0.25422
 Alpha  occ. eigenvalues --   -0.25002  -0.24326
 Alpha virt. eigenvalues --   -0.12242  -0.11919  -0.08662  -0.08300  -0.07282
 Alpha virt. eigenvalues --   -0.06522  -0.04936  -0.04502  -0.04156  -0.03732
 Alpha virt. eigenvalues --   -0.03671  -0.03602  -0.02881  -0.01969   0.00963

 Mulliken charges:
               1
     1  N   -0.741438
     2  H    0.409851
     3  H    0.408628
     4  H    0.397268
     5  C   -0.136847
     6  H    0.239742
     7  C    0.631317
     8  C   -0.393215
     9  H    0.174980
    10  H    0.234852
    11  O   -0.550995
    12  C    0.145038
    13  C   -0.199778
    14  H    0.195961
    15  C   -0.244798
    16  H    0.123115
    17  C   -0.127700
    18  H    0.201129
    19  C   -0.124894
    20  H    0.136228
    21  C   -0.136417
    22  H    0.137167
    23  N   -0.622880
    24  H    0.432696
    25  C   -0.103018
    26  H    0.208080
    27  C    0.602942
    28  C   -0.100585
    29  H    0.229591
    30  H    0.176128
    31  O   -0.487878
    32  O   -0.657865
    33  H    0.436936
    34  N   -0.611754
    35  H    0.381616
    36  C   -0.073122
    37  H    0.208849
    38  C    0.627927
    39  C   -0.055781
    40  H    0.174662
    41  H    0.167426
    42  O   -0.559007
    43  O   -0.629970
    44  H    0.423918
    45  N   -0.551684
    46  H    0.387040
    47  C   -0.062470
    48  H    0.225585
    49  C    0.594963
    50  C   -0.480686
    51  H    0.165657
    52  H    0.248330
    53  O   -0.552817
    54  C    0.620321
    55  O   -0.541613
    56  O   -0.649079
    57  N   -0.576142
    58  H    0.352046
    59  C   -0.092697
    60  H    0.168316
    61  C    0.600181
    62  C   -0.262280
    63  H    0.144738
    64  H    0.140715
    65  O   -0.592401
    66  C   -0.299172
    67  H    0.116160
    68  H    0.225740
    69  C   -0.191576
    70  H    0.172905
    71  H    0.202061
    72  N   -0.577195
    73  H    0.373960
    74  N   -0.753766
    75  H    0.382385
    76  H    0.397301
    77  N   -0.760917
    78  H    0.383151
    79  H    0.381553
    80  C    0.820962
    81  O   -0.589653
    82  H    0.481972
 Sum of Mulliken charges =   1.00000

 Dipole moment (field-independent basis, Debye):
    X=              2.3039    Y=             -1.1988    Z=             15.5095  Tot=             15.7254
 Quadrupole moment (field-independent basis, Debye-Ang):
   XX=           -197.1332   YY=           -123.2419   ZZ=             30.4685
   XY=              4.2266   XZ=            135.6532   YZ=             82.9661

 Normal termination of Gaussian 16 at Tue May 17 19:49:07 2022.
