 Gaussian 16, Revision C.01,
 Gaussian 16:  ES64L-G16RevC.01  3-Jul-2019

 ----------------------------------------------------------------------
 # B3LYP/6-31G* empiricaldispersion=gd3 guess=read geom=check nosymm in
 tegral(ultrafinegrid)
 ----------------------------------------------------------------------

 ------------------------------------------------------
 Candidate Structure: Conf:883 Charge calc in gas phase
 ------------------------------------------------------
 Structure from the checkpoint file:  "conf-883.chk"
 Charge =  1 Multiplicity = 1

                          Input orientation:
 ---------------------------------------------------------------------
 Center     Atomic      Atomic             Coordinates (Angstroms)
 Number     Number       Type             X           Y           Z
 ---------------------------------------------------------------------
      1          7           0       -3.061580   -3.766007   -2.651334
      2          1           0       -3.133609   -4.224863   -3.560344
      3          1           0       -2.066029   -3.664332   -2.428109
      4          1           0       -3.532460   -4.317012   -1.932882
      5          6           0       -3.610529   -2.400290   -2.691226
      6          1           0       -4.475758   -2.372050   -3.358915
      7          6           0       -2.512446   -1.481187   -3.212797
      8          6           0       -4.058462   -1.951452   -1.298655
      9          1           0       -3.193402   -1.956099   -0.630991
     10          1           0       -4.412498   -0.920604   -1.356646
     11          8           0       -1.329705   -1.800312   -3.112136
     12          6           0       -5.140571   -2.844838   -0.746619
     13          6           0       -4.873844   -3.735346    0.288426
     14          1           0       -3.879383   -3.765367    0.723082
     15          6           0       -6.414791   -2.839245   -1.311113
     16          1           0       -6.618145   -2.160696   -2.131734
     17          6           0       -5.860335   -4.595810    0.762367
     18          1           0       -5.628994   -5.284758    1.566159
     19          6           0       -7.411549   -3.683316   -0.832306
     20          1           0       -8.398371   -3.652911   -1.280161
     21          6           0       -7.135220   -4.568601    0.205366
     22          1           0       -7.907081   -5.233020    0.576732
     23          7           0       -2.905251   -0.294532   -3.726910
     24          1           0       -3.881388   -0.132043   -3.896865
     25          6           0       -1.955214    0.582842   -4.394852
     26          1           0       -1.175549   -0.054332   -4.822575
     27          6           0       -1.314095    1.519024   -3.359084
     28          6           0       -2.629040    1.401174   -5.481952
     29          1           0       -1.896802    2.052742   -5.954639
     30          1           0       -3.428026    1.997781   -5.045321
     31          8           0       -1.534466    2.722912   -3.333391
     32          8           0       -3.235721    0.529014   -6.525637
     33          1           0       -3.500937    1.006134   -7.337627
     34          7           0       -0.503095    0.907861   -2.458060
     35          1           0       -0.295708   -0.081839   -2.535688
     36          6           0        0.247660    1.664319   -1.492114
     37          1           0        0.097823    2.722330   -1.708506
     38          6           0        1.719831    1.274333   -1.586594
     39          6           0       -0.244632    1.380775   -0.076855
     40          1           0        0.414506    1.879253    0.648863
     41          1           0       -0.185238    0.297063    0.095565
     42          8           0        2.066305    0.122699   -1.779129
     43          8           0       -1.578638    1.861995    0.000687
     44          1           0       -1.958529    1.575510    0.834017
     45          7           0        2.608165    2.281313   -1.390171
     46          1           0        2.313047    3.207369   -1.086085
     47          6           0        3.964059    1.973199   -1.001028
     48          1           0        4.308662    1.140841   -1.617571
     49          6           0        4.024594    1.518437    0.473516
     50          6           0        4.858176    3.187830   -1.244172
     51          1           0        5.902489    2.968956   -1.000517
     52          1           0        4.784134    3.462454   -2.299793
     53          8           0        3.065586    1.515912    1.227652
     54          6           0        4.398756    4.405406   -0.396045
     55          8           0        5.291374    5.017575    0.208128
     56          8           0        3.181916    4.692107   -0.445560
     57          7           0        5.252210    1.120127    0.866004
     58          1           0        6.097627    1.247724    0.328056
     59          6           0        5.538856    0.700729    2.207715
     60          1           0        5.138609    1.424774    2.931335
     61          6           0        7.093164    0.673728    2.280977
     62          6           0        4.956919   -0.680431    2.528096
     63          1           0        5.523368   -1.427351    1.971784
     64          1           0        3.936115   -0.696430    2.138209
     65          8           0        7.602743    0.386676    3.370987
     66          6           0        4.942262   -0.962508    4.024856
     67          1           0        4.342278   -0.181363    4.508188
     68          1           0        5.951555   -0.877002    4.434874
     69          6           0        4.322498   -2.300354    4.399762
     70          1           0        4.258910   -2.373475    5.486831
     71          1           0        3.298812   -2.370093    4.021935
     72          7           0        5.095405   -3.472467    3.945382
     73          1           0        5.995982   -3.598141    4.383775
     74          7           0        3.901849   -3.805849    1.967581
     75          1           0        3.933299   -4.170899    1.027572
     76          1           0        3.598479   -2.841580    2.021575
     77          7           0        5.728534   -5.194040    2.527504
     78          1           0        6.158039   -5.647542    3.326692
     79          1           0        5.402932   -5.847109    1.826779
     80          6           0        4.901195   -4.153059    2.811940
     81          8           0        7.679064    0.956146    1.213292
     82          1           0       -2.598583   -0.170012   -6.788877
 ---------------------------------------------------------------------

 SCF Done:  E(RB3LYP) =  -2166.04251994     A.U. after    1 cycles

 Alpha  occ. eigenvalues --  -19.46836 -19.30675 -19.21565 -19.20466 -19.14612
 Alpha  occ. eigenvalues --  -19.11128 -19.07421 -19.05932 -19.05703 -19.05520
 Alpha  occ. eigenvalues --  -14.65604 -14.54762 -14.51135 -14.50634 -14.50477
 Alpha  occ. eigenvalues --  -14.44472 -14.35848 -14.33176 -10.47457 -10.47108
 Alpha  occ. eigenvalues --  -10.44892 -10.43813 -10.40384 -10.39451 -10.37249
 Alpha  occ. eigenvalues --  -10.34705 -10.33434 -10.33277 -10.32708 -10.32643
 Alpha  occ. eigenvalues --  -10.32364 -10.32098 -10.31332 -10.28787 -10.28134
 Alpha  occ. eigenvalues --  -10.27513 -10.23940 -10.23601 -10.23360 -10.22841
 Alpha  occ. eigenvalues --  -10.21754 -10.20811 -10.17086  -1.33933  -1.23892
 Alpha  occ. eigenvalues --   -1.20373  -1.15413  -1.14118  -1.11161  -1.08187
 Alpha  occ. eigenvalues --   -1.07120  -1.04413  -1.04148  -1.03338  -1.01310
 Alpha  occ. eigenvalues --   -1.00847  -1.00045  -0.99905  -0.98070  -0.95525
 Alpha  occ. eigenvalues --   -0.93527  -0.91974  -0.90843  -0.90525  -0.89814
 Alpha  occ. eigenvalues --   -0.88682  -0.86570  -0.86352  -0.83569  -0.83410
 Alpha  occ. eigenvalues --   -0.81608  -0.79878  -0.79800  -0.78947  -0.78220
 Alpha  occ. eigenvalues --   -0.77114  -0.75950  -0.75015  -0.74214  -0.73074
 Alpha  occ. eigenvalues --   -0.72606  -0.71320  -0.70883  -0.69917  -0.68299
 Alpha  occ. eigenvalues --   -0.68013  -0.67613  -0.66794  -0.65968  -0.65610
 Alpha  occ. eigenvalues --   -0.64635  -0.64288  -0.63420  -0.63194  -0.62488
 Alpha  occ. eigenvalues --   -0.61054  -0.60517  -0.59950  -0.59819  -0.58723
 Alpha  occ. eigenvalues --   -0.58284  -0.58015  -0.57351  -0.56819  -0.56790
 Alpha  occ. eigenvalues --   -0.56101  -0.55982  -0.55770  -0.55081  -0.54641
 Alpha  occ. eigenvalues --   -0.54182  -0.53025  -0.52312  -0.51959  -0.51013
 Alpha  occ. eigenvalues --   -0.50450  -0.50312  -0.50176  -0.49571  -0.48582
 Alpha  occ. eigenvalues --   -0.48112  -0.47706  -0.47524  -0.46264  -0.45593
 Alpha  occ. eigenvalues --   -0.45211  -0.44995  -0.44526  -0.44108  -0.43348
 Alpha  occ. eigenvalues --   -0.43020  -0.42807  -0.41841  -0.41050  -0.40319
 Alpha  occ. eigenvalues --   -0.39682  -0.39410  -0.39354  -0.39231  -0.39030
 Alpha  occ. eigenvalues --   -0.38928  -0.38333  -0.38189  -0.37158  -0.36168
 Alpha  occ. eigenvalues --   -0.35805  -0.35368  -0.34915  -0.33990  -0.33585
 Alpha  occ. eigenvalues --   -0.33267  -0.32895  -0.29005  -0.27544  -0.24866
 Alpha  occ. eigenvalues --   -0.24615  -0.21659  -0.21166  -0.20514  -0.20116
 Alpha  occ. eigenvalues --   -0.19505  -0.19229
 Alpha virt. eigenvalues --   -0.18336  -0.17555  -0.15249  -0.14263  -0.14125
 Alpha virt. eigenvalues --   -0.12161  -0.10863  -0.09894  -0.08846  -0.07962
 Alpha virt. eigenvalues --   -0.07381  -0.06800  -0.06139  -0.04984  -0.04180

 Mulliken charges:
               1
     1  N   -0.715414
     2  H    0.426119
     3  H    0.428071
     4  H    0.415983
     5  C   -0.141984
     6  H    0.202208
     7  C    0.641013
     8  C   -0.382547
     9  H    0.200695
    10  H    0.222528
    11  O   -0.515847
    12  C    0.142163
    13  C   -0.215792
    14  H    0.143718
    15  C   -0.183444
    16  H    0.130052
    17  C   -0.120543
    18  H    0.171462
    19  C   -0.121333
    20  H    0.171884
    21  C   -0.122033
    22  H    0.177197
    23  N   -0.582321
    24  H    0.342906
    25  C   -0.124683
    26  H    0.209148
    27  C    0.653240
    28  C   -0.166542
    29  H    0.254803
    30  H    0.252661
    31  O   -0.496984
    32  O   -0.498456
    33  H    0.375492
    34  N   -0.605101
    35  H    0.361511
    36  C   -0.100013
    37  H    0.220043
    38  C    0.617073
    39  C   -0.036543
    40  H    0.209278
    41  H    0.095199
    42  O   -0.574038
    43  O   -0.626188
    44  H    0.390634
    45  N   -0.591819
    46  H    0.375316
    47  C   -0.082284
    48  H    0.157243
    49  C    0.638555
    50  C   -0.378612
    51  H    0.172113
    52  H    0.145999
    53  O   -0.570748
    54  C    0.584594
    55  O   -0.478942
    56  O   -0.581382
    57  N   -0.628282
    58  H    0.366416
    59  C   -0.033599
    60  H    0.161901
    61  C    0.574395
    62  C   -0.292271
    63  H    0.114389
    64  H    0.132052
    65  O   -0.568868
    66  C   -0.266557
    67  H    0.169824
    68  H    0.206078
    69  C   -0.205360
    70  H    0.191183
    71  H    0.164901
    72  N   -0.558901
    73  H    0.378632
    74  N   -0.739381
    75  H    0.370763
    76  H    0.398523
    77  N   -0.722970
    78  H    0.376508
    79  H    0.367627
    80  C    0.754287
    81  O   -0.577721
    82  H    0.351125
 Sum of Mulliken charges =   1.00000

 Dipole moment (field-independent basis, Debye):
    X=            -37.3269    Y=            -43.8488    Z=            -21.0460  Tot=             61.3103
 Quadrupole moment (field-independent basis, Debye-Ang):
   XX=           -248.3577   YY=           -176.9845   ZZ=            -69.3236
   XY=            -83.9210   XZ=             93.6355   YZ=            -32.6506

 Normal termination of Gaussian 16 at Tue May 17 19:49:00 2022.
