 Gaussian 16, Revision C.01,
 Gaussian 16:  ES64L-G16RevC.01  3-Jul-2019

 ----------------------------------------------------------------------
 # B3LYP/6-31G* empiricaldispersion=gd3 guess=read geom=check nosymm in
 tegral(ultrafinegrid)
 ----------------------------------------------------------------------

 ------------------------------------------------------
 Candidate Structure: Conf:448 Charge calc in gas phase
 ------------------------------------------------------
 Structure from the checkpoint file:  "conf-448.chk"
 Charge =  1 Multiplicity = 1

                          Input orientation:
 ---------------------------------------------------------------------
 Center     Atomic      Atomic             Coordinates (Angstroms)
 Number     Number       Type             X           Y           Z
 ---------------------------------------------------------------------
      1          7           0       -3.548879   -1.166969   -5.851363
      2          1           0       -3.147657   -1.375557   -6.770328
      3          1           0       -3.578430   -2.055723   -5.303307
      4          1           0       -4.490306   -0.759185   -5.978661
      5          6           0       -2.681474   -0.247341   -5.024844
      6          1           0       -2.127133    0.401615   -5.706358
      7          6           0       -1.784070   -1.195681   -4.209670
      8          6           0       -3.581269    0.585997   -4.075254
      9          1           0       -4.041168   -0.097119   -3.351214
     10          1           0       -2.927879    1.245152   -3.495143
     11          8           0       -2.168069   -2.351436   -4.033351
     12          6           0       -4.632476    1.346251   -4.850766
     13          6           0       -5.933283    0.829983   -4.972163
     14          1           0       -6.218334   -0.057045   -4.407417
     15          6           0       -4.304490    2.530159   -5.526621
     16          1           0       -3.305682    2.949454   -5.426667
     17          6           0       -6.887675    1.486004   -5.757419
     18          1           0       -7.894535    1.085813   -5.829739
     19          6           0       -5.257945    3.186616   -6.303239
     20          1           0       -4.997129    4.111771   -6.808423
     21          6           0       -6.549045    2.662479   -6.425031
     22          1           0       -7.289835    3.178319   -7.028223
     23          7           0       -0.661817   -0.645304   -3.708364
     24          1           0       -0.610238    0.367735   -3.767010
     25          6           0       -0.057901   -1.155449   -2.479186
     26          1           0       -0.261198   -2.226371   -2.405383
     27          6           0       -0.697174   -0.371121   -1.311224
     28          6           0        1.465985   -0.923490   -2.543665
     29          1           0        1.668330    0.155864   -2.631876
     30          1           0        1.846576   -1.411732   -3.448092
     31          8           0       -1.295884    0.675605   -1.539188
     32          8           0        2.082305   -1.467180   -1.386792
     33          1           0        3.058387   -1.269157   -1.480608
     34          7           0       -0.473551   -0.865017   -0.061324
     35          1           0        0.143743   -1.670104   -0.012084
     36          6           0       -0.393921    0.069610    1.083688
     37          1           0       -1.179803    0.812549    0.959673
     38          6           0        0.976184    0.732663    1.007109
     39          6           0       -0.615210   -0.709709    2.386833
     40          1           0       -0.534093   -0.017632    3.229494
     41          1           0        0.181408   -1.464101    2.498375
     42          8           0        2.010718   -0.139824    0.899104
     43          8           0       -1.908665   -1.274338    2.447125
     44          1           0       -2.017404   -1.846323    1.670829
     45          7           0        1.086798    1.993063    1.031421
     46          1           0        0.015355    3.415029    1.053852
     47          6           0        2.306662    2.738417    0.677799
     48          1           0        2.247724    2.874947   -0.411951
     49          6           0        3.649530    2.049106    1.024116
     50          6           0        2.263737    4.117429    1.356620
     51          1           0        2.279006    3.959105    2.441282
     52          1           0        3.163138    4.682835    1.104997
     53          8           0        4.150705    2.132808    2.139579
     54          6           0        1.064129    4.996030    0.986242
     55          8           0        1.181702    6.178105    0.761176
     56          8           0       -0.132300    4.383055    0.932780
     57          7           0        4.240976    1.411332   -0.022231
     58          1           0        3.668739    1.202933   -0.830444
     59          6           0        5.349836    0.483590    0.166705
     60          1           0        6.262084    1.077332    0.284865
     61          6           0        5.515483   -0.379445   -1.112315
     62          6           0        5.191834   -0.457493    1.413767
     63          1           0        5.133984   -1.502124    1.080262
     64          1           0        4.236708   -0.239752    1.885020
     65          8           0        6.698357   -0.764473   -1.339042
     66          6           0        6.315477   -0.302850    2.463177
     67          1           0        5.893411   -0.377018    3.472325
     68          1           0        6.743760    0.702895    2.396990
     69          6           0        7.423941   -1.362059    2.384819
     70          1           0        8.234165   -1.094880    3.075810
     71          1           0        7.024366   -2.335255    2.700410
     72          7           0        7.948916   -1.507313    1.019538
     73          1           0        7.559689   -0.906511    0.271491
     74          7           0        9.045822   -3.537308    1.334270
     75          1           0        9.265546   -4.465168    1.005966
     76          1           0        9.341925   -3.281818    2.263519
     77          7           0        8.295725   -2.906489   -0.781209
     78          1           0        7.683827   -2.271229   -1.319576
     79          1           0        8.963315   -3.493160   -1.261192
     80          6           0        8.440070   -2.640088    0.528791
     81          8           0        4.497101   -0.658314   -1.798246
     82          1           0        1.966431   -0.694036    0.056931
 ---------------------------------------------------------------------

 SCF Done:  E(RB3LYP) =  -2166.33719594     A.U. after    1 cycles

 Alpha  occ. eigenvalues --  -19.27561 -19.25047 -19.24261 -19.23253 -19.21853
 Alpha  occ. eigenvalues --  -19.20244 -19.17489 -19.17305 -19.17083 -19.15055
 Alpha  occ. eigenvalues --  -14.60597 -14.50322 -14.48367 -14.46755 -14.45897
 Alpha  occ. eigenvalues --  -14.45881 -14.41128 -14.41020 -10.44328 -10.43209
 Alpha  occ. eigenvalues --  -10.41168 -10.40065 -10.36560 -10.35516 -10.35306
 Alpha  occ. eigenvalues --  -10.34863 -10.34162 -10.33987 -10.33760 -10.32204
 Alpha  occ. eigenvalues --  -10.31762 -10.31565 -10.31232 -10.31018 -10.30545
 Alpha  occ. eigenvalues --  -10.30340 -10.30159 -10.29906 -10.29824 -10.28504
 Alpha  occ. eigenvalues --  -10.26096 -10.25069 -10.24049  -1.19952  -1.15474
 Alpha  occ. eigenvalues --   -1.14712  -1.13983  -1.12280  -1.11935  -1.11462
 Alpha  occ. eigenvalues --   -1.10326  -1.09494  -1.08849  -1.07097  -1.03302
 Alpha  occ. eigenvalues --   -1.02916  -1.02088  -1.01008  -0.99754  -0.99053
 Alpha  occ. eigenvalues --   -0.97729  -0.97658  -0.93641  -0.89135  -0.86912
 Alpha  occ. eigenvalues --   -0.86457  -0.85878  -0.85365  -0.82781  -0.80822
 Alpha  occ. eigenvalues --   -0.79637  -0.75593  -0.75442  -0.74676  -0.73998
 Alpha  occ. eigenvalues --   -0.73900  -0.73449  -0.72967  -0.71752  -0.71093
 Alpha  occ. eigenvalues --   -0.70203  -0.69273  -0.68915  -0.67981  -0.67202
 Alpha  occ. eigenvalues --   -0.66775  -0.65141  -0.63855  -0.63771  -0.63200
 Alpha  occ. eigenvalues --   -0.62749  -0.62541  -0.62116  -0.61530  -0.60604
 Alpha  occ. eigenvalues --   -0.60480  -0.59638  -0.59157  -0.58141  -0.57844
 Alpha  occ. eigenvalues --   -0.57527  -0.57041  -0.56786  -0.56444  -0.56243
 Alpha  occ. eigenvalues --   -0.55784  -0.55380  -0.55062  -0.54462  -0.54165
 Alpha  occ. eigenvalues --   -0.53405  -0.53299  -0.52314  -0.51766  -0.51474
 Alpha  occ. eigenvalues --   -0.51163  -0.50972  -0.50811  -0.50531  -0.50003
 Alpha  occ. eigenvalues --   -0.49835  -0.49172  -0.48674  -0.48313  -0.47789
 Alpha  occ. eigenvalues --   -0.47652  -0.47370  -0.47299  -0.47028  -0.46154
 Alpha  occ. eigenvalues --   -0.45755  -0.45705  -0.45436  -0.44466  -0.44042
 Alpha  occ. eigenvalues --   -0.42809  -0.42077  -0.41971  -0.41773  -0.41381
 Alpha  occ. eigenvalues --   -0.41009  -0.40767  -0.40387  -0.40106  -0.39524
 Alpha  occ. eigenvalues --   -0.38901  -0.38707  -0.37539  -0.36705  -0.36272
 Alpha  occ. eigenvalues --   -0.36240  -0.36110  -0.35979  -0.34558  -0.33751
 Alpha  occ. eigenvalues --   -0.33261  -0.32990  -0.31930  -0.31682  -0.30940
 Alpha  occ. eigenvalues --   -0.29791  -0.28801
 Alpha virt. eigenvalues --   -0.14014  -0.12554  -0.11348  -0.10262  -0.09984
 Alpha virt. eigenvalues --   -0.08192  -0.07901  -0.05666  -0.04214  -0.03983
 Alpha virt. eigenvalues --   -0.03819  -0.02665  -0.02254  -0.01753  -0.01557

 Mulliken charges:
               1
     1  N   -0.742838
     2  H    0.418498
     3  H    0.424309
     4  H    0.406852
     5  C   -0.130512
     6  H    0.214142
     7  C    0.647425
     8  C   -0.393680
     9  H    0.196103
    10  H    0.237276
    11  O   -0.514510
    12  C    0.144235
    13  C   -0.236860
    14  H    0.151147
    15  C   -0.179047
    16  H    0.149797
    17  C   -0.119135
    18  H    0.168005
    19  C   -0.121602
    20  H    0.170697
    21  C   -0.123591
    22  H    0.170656
    23  N   -0.565534
    24  H    0.355570
    25  C   -0.128384
    26  H    0.213250
    27  C    0.620515
    28  C   -0.018889
    29  H    0.145858
    30  H    0.180464
    31  O   -0.511077
    32  O   -0.692209
    33  H    0.469361
    34  N   -0.626139
    35  H    0.348075
    36  C   -0.058680
    37  H    0.211966
    38  C    0.514401
    39  C   -0.039721
    40  H    0.186231
    41  H    0.135527
    42  O   -0.677837
    43  O   -0.599346
    44  H    0.395064
    45  N   -0.470582
    46  H    0.430908
    47  C   -0.089731
    48  H    0.160731
    49  C    0.647535
    50  C   -0.381430
    51  H    0.201754
    52  H    0.186071
    53  O   -0.527833
    54  C    0.579625
    55  O   -0.456690
    56  O   -0.593521
    57  N   -0.619567
    58  H    0.318896
    59  C   -0.007546
    60  H    0.164262
    61  C    0.585693
    62  C   -0.309172
    63  H    0.133172
    64  H    0.211010
    65  O   -0.596041
    66  C   -0.293201
    67  H    0.170275
    68  H    0.180897
    69  C   -0.161626
    70  H    0.167436
    71  H    0.163712
    72  N   -0.608357
    73  H    0.407296
    74  N   -0.755004
    75  H    0.370675
    76  H    0.378151
    77  N   -0.780688
    78  H    0.421531
    79  H    0.354530
    80  C    0.769543
    81  O   -0.603529
    82  H    0.454985
 Sum of Mulliken charges =   1.00000

 Dipole moment (field-independent basis, Debye):
    X=              2.9947    Y=            -16.1210    Z=            -20.9692  Tot=             26.6188
 Quadrupole moment (field-independent basis, Debye-Ang):
   XX=            -19.3227   YY=           -257.4311   ZZ=           -103.9870
   XY=            -79.7022   XZ=            123.3793   YZ=            -16.9193

 Normal termination of Gaussian 16 at Tue May 17 19:49:02 2022.
