 Gaussian 16, Revision C.01,
 Gaussian 16:  ES64L-G16RevC.01  3-Jul-2019

 ----------------------------------------------------------------------
 # B3LYP/6-31G* empiricaldispersion=gd3 guess=read geom=check nosymm in
 tegral(ultrafinegrid)
 ----------------------------------------------------------------------

 ------------------------------------------------------
 Candidate Structure: Conf:962 Charge calc in gas phase
 ------------------------------------------------------
 Structure from the checkpoint file:  "conf-962.chk"
 Charge =  1 Multiplicity = 1

                          Input orientation:
 ---------------------------------------------------------------------
 Center     Atomic      Atomic             Coordinates (Angstroms)
 Number     Number       Type             X           Y           Z
 ---------------------------------------------------------------------
      1          7           0       -4.158665    1.284299   -6.283418
      2          1           0       -3.548017    1.968055   -6.736362
      3          1           0       -3.959415    0.303260   -6.670279
      4          1           0       -5.132900    1.549279   -6.452134
      5          6           0       -3.847064    1.079866   -4.812132
      6          1           0       -2.943528    1.651707   -4.587624
      7          6           0       -3.457461   -0.423764   -4.784421
      8          6           0       -5.002331    1.548562   -3.912102
      9          1           0       -5.226430    2.591026   -4.178111
     10          1           0       -5.898666    0.954044   -4.125922
     11          8           0       -3.417149   -1.020651   -5.872887
     12          6           0       -4.635441    1.452587   -2.444235
     13          6           0       -5.369295    0.642326   -1.572953
     14          1           0       -6.237572    0.100406   -1.938933
     15          6           0       -3.504652    2.130001   -1.961841
     16          1           0       -2.923222    2.766195   -2.627296
     17          6           0       -4.987295    0.520338   -0.236138
     18          1           0       -5.567447   -0.109768    0.430467
     19          6           0       -3.111245    1.990088   -0.632034
     20          1           0       -2.224609    2.504758   -0.275795
     21          6           0       -3.856743    1.187225    0.234305
     22          1           0       -3.549792    1.074997    1.269539
     23          7           0       -3.111126   -0.943506   -3.611449
     24          1           0       -3.181399   -0.400828   -2.746942
     25          6           0       -2.257259   -2.116999   -3.491742
     26          1           0       -2.749798   -2.999479   -3.912904
     27          6           0       -2.031991   -2.298071   -1.977709
     28          6           0       -0.906045   -1.879107   -4.249818
     29          1           0       -1.020029   -2.188368   -5.290126
     30          1           0       -0.132092   -2.506381   -3.785086
     31          8           0       -2.273626   -1.374606   -1.195343
     32          8           0       -0.519831   -0.514762   -4.280341
     33          1           0       -0.642811   -0.100837   -3.390446
     34          7           0       -1.526375   -3.485121   -1.599957
     35          1           0       -1.270473   -4.199374   -2.275699
     36          6           0       -1.027871   -3.744135   -0.246349
     37          1           0       -1.704606   -3.270840    0.471411
     38          6           0        0.390736   -3.143145   -0.122275
     39          6           0       -0.977750   -5.264436   -0.047440
     40          1           0       -1.993398   -5.669689   -0.058929
     41          1           0       -0.523139   -5.486044    0.926175
     42          8           0        1.396494   -3.849914   -0.165343
     43          8           0       -0.272985   -5.874678   -1.118402
     44          1           0        0.652692   -5.587306   -1.000433
     45          7           0        0.429747   -1.786080   -0.058021
     46          1           0       -0.434335   -1.301601    0.159119
     47          6           0        1.672815   -1.083940    0.205814
     48          1           0        2.466143   -1.623924   -0.316322
     49          6           0        1.943745   -1.056624    1.732714
     50          6           0        1.572950    0.365643   -0.326341
     51          1           0        0.923434    0.961766    0.318998
     52          1           0        2.570297    0.815219   -0.339324
     53          8           0        1.027816   -1.256459    2.527361
     54          6           0        0.971977    0.360123   -1.706430
     55          8           0       -0.166293    0.747040   -1.951144
     56          8           0        1.779341   -0.183033   -2.623911
     57          7           0        3.206867   -0.753292    2.070863
     58          1           0        3.954407   -0.668414    1.387123
     59          6           0        3.673347   -0.584775    3.442798
     60          1           0        2.939881   -0.000089    4.005136
     61          6           0        5.021967    0.168575    3.359504
     62          6           0        3.853985   -1.969877    4.104810
     63          1           0        4.629615   -2.505385    3.540973
     64          1           0        2.915756   -2.511318    3.943960
     65          8           0        5.306669    0.868680    4.386993
     66          6           0        4.162093   -2.025863    5.614471
     67          1           0        4.060557   -3.073949    5.931322
     68          1           0        3.397720   -1.468361    6.169601
     69          6           0        5.530788   -1.502089    6.084672
     70          1           0        5.542166   -0.417783    6.019625
     71          1           0        5.699796   -1.802848    7.126089
     72          7           0        6.634050   -2.029217    5.262655
     73          1           0        6.571710   -3.006547    5.007473
     74          7           0        7.739541   -0.023237    4.808251
     75          1           0        8.585884    0.402456    4.453069
     76          1           0        6.811666    0.508531    4.631776
     77          7           0        8.728519   -2.068889    4.283814
     78          1           0        8.823114   -3.060550    4.446785
     79          1           0        9.395448   -1.643589    3.657360
     80          6           0        7.684902   -1.351195    4.772675
     81          8           0        5.732778   -0.050171    2.360680
     82          1           0        1.284013   -0.259070   -3.472073
 ---------------------------------------------------------------------

 SCF Done:  E(RB3LYP) =  -2166.38121505     A.U. after    1 cycles

 Alpha  occ. eigenvalues --  -19.28201 -19.26927 -19.24979 -19.23794 -19.22545
 Alpha  occ. eigenvalues --  -19.21478 -19.20218 -19.16449 -19.13109 -19.12650
 Alpha  occ. eigenvalues --  -14.59204 -14.48655 -14.46363 -14.45924 -14.45464
 Alpha  occ. eigenvalues --  -14.43626 -14.42010 -14.40294 -10.43325 -10.41620
 Alpha  occ. eigenvalues --  -10.41062 -10.40337 -10.39542 -10.36991 -10.35059
 Alpha  occ. eigenvalues --  -10.34251 -10.33843 -10.33791 -10.31860 -10.31105
 Alpha  occ. eigenvalues --  -10.30997 -10.30665 -10.30496 -10.28926 -10.28762
 Alpha  occ. eigenvalues --  -10.28564 -10.28288 -10.28170 -10.28113 -10.27878
 Alpha  occ. eigenvalues --  -10.25962 -10.24800 -10.23545  -1.19769  -1.19356
 Alpha  occ. eigenvalues --   -1.14705  -1.13206  -1.12231  -1.12033  -1.10634
 Alpha  occ. eigenvalues --   -1.09430  -1.08942  -1.08361  -1.06307  -1.05585
 Alpha  occ. eigenvalues --   -1.02618  -1.00293  -0.99207  -0.98160  -0.96652
 Alpha  occ. eigenvalues --   -0.96370  -0.96358  -0.92363  -0.88529  -0.87113
 Alpha  occ. eigenvalues --   -0.85017  -0.84799  -0.83943  -0.83335  -0.79788
 Alpha  occ. eigenvalues --   -0.79468  -0.77182  -0.76601  -0.73795  -0.73475
 Alpha  occ. eigenvalues --   -0.72447  -0.72050  -0.71063  -0.70609  -0.70162
 Alpha  occ. eigenvalues --   -0.69127  -0.68685  -0.67847  -0.67206  -0.66787
 Alpha  occ. eigenvalues --   -0.65922  -0.65408  -0.63382  -0.63169  -0.62367
 Alpha  occ. eigenvalues --   -0.62074  -0.61486  -0.60818  -0.60460  -0.60272
 Alpha  occ. eigenvalues --   -0.58793  -0.58331  -0.58191  -0.57744  -0.57295
 Alpha  occ. eigenvalues --   -0.57017  -0.56668  -0.56136  -0.55664  -0.55303
 Alpha  occ. eigenvalues --   -0.55096  -0.54788  -0.54155  -0.53234  -0.53129
 Alpha  occ. eigenvalues --   -0.52625  -0.52573  -0.52222  -0.51564  -0.51172
 Alpha  occ. eigenvalues --   -0.51153  -0.50922  -0.50344  -0.50006  -0.49732
 Alpha  occ. eigenvalues --   -0.49417  -0.49044  -0.48817  -0.48477  -0.47857
 Alpha  occ. eigenvalues --   -0.47647  -0.47487  -0.46768  -0.46209  -0.45802
 Alpha  occ. eigenvalues --   -0.45161  -0.45015  -0.44256  -0.44167  -0.44006
 Alpha  occ. eigenvalues --   -0.43630  -0.42919  -0.42464  -0.41850  -0.41564
 Alpha  occ. eigenvalues --   -0.41092  -0.40915  -0.40524  -0.39312  -0.39242
 Alpha  occ. eigenvalues --   -0.38352  -0.37969  -0.37595  -0.36948  -0.36501
 Alpha  occ. eigenvalues --   -0.36036  -0.34890  -0.34384  -0.34225  -0.34098
 Alpha  occ. eigenvalues --   -0.33594  -0.32408  -0.30646  -0.30542  -0.28590
 Alpha  occ. eigenvalues --   -0.27403  -0.26841
 Alpha virt. eigenvalues --   -0.12730  -0.10692  -0.10276  -0.09601  -0.09196
 Alpha virt. eigenvalues --   -0.08717  -0.05907  -0.05661  -0.05606  -0.02808
 Alpha virt. eigenvalues --   -0.02767  -0.02237  -0.01299  -0.00325  -0.00266

 Mulliken charges:
               1
     1  N   -0.767580
     2  H    0.416172
     3  H    0.439198
     4  H    0.410938
     5  C   -0.115167
     6  H    0.235732
     7  C    0.667736
     8  C   -0.367775
     9  H    0.184961
    10  H    0.178151
    11  O   -0.548858
    12  C    0.114257
    13  C   -0.182574
    14  H    0.141803
    15  C   -0.187427
    16  H    0.131192
    17  C   -0.112039
    18  H    0.157488
    19  C   -0.099176
    20  H    0.160191
    21  C   -0.113205
    22  H    0.161360
    23  N   -0.625604
    24  H    0.415603
    25  C   -0.078554
    26  H    0.201244
    27  C    0.627744
    28  C   -0.051024
    29  H    0.189970
    30  H    0.158168
    31  O   -0.539527
    32  O   -0.675550
    33  H    0.438717
    34  N   -0.602357
    35  H    0.356300
    36  C   -0.096097
    37  H    0.192542
    38  C    0.636158
    39  C   -0.053966
    40  H    0.163211
    41  H    0.168190
    42  O   -0.531054
    43  O   -0.636850
    44  H    0.423436
    45  N   -0.605306
    46  H    0.367617
    47  C   -0.070176
    48  H    0.200498
    49  C    0.633423
    50  C   -0.357640
    51  H    0.190220
    52  H    0.205519
    53  O   -0.546383
    54  C    0.599911
    55  O   -0.508459
    56  O   -0.563496
    57  N   -0.611417
    58  H    0.344607
    59  C   -0.012693
    60  H    0.161226
    61  C    0.580489
    62  C   -0.266111
    63  H    0.124637
    64  H    0.170614
    65  O   -0.623599
    66  C   -0.296939
    67  H    0.137071
    68  H    0.168595
    69  C   -0.151065
    70  H    0.232322
    71  H    0.161181
    72  N   -0.602412
    73  H    0.339633
    74  N   -0.754984
    75  H    0.340433
    76  H    0.429291
    77  N   -0.775340
    78  H    0.359797
    79  H    0.368083
    80  C    0.796971
    81  O   -0.584928
    82  H    0.432732
 Sum of Mulliken charges =   1.00000

 Dipole moment (field-independent basis, Debye):
    X=             -4.3125    Y=             -1.7846    Z=            -13.3145  Tot=             14.1088
 Quadrupole moment (field-independent basis, Debye-Ang):
   XX=            -57.0584   YY=           -221.8840   ZZ=           -102.2904
   XY=            -60.3529   XZ=            137.6834   YZ=            -61.6628

 Normal termination of Gaussian 16 at Tue May 17 19:48:58 2022.
