 Gaussian 16, Revision C.01,
 Gaussian 16:  ES64L-G16RevC.01  3-Jul-2019

 ----------------------------------------------------------------------
 # B3LYP/6-31G* empiricaldispersion=gd3 guess=read geom=check nosymm in
 tegral(ultrafinegrid)
 ----------------------------------------------------------------------

 -----------------------------------------------------
 Candidate Structure: Conf:90 Charge calc in gas phase
 -----------------------------------------------------
 Structure from the checkpoint file:  "conf-90.chk"
 Charge =  1 Multiplicity = 1

                          Input orientation:
 ---------------------------------------------------------------------
 Center     Atomic      Atomic             Coordinates (Angstroms)
 Number     Number       Type             X           Y           Z
 ---------------------------------------------------------------------
      1          7           0       -5.368331   -0.027477   -5.907982
      2          1           0       -4.734897   -0.086019   -6.722405
      3          1           0       -5.800299   -0.965900   -5.809523
      4          1           0       -6.099823    0.674942   -6.108513
      5          6           0       -4.600721    0.287476   -4.613894
      6          1           0       -4.026050    1.215858   -4.765751
      7          6           0       -3.687565   -0.875617   -4.419986
      8          6           0       -5.602257    0.530735   -3.423815
      9          1           0       -6.345859    1.299340   -3.711125
     10          1           0       -6.163544   -0.391331   -3.211586
     11          8           0       -3.939882   -2.048321   -5.024370
     12          6           0       -4.789812    0.970929   -2.218788
     13          6           0       -4.581864    0.075695   -1.150756
     14          1           0       -5.037490   -0.914979   -1.180622
     15          6           0       -4.185507    2.245470   -2.175642
     16          1           0       -4.325371    2.953269   -2.993134
     17          6           0       -3.783797    0.443447   -0.064210
     18          1           0       -3.625111   -0.256482    0.753213
     19          6           0       -3.386447    2.610315   -1.085916
     20          1           0       -2.922635    3.593193   -1.058584
     21          6           0       -3.183476    1.710238   -0.030799
     22          1           0       -2.562035    1.999981    0.813882
     23          7           0       -2.624331   -0.681411   -3.573561
     24          1           0       -2.408782    0.232723   -3.169650
     25          6           0       -1.878189   -1.755411   -2.999855
     26          1           0       -2.570209   -2.545906   -2.633757
     27          6           0       -1.101968   -1.130364   -1.799905
     28          6           0       -0.926695   -2.394581   -4.031452
     29          1           0       -0.180978   -3.061121   -3.586802
     30          1           0       -0.433325   -1.655037   -4.665890
     31          8           0       -0.821899    0.060586   -1.900080
     32          8           0       -1.755457   -3.222376   -4.975343
     33          1           0       -1.923964   -4.127441   -4.592015
     34          7           0       -0.799554   -1.921320   -0.746527
     35          1           0       -1.111146   -2.890097   -0.728049
     36          6           0       -0.236447   -1.339573    0.501185
     37          1           0       -0.617375   -0.316496    0.573940
     38          6           0        1.325389   -1.238923    0.451734
     39          6           0       -0.692673   -2.169974    1.727522
     40          1           0       -0.345685   -3.215760    1.584613
     41          1           0       -1.785392   -2.180479    1.805330
     42          8           0        1.986347   -1.819687    1.346020
     43          8           0       -0.201006   -1.612048    2.927967
     44          1           0        0.759643   -1.473518    2.754469
     45          7           0        1.780450   -0.546236   -0.565579
     46          1           0        1.064020   -0.011854   -1.052035
     47          6           0        3.082394    0.132749   -0.637097
     48          1           0        3.883780   -0.519354   -0.293329
     49          6           0        2.899254    1.326750    0.349157
     50          6           0        3.437573    0.466097   -2.094949
     51          1           0        3.496859   -0.486411   -2.653710
     52          1           0        2.681104    1.110214   -2.569132
     53          8           0        1.700647    1.573488    0.661926
     54          6           0        4.862141    1.136999   -2.153470
     55          8           0        5.027627    2.037655   -2.997057
     56          8           0        5.674818    0.630581   -1.298927
     57          7           0        3.987200    1.943455    0.812774
     58          1           0        4.907071    1.692327    0.409875
     59          6           0        3.943945    2.838281    1.969591
     60          1           0        2.968265    3.317189    2.018824
     61          6           0        5.089147    3.969567    1.898619
     62          6           0        4.206547    2.042720    3.265661
     63          1           0        4.086478    2.722222    4.121855
     64          1           0        5.257546    1.707648    3.263241
     65          8           0        6.111348    3.551527    1.328470
     66          6           0        3.255132    0.844903    3.349260
     67          1           0        3.463644    0.176417    2.493860
     68          1           0        2.213191    1.171610    3.224526
     69          6           0        3.390633    0.043872    4.655643
     70          1           0        4.436813   -0.185689    4.905724
     71          1           0        2.983686    0.588178    5.511349
     72          7           0        2.611523   -1.218408    4.528262
     73          1           0        1.920432   -1.417983    5.247281
     74          7           0        4.179787   -2.293800    3.177166
     75          1           0        4.189466   -2.763700    2.275367
     76          1           0        4.742706   -1.447633    3.162440
     77          7           0        2.200863   -3.355118    3.763640
     78          1           0        1.202047   -3.156401    3.780837
     79          1           0        2.480104   -4.122088    3.161940
     80          6           0        3.008248   -2.268650    3.816384
     81          8           0        4.728738    4.990586    2.534665
     82          1           0       -2.773932   -2.712165   -5.132502
 ---------------------------------------------------------------------

 SCF Done:  E(RB3LYP) =  -2166.09110947     A.U. after    4 cycles

 Alpha  occ. eigenvalues --  -19.41552 -19.30965 -19.27047 -19.25485 -19.22075
 Alpha  occ. eigenvalues --  -19.14483 -19.10195 -19.10019 -19.08125 -19.07758
 Alpha  occ. eigenvalues --  -14.64914 -14.52467 -14.51876 -14.49864 -14.49006
 Alpha  occ. eigenvalues --  -14.48789 -14.43728 -14.38522 -10.45392 -10.44693
 Alpha  occ. eigenvalues --  -10.44194 -10.44156 -10.43616 -10.41350 -10.38650
 Alpha  occ. eigenvalues --  -10.36497 -10.35643 -10.35251 -10.33367 -10.32734
 Alpha  occ. eigenvalues --  -10.31968 -10.31848 -10.31783 -10.31211 -10.30873
 Alpha  occ. eigenvalues --  -10.30694 -10.27652 -10.27533 -10.26336 -10.25391
 Alpha  occ. eigenvalues --  -10.24482 -10.22999 -10.20939  -1.27141  -1.19969
 Alpha  occ. eigenvalues --   -1.19322  -1.16644  -1.14658  -1.13824  -1.11835
 Alpha  occ. eigenvalues --   -1.09274  -1.07172  -1.05764  -1.03447  -1.02356
 Alpha  occ. eigenvalues --   -1.02287  -1.00724  -1.00129  -0.99016  -0.95908
 Alpha  occ. eigenvalues --   -0.95148  -0.94336  -0.93363  -0.91902  -0.88426
 Alpha  occ. eigenvalues --   -0.87993  -0.86731  -0.86633  -0.84207  -0.81989
 Alpha  occ. eigenvalues --   -0.81424  -0.79916  -0.78336  -0.76592  -0.76262
 Alpha  occ. eigenvalues --   -0.75955  -0.75742  -0.75583  -0.73956  -0.72816
 Alpha  occ. eigenvalues --   -0.72239  -0.71083  -0.70749  -0.70304  -0.69552
 Alpha  occ. eigenvalues --   -0.68834  -0.67643  -0.67181  -0.66544  -0.65633
 Alpha  occ. eigenvalues --   -0.64693  -0.64571  -0.63142  -0.62876  -0.62623
 Alpha  occ. eigenvalues --   -0.62243  -0.61568  -0.61115  -0.60184  -0.59660
 Alpha  occ. eigenvalues --   -0.59490  -0.58467  -0.58044  -0.57802  -0.57546
 Alpha  occ. eigenvalues --   -0.56966  -0.56529  -0.56122  -0.55108  -0.54750
 Alpha  occ. eigenvalues --   -0.54417  -0.54208  -0.53754  -0.53461  -0.53115
 Alpha  occ. eigenvalues --   -0.52925  -0.52778  -0.52315  -0.51778  -0.50781
 Alpha  occ. eigenvalues --   -0.49382  -0.49148  -0.48947  -0.48120  -0.48048
 Alpha  occ. eigenvalues --   -0.47767  -0.46680  -0.46559  -0.46304  -0.45854
 Alpha  occ. eigenvalues --   -0.45366  -0.45074  -0.43854  -0.43480  -0.43403
 Alpha  occ. eigenvalues --   -0.42076  -0.41947  -0.41820  -0.41092  -0.41003
 Alpha  occ. eigenvalues --   -0.40285  -0.40109  -0.39542  -0.39067  -0.38746
 Alpha  occ. eigenvalues --   -0.38344  -0.37887  -0.37317  -0.36757  -0.36604
 Alpha  occ. eigenvalues --   -0.36191  -0.35531  -0.35030  -0.33758  -0.28737
 Alpha  occ. eigenvalues --   -0.28534  -0.24824  -0.23808  -0.23170  -0.21727
 Alpha  occ. eigenvalues --   -0.21244  -0.20793
 Alpha virt. eigenvalues --   -0.19816  -0.15258  -0.14699  -0.13692  -0.12829
 Alpha virt. eigenvalues --   -0.12686  -0.11290  -0.09095  -0.08801  -0.08222
 Alpha virt. eigenvalues --   -0.07868  -0.06049  -0.05387  -0.04867  -0.04498

 Mulliken charges:
               1
     1  N   -0.728153
     2  H    0.426063
     3  H    0.432076
     4  H    0.422642
     5  C   -0.129454
     6  H    0.220572
     7  C    0.560522
     8  C   -0.358670
     9  H    0.178230
    10  H    0.180681
    11  O   -0.691122
    12  C    0.140801
    13  C   -0.181683
    14  H    0.131381
    15  C   -0.200186
    16  H    0.141550
    17  C   -0.141037
    18  H    0.151976
    19  C   -0.116231
    20  H    0.183626
    21  C   -0.113060
    22  H    0.184297
    23  N   -0.600746
    24  H    0.397703
    25  C   -0.079624
    26  H    0.161695
    27  C    0.634629
    28  C   -0.078030
    29  H    0.220460
    30  H    0.250775
    31  O   -0.504318
    32  O   -0.626048
    33  H    0.464783
    34  N   -0.618512
    35  H    0.337566
    36  C   -0.115256
    37  H    0.233687
    38  C    0.660498
    39  C   -0.039977
    40  H    0.113417
    41  H    0.155903
    42  O   -0.618962
    43  O   -0.648071
    44  H    0.441528
    45  N   -0.571796
    46  H    0.379098
    47  C   -0.079911
    48  H    0.175211
    49  C    0.622223
    50  C   -0.365187
    51  H    0.124734
    52  H    0.127651
    53  O   -0.601767
    54  C    0.600136
    55  O   -0.522841
    56  O   -0.592059
    57  N   -0.591599
    58  H    0.395853
    59  C   -0.048870
    60  H    0.173633
    61  C    0.612337
    62  C   -0.273309
    63  H    0.168021
    64  H    0.152690
    65  O   -0.511173
    66  C   -0.288931
    67  H    0.149352
    68  H    0.179268
    69  C   -0.193465
    70  H    0.181552
    71  H    0.193901
    72  N   -0.570977
    73  H    0.370083
    74  N   -0.719217
    75  H    0.380239
    76  H    0.392249
    77  N   -0.734305
    78  H    0.366169
    79  H    0.362775
    80  C    0.757710
    81  O   -0.526744
    82  H    0.489345
 Sum of Mulliken charges =   1.00000

 Dipole moment (field-independent basis, Debye):
    X=            -38.3858    Y=            -26.0851    Z=            -15.6717  Tot=             48.9848
 Quadrupole moment (field-independent basis, Debye-Ang):
   XX=           -240.3143   YY=           -242.8747   ZZ=            -70.8878
   XY=            -83.1264   XZ=            169.0730   YZ=             -2.8001

 Normal termination of Gaussian 16 at Tue May 17 19:50:31 2022.
