 Gaussian 16, Revision C.01,
 Gaussian 16:  ES64L-G16RevC.01  3-Jul-2019

 ----------------------------------------------------------------------
 # B3LYP/6-31G* empiricaldispersion=gd3 guess=read geom=check nosymm in
 tegral(ultrafinegrid)
 ----------------------------------------------------------------------

 ------------------------------------------------------
 Candidate Structure: Conf:123 Charge calc in gas phase
 ------------------------------------------------------
 Structure from the checkpoint file:  "conf-123.chk"
 Charge =  1 Multiplicity = 1

                          Input orientation:
 ---------------------------------------------------------------------
 Center     Atomic      Atomic             Coordinates (Angstroms)
 Number     Number       Type             X           Y           Z
 ---------------------------------------------------------------------
      1          7           0       -5.995703   -2.998352   -3.286755
      2          1           0       -5.373116   -3.061975   -4.137893
      3          1           0       -5.933284   -3.902821   -2.785086
      4          1           0       -6.967687   -2.808771   -3.540960
      5          6           0       -5.343821   -1.911491   -2.461102
      6          1           0       -5.957764   -1.010388   -2.551888
      7          6           0       -3.995644   -1.683156   -3.199262
      8          6           0       -5.221908   -2.344807   -0.977758
      9          1           0       -4.621489   -1.593907   -0.454031
     10          1           0       -6.220851   -2.307073   -0.528130
     11          8           0       -3.795503   -2.293595   -4.256196
     12          6           0       -4.626250   -3.730035   -0.837639
     13          6           0       -5.483352   -4.842351   -0.746901
     14          1           0       -6.558867   -4.691901   -0.649758
     15          6           0       -3.239891   -3.940777   -0.875612
     16          1           0       -2.546664   -3.104820   -0.917915
     17          6           0       -4.964367   -6.140724   -0.712005
     18          1           0       -5.637175   -6.989345   -0.629686
     19          6           0       -2.723679   -5.236648   -0.831101
     20          1           0       -1.646612   -5.368535   -0.837055
     21          6           0       -3.584050   -6.336571   -0.759157
     22          1           0       -3.176842   -7.342616   -0.724689
     23          7           0       -3.149346   -0.823410   -2.633795
     24          1           0       -3.342198   -0.381913   -1.737711
     25          6           0       -1.764550   -0.638317   -3.074964
     26          1           0       -1.482526   -1.487087   -3.701772
     27          6           0       -0.970332   -0.586524   -1.751292
     28          6           0       -1.651492    0.655948   -3.892019
     29          1           0       -1.969340    1.506262   -3.273236
     30          1           0       -2.315362    0.575576   -4.761285
     31          8           0       -1.427940    0.087797   -0.824214
     32          8           0       -0.285258    0.789291   -4.285015
     33          1           0       -0.223056    1.257430   -5.132543
     34          7           0        0.119332   -1.366090   -1.666468
     35          1           0        0.430466   -1.869566   -2.488040
     36          6           0        0.862664   -1.561293   -0.418104
     37          1           0        0.222802   -1.177785    0.382312
     38          6           0        2.170625   -0.750392   -0.465336
     39          6           0        1.142646   -3.043151   -0.169671
     40          1           0        1.769121   -3.132491    0.725559
     41          1           0        1.702847   -3.469514   -1.005798
     42          8           0        3.243151   -1.276196   -0.724720
     43          8           0       -0.069044   -3.789908   -0.056850
     44          1           0       -0.437144   -3.620092    0.824937
     45          7           0        1.979522    0.567967   -0.202798
     46          1           0        1.027964    0.900005   -0.091132
     47          6           0        3.066446    1.540925   -0.199274
     48          1           0        3.882023    1.101630   -0.781852
     49          6           0        3.634837    1.805972    1.216398
     50          6           0        2.612225    2.848713   -0.872583
     51          1           0        1.839599    3.332514   -0.265735
     52          1           0        3.469915    3.516609   -0.958112
     53          8           0        4.465716    2.695240    1.390824
     54          6           0        2.063007    2.493562   -2.237123
     55          8           0        0.719075    2.293211   -2.191295
     56          8           0        2.720159    2.304192   -3.236902
     57          7           0        3.154784    0.975304    2.159747
     58          1           0        2.476554    0.254100    1.928224
     59          6           0        3.663224    0.801779    3.506261
     60          1           0        4.754776    0.696706    3.472311
     61          6           0        3.048451   -0.554109    3.998514
     62          6           0        3.324196    2.044391    4.387977
     63          1           0        2.299868    1.952641    4.775310
     64          1           0        3.324131    2.889523    3.696042
     65          8           0        3.527985   -1.010925    5.094523
     66          6           0        4.317943    2.385816    5.530942
     67          1           0        4.562870    3.452980    5.491543
     68          1           0        5.267301    1.855799    5.380771
     69          6           0        3.813357    2.093487    6.950362
     70          1           0        4.557901    2.423490    7.687947
     71          1           0        2.880403    2.639191    7.148108
     72          7           0        3.577068    0.656068    7.073321
     73          1           0        3.835025    0.066421    6.234403
     74          7           0        2.154755    0.696607    8.921296
     75          1           0        1.452229    0.246053    9.488390
     76          1           0        2.697882    1.422491    9.365350
     77          7           0        2.196798   -1.131221    7.455303
     78          1           0        2.506885   -1.469769    6.527062
     79          1           0        1.761241   -1.755546    8.116308
     80          6           0        2.657179    0.072489    7.826309
     81          8           0        2.156145   -1.079538    3.310215
     82          1           0        0.461701    1.891157   -3.056460
 ---------------------------------------------------------------------

 SCF Done:  E(RB3LYP) =  -2166.36972893     A.U. after    1 cycles

 Alpha  occ. eigenvalues --  -19.27733 -19.27356 -19.23421 -19.23414 -19.22443
 Alpha  occ. eigenvalues --  -19.18235 -19.17862 -19.14479 -19.14318 -19.13505
 Alpha  occ. eigenvalues --  -14.59832 -14.50854 -14.46996 -14.46369 -14.43765
 Alpha  occ. eigenvalues --  -14.42750 -14.42246 -14.38229 -10.44644 -10.41595
 Alpha  occ. eigenvalues --  -10.40904 -10.39744 -10.36501 -10.35724 -10.35461
 Alpha  occ. eigenvalues --  -10.35173 -10.34788 -10.32375 -10.31970 -10.31726
 Alpha  occ. eigenvalues --  -10.31166 -10.31143 -10.30971 -10.30377 -10.30193
 Alpha  occ. eigenvalues --  -10.29752 -10.29679 -10.29455 -10.28658 -10.26137
 Alpha  occ. eigenvalues --  -10.24973 -10.24770 -10.23447  -1.20130  -1.15065
 Alpha  occ. eigenvalues --   -1.14492  -1.14043  -1.13794  -1.10475  -1.09769
 Alpha  occ. eigenvalues --   -1.09697  -1.07315  -1.07149  -1.06117  -1.05558
 Alpha  occ. eigenvalues --   -1.02841  -0.99498  -0.99132  -0.98060  -0.97730
 Alpha  occ. eigenvalues --   -0.97664  -0.94963  -0.93726  -0.89358  -0.86530
 Alpha  occ. eigenvalues --   -0.85706  -0.85278  -0.84742  -0.83021  -0.80279
 Alpha  occ. eigenvalues --   -0.79139  -0.77170  -0.74981  -0.74904  -0.73860
 Alpha  occ. eigenvalues --   -0.73095  -0.72487  -0.71558  -0.71235  -0.70740
 Alpha  occ. eigenvalues --   -0.69998  -0.69489  -0.67341  -0.66863  -0.65631
 Alpha  occ. eigenvalues --   -0.65300  -0.64776  -0.64146  -0.63504  -0.63308
 Alpha  occ. eigenvalues --   -0.61784  -0.61596  -0.61035  -0.60809  -0.59447
 Alpha  occ. eigenvalues --   -0.59144  -0.58565  -0.58405  -0.58095  -0.57963
 Alpha  occ. eigenvalues --   -0.57212  -0.57125  -0.56273  -0.55572  -0.54957
 Alpha  occ. eigenvalues --   -0.54269  -0.53805  -0.53666  -0.53535  -0.53365
 Alpha  occ. eigenvalues --   -0.53188  -0.52442  -0.52377  -0.51995  -0.51783
 Alpha  occ. eigenvalues --   -0.51535  -0.50639  -0.50011  -0.49650  -0.49201
 Alpha  occ. eigenvalues --   -0.49008  -0.48517  -0.48227  -0.47821  -0.47487
 Alpha  occ. eigenvalues --   -0.46760  -0.46101  -0.45906  -0.45573  -0.45400
 Alpha  occ. eigenvalues --   -0.45196  -0.44747  -0.44725  -0.43987  -0.43842
 Alpha  occ. eigenvalues --   -0.43181  -0.42904  -0.42341  -0.41654  -0.41438
 Alpha  occ. eigenvalues --   -0.40926  -0.40615  -0.39646  -0.39226  -0.38971
 Alpha  occ. eigenvalues --   -0.37902  -0.37089  -0.36886  -0.36551  -0.36455
 Alpha  occ. eigenvalues --   -0.36295  -0.36262  -0.35882  -0.33566  -0.33147
 Alpha  occ. eigenvalues --   -0.31748  -0.31001  -0.29999  -0.29333  -0.28073
 Alpha  occ. eigenvalues --   -0.27907  -0.27289
 Alpha virt. eigenvalues --   -0.13757  -0.12551  -0.12280  -0.09439  -0.08982
 Alpha virt. eigenvalues --   -0.05718  -0.05209  -0.04614  -0.04129  -0.03852
 Alpha virt. eigenvalues --   -0.03008  -0.02430  -0.02004  -0.01579  -0.01367

 Mulliken charges:
               1
     1  N   -0.758187
     2  H    0.433926
     3  H    0.406154
     4  H    0.411297
     5  C   -0.112008
     6  H    0.225193
     7  C    0.657700
     8  C   -0.387453
     9  H    0.204702
    10  H    0.190910
    11  O   -0.529041
    12  C    0.132299
    13  C   -0.242012
    14  H    0.144362
    15  C   -0.192637
    16  H    0.155886
    17  C   -0.116705
    18  H    0.165298
    19  C   -0.137529
    20  H    0.200177
    21  C   -0.123964
    22  H    0.169156
    23  N   -0.609984
    24  H    0.372342
    25  C   -0.069213
    26  H    0.198742
    27  C    0.638424
    28  C   -0.041901
    29  H    0.173717
    30  H    0.167637
    31  O   -0.552161
    32  O   -0.620520
    33  H    0.434416
    34  N   -0.576358
    35  H    0.354553
    36  C   -0.113965
    37  H    0.192689
    38  C    0.634641
    39  C   -0.062012
    40  H    0.199602
    41  H    0.174962
    42  O   -0.501124
    43  O   -0.622831
    44  H    0.404740
    45  N   -0.643542
    46  H    0.357716
    47  C   -0.056396
    48  H    0.223919
    49  C    0.628742
    50  C   -0.350391
    51  H    0.163748
    52  H    0.212346
    53  O   -0.545650
    54  C    0.570187
    55  O   -0.619162
    56  O   -0.464097
    57  N   -0.636006
    58  H    0.362223
    59  C   -0.038898
    60  H    0.168406
    61  C    0.598562
    62  C   -0.282770
    63  H    0.132529
    64  H    0.185418
    65  O   -0.636163
    66  C   -0.304399
    67  H    0.164058
    68  H    0.169829
    69  C   -0.147114
    70  H    0.159515
    71  H    0.160150
    72  N   -0.610162
    73  H    0.418470
    74  N   -0.756489
    75  H    0.359575
    76  H    0.370141
    77  N   -0.781902
    78  H    0.415097
    79  H    0.344421
    80  C    0.766751
    81  O   -0.568059
    82  H    0.435481
 Sum of Mulliken charges =   1.00000

 Dipole moment (field-independent basis, Debye):
    X=            -25.6716    Y=             -9.7471    Z=              3.3565  Tot=             27.6641
 Quadrupole moment (field-independent basis, Debye-Ang):
   XX=           -133.2514   YY=           -199.0281   ZZ=            -48.3467
   XY=             66.3196   XZ=             98.4503   YZ=             34.3371

 Normal termination of Gaussian 16 at Tue May 17 19:49:03 2022.
