 Gaussian 16, Revision C.01,
 Gaussian 16:  ES64L-G16RevC.01  3-Jul-2019

 ----------------------------------------------------------------------
 # B3LYP/6-31G* empiricaldispersion=gd3 guess=read geom=check nosymm in
 tegral(ultrafinegrid)
 ----------------------------------------------------------------------

 ------------------------------------------------------
 Candidate Structure: Conf:472 Charge calc in gas phase
 ------------------------------------------------------
 Structure from the checkpoint file:  "conf-472.chk"
 Charge =  1 Multiplicity = 1

                          Input orientation:
 ---------------------------------------------------------------------
 Center     Atomic      Atomic             Coordinates (Angstroms)
 Number     Number       Type             X           Y           Z
 ---------------------------------------------------------------------
      1          7           0       -4.821120    0.936265   -5.913565
      2          1           0       -4.430634    0.879281   -6.858048
      3          1           0       -5.601608    0.249148   -5.836664
      4          1           0       -5.140612    1.903393   -5.740590
      5          6           0       -3.842967    0.510923   -4.840003
      6          1           0       -2.827277    0.730200   -5.172968
      7          6           0       -4.117180   -0.988680   -4.654061
      8          6           0       -4.163720    1.288427   -3.542275
      9          1           0       -5.158982    0.987081   -3.194337
     10          1           0       -3.447224    0.964220   -2.780888
     11          8           0       -5.228107   -1.426853   -4.952861
     12          6           0       -4.092161    2.777309   -3.794365
     13          6           0       -2.846891    3.408166   -3.946588
     14          1           0       -1.937332    2.827038   -3.820276
     15          6           0       -5.265278    3.531170   -3.958001
     16          1           0       -6.235245    3.062133   -3.796412
     17          6           0       -2.783003    4.767638   -4.247551
     18          1           0       -1.815473    5.250378   -4.351344
     19          6           0       -5.197481    4.895167   -4.264572
     20          1           0       -6.112100    5.470676   -4.374021
     21          6           0       -3.956241    5.512896   -4.410634
     22          1           0       -3.899830    6.572290   -4.642843
     23          7           0       -3.083601   -1.685675   -4.146625
     24          1           0       -2.299526   -1.111827   -3.832543
     25          6           0       -3.254486   -2.931947   -3.411232
     26          1           0       -4.191194   -3.402154   -3.725535
     27          6           0       -3.343375   -2.530869   -1.901229
     28          6           0       -2.052647   -3.827358   -3.792069
     29          1           0       -1.121564   -3.266829   -3.638931
     30          1           0       -2.137843   -4.075805   -4.853873
     31          8           0       -3.511144   -1.352268   -1.614708
     32          8           0       -2.011301   -5.029388   -3.001822
     33          1           0       -1.613729   -5.745391   -3.520950
     34          7           0       -3.101427   -3.488093   -0.953855
     35          1           0       -3.014750   -4.438854   -1.288979
     36          6           0       -2.188284   -3.104548    0.141424
     37          1           0       -2.553868   -2.180219    0.585784
     38          6           0       -0.818320   -2.841357   -0.488045
     39          6           0       -2.128376   -4.194070    1.210928
     40          1           0       -1.413172   -3.863767    1.979460
     41          1           0       -1.727465   -5.127046    0.777201
     42          8           0       -0.231571   -3.868135   -1.165556
     43          8           0       -3.437704   -4.364676    1.712454
     44          1           0       -3.396627   -4.961721    2.475055
     45          7           0       -0.277760   -1.691772   -0.434232
     46          1           0       -1.178157    0.043744   -0.568416
     47          6           0        0.952380   -1.453666   -1.184349
     48          1           0        1.067651   -2.166589   -2.009345
     49          6           0        2.163432   -1.640237   -0.229700
     50          6           0        0.906538   -0.020617   -1.784374
     51          1           0        1.171396    0.705240   -1.007860
     52          1           0        1.618495    0.085894   -2.605579
     53          8           0        2.019727   -2.067919    0.912561
     54          6           0       -0.471979    0.310807   -2.316560
     55          8           0       -0.765517    0.329669   -3.504997
     56          8           0       -1.396882    0.571962   -1.388230
     57          7           0        3.352549   -1.325566   -0.784420
     58          1           0        3.418347   -0.788216   -1.651868
     59          6           0        4.553070   -1.108450    0.008720
     60          1           0        4.265310   -0.589311    0.933183
     61          6           0        5.466590   -0.133065   -0.804547
     62          6           0        5.288778   -2.413994    0.387151
     63          1           0        6.168959   -2.529439   -0.255306
     64          1           0        4.627471   -3.266682    0.201151
     65          8           0        6.634128    0.034168   -0.322049
     66          6           0        5.741803   -2.404942    1.857654
     67          1           0        4.908039   -2.709292    2.497322
     68          1           0        5.973485   -1.372089    2.140435
     69          6           0        6.991113   -3.282075    2.118808
     70          1           0        6.776036   -4.086317    2.827426
     71          1           0        7.330818   -3.760019    1.194079
     72          7           0        8.163051   -2.584318    2.666104
     73          1           0        8.333075   -2.636549    3.660671
     74          7           0        8.578171   -1.208992    0.814045
     75          1           0        9.306133   -0.746831    0.282986
     76          1           0        7.586724   -0.818543    0.526021
     77          7           0       10.163533   -1.453508    2.498772
     78          1           0       10.603091   -2.078691    3.158031
     79          1           0       10.685513   -0.644115    2.197379
     80          6           0        8.941340   -1.729594    1.971423
     81          8           0        4.970881    0.398697   -1.810681
     82          1           0       -0.892077   -4.493810   -1.466760
 ---------------------------------------------------------------------

 SCF Done:  E(RB3LYP) =  -2166.31451036     A.U. after    1 cycles

 Alpha  occ. eigenvalues --  -19.28086 -19.26503 -19.25570 -19.24751 -19.22118
 Alpha  occ. eigenvalues --  -19.22110 -19.21498 -19.15827 -19.12341 -19.11609
 Alpha  occ. eigenvalues --  -14.57937 -14.47495 -14.47065 -14.46858 -14.44473
 Alpha  occ. eigenvalues --  -14.43670 -14.40381 -14.38779 -10.42311 -10.41459
 Alpha  occ. eigenvalues --  -10.39987 -10.38417 -10.37716 -10.36672 -10.35494
 Alpha  occ. eigenvalues --  -10.34526 -10.33119 -10.32009 -10.31882 -10.30643
 Alpha  occ. eigenvalues --  -10.30105 -10.29986 -10.29918 -10.29518 -10.28597
 Alpha  occ. eigenvalues --  -10.28098 -10.27870 -10.27807 -10.27711 -10.27244
 Alpha  occ. eigenvalues --  -10.25249 -10.24631 -10.22976  -1.17248  -1.17084
 Alpha  occ. eigenvalues --   -1.16177  -1.14471  -1.13320  -1.12021  -1.10732
 Alpha  occ. eigenvalues --   -1.09718  -1.08935  -1.07601  -1.05123  -1.04591
 Alpha  occ. eigenvalues --   -1.01453  -1.00560  -0.99173  -0.98298  -0.96862
 Alpha  occ. eigenvalues --   -0.95305  -0.95122  -0.90956  -0.87774  -0.86486
 Alpha  occ. eigenvalues --   -0.85274  -0.84035  -0.83474  -0.83162  -0.79586
 Alpha  occ. eigenvalues --   -0.77201  -0.75857  -0.75306  -0.73796  -0.71984
 Alpha  occ. eigenvalues --   -0.71806  -0.71133  -0.70932  -0.69682  -0.69307
 Alpha  occ. eigenvalues --   -0.68332  -0.67911  -0.67752  -0.67585  -0.67215
 Alpha  occ. eigenvalues --   -0.66039  -0.65477  -0.65064  -0.62834  -0.62351
 Alpha  occ. eigenvalues --   -0.61451  -0.61086  -0.60328  -0.60086  -0.60052
 Alpha  occ. eigenvalues --   -0.59193  -0.58306  -0.58099  -0.58042  -0.56949
 Alpha  occ. eigenvalues --   -0.56730  -0.56490  -0.55563  -0.55285  -0.54962
 Alpha  occ. eigenvalues --   -0.54258  -0.54067  -0.53609  -0.53028  -0.52433
 Alpha  occ. eigenvalues --   -0.52386  -0.52109  -0.51827  -0.51503  -0.50928
 Alpha  occ. eigenvalues --   -0.50801  -0.50144  -0.49707  -0.49350  -0.49072
 Alpha  occ. eigenvalues --   -0.48691  -0.47857  -0.47697  -0.47644  -0.47384
 Alpha  occ. eigenvalues --   -0.47026  -0.46238  -0.46034  -0.45419  -0.44859
 Alpha  occ. eigenvalues --   -0.44849  -0.44201  -0.43766  -0.43369  -0.43271
 Alpha  occ. eigenvalues --   -0.43005  -0.42830  -0.42194  -0.41434  -0.41072
 Alpha  occ. eigenvalues --   -0.40315  -0.39859  -0.39225  -0.38835  -0.38706
 Alpha  occ. eigenvalues --   -0.37979  -0.37835  -0.37344  -0.35943  -0.35734
 Alpha  occ. eigenvalues --   -0.35466  -0.35206  -0.34802  -0.34406  -0.34338
 Alpha  occ. eigenvalues --   -0.33718  -0.33441  -0.29920  -0.29359  -0.27600
 Alpha  occ. eigenvalues --   -0.26889  -0.25928
 Alpha virt. eigenvalues --   -0.11371  -0.10088  -0.09311  -0.08500  -0.07962
 Alpha virt. eigenvalues --   -0.07739  -0.07731  -0.07056  -0.05052  -0.03740
 Alpha virt. eigenvalues --   -0.02590  -0.01825  -0.00302  -0.00078   0.00260

 Mulliken charges:
               1
     1  N   -0.744297
     2  H    0.412580
     3  H    0.419253
     4  H    0.403439
     5  C   -0.137655
     6  H    0.232172
     7  C    0.642331
     8  C   -0.393283
     9  H    0.182250
    10  H    0.266571
    11  O   -0.525908
    12  C    0.123840
    13  C   -0.183453
    14  H    0.170698
    15  C   -0.231037
    16  H    0.145025
    17  C   -0.127570
    18  H    0.161246
    19  C   -0.122203
    20  H    0.158154
    21  C   -0.125277
    22  H    0.159944
    23  N   -0.600141
    24  H    0.394118
    25  C   -0.109567
    26  H    0.220789
    27  C    0.597073
    28  C   -0.057565
    29  H    0.168738
    30  H    0.178790
    31  O   -0.479627
    32  O   -0.645153
    33  H    0.432343
    34  N   -0.589197
    35  H    0.352303
    36  C   -0.068522
    37  H    0.213454
    38  C    0.532100
    39  C   -0.042979
    40  H    0.173829
    41  H    0.120274
    42  O   -0.627851
    43  O   -0.603721
    44  H    0.408933
    45  N   -0.483435
    46  H    0.447973
    47  C   -0.087676
    48  H    0.177209
    49  C    0.616775
    50  C   -0.385292
    51  H    0.195202
    52  H    0.200954
    53  O   -0.531502
    54  C    0.613958
    55  O   -0.523908
    56  O   -0.568181
    57  N   -0.621249
    58  H    0.353704
    59  C   -0.051311
    60  H    0.159883
    61  C    0.598456
    62  C   -0.268201
    63  H    0.146958
    64  H    0.156374
    65  O   -0.639241
    66  C   -0.298529
    67  H    0.173293
    68  H    0.162363
    69  C   -0.149902
    70  H    0.168324
    71  H    0.185950
    72  N   -0.597834
    73  H    0.351145
    74  N   -0.767084
    75  H    0.350965
    76  H    0.454189
    77  N   -0.767533
    78  H    0.364131
    79  H    0.369489
    80  C    0.768959
    81  O   -0.561353
    82  H    0.430737
 Sum of Mulliken charges =   1.00000

 Dipole moment (field-independent basis, Debye):
    X=              1.5843    Y=             -8.6596    Z=            -10.6167  Tot=             13.7918
 Quadrupole moment (field-independent basis, Debye-Ang):
   XX=             -7.7414   YY=           -162.6646   ZZ=           -110.8937
   XY=            -63.0294   XZ=            156.3788   YZ=            -27.0268

 Normal termination of Gaussian 16 at Tue May 17 19:49:04 2022.
