 Gaussian 16, Revision C.01,
 Gaussian 16:  ES64L-G16RevC.01  3-Jul-2019

 ----------------------------------------------------------------------
 # B3LYP/6-31G* empiricaldispersion=gd3 guess=read geom=check nosymm in
 tegral(ultrafinegrid)
 ----------------------------------------------------------------------

 ------------------------------------------------------
 Candidate Structure: Conf:242 Charge calc in gas phase
 ------------------------------------------------------
 Structure from the checkpoint file:  "conf-242.chk"
 Charge =  1 Multiplicity = 1

                          Input orientation:
 ---------------------------------------------------------------------
 Center     Atomic      Atomic             Coordinates (Angstroms)
 Number     Number       Type             X           Y           Z
 ---------------------------------------------------------------------
      1          7           0        0.109959   -2.962501   -3.507053
      2          1           0        0.563211   -2.504332   -4.297405
      3          1           0        1.051709   -2.904057   -2.348550
      4          1           0       -0.070468   -3.926620   -3.784922
      5          6           0       -1.143079   -2.269910   -3.144760
      6          1           0       -1.868534   -2.264977   -3.970320
      7          6           0       -0.770250   -0.825514   -2.780885
      8          6           0       -1.810671   -3.017792   -1.946104
      9          1           0       -2.047387   -4.027673   -2.304484
     10          1           0       -1.070592   -3.118659   -1.145370
     11          8           0        0.405960   -0.544478   -2.508022
     12          6           0       -3.060986   -2.325049   -1.454813
     13          6           0       -3.034963   -1.563662   -0.281255
     14          1           0       -2.137344   -1.547679    0.329854
     15          6           0       -4.227287   -2.322881   -2.233985
     16          1           0       -4.271453   -2.921030   -3.142131
     17          6           0       -4.129409   -0.785429    0.095479
     18          1           0       -4.055169   -0.171945    0.987630
     19          6           0       -5.330677   -1.551918   -1.857746
     20          1           0       -6.228504   -1.559829   -2.469564
     21          6           0       -5.278642   -0.773512   -0.697375
     22          1           0       -6.131379   -0.163575   -0.413041
     23          7           0       -1.755631    0.099630   -2.712054
     24          1           0       -2.719482   -0.195151   -2.814963
     25          6           0       -1.478929    1.441536   -2.203158
     26          1           0       -0.415465    1.585352   -2.377844
     27          6           0       -1.631248    1.619824   -0.664735
     28          6           0       -2.176116    2.566427   -2.958527
     29          1           0       -2.138782    3.466167   -2.344777
     30          1           0       -3.229829    2.318363   -3.131595
     31          8           0       -2.239634    2.552133   -0.177350
     32          8           0       -1.460099    2.774262   -4.152650
     33          1           0       -1.886178    3.494221   -4.632694
     34          7           0       -0.889433    0.712669    0.060480
     35          1           0       -0.336637    0.055364   -0.474498
     36          6           0       -0.392340    1.042072    1.404112
     37          1           0       -0.716402    2.065783    1.624833
     38          6           0        1.148419    0.974164    1.268255
     39          6           0       -0.943264    0.115499    2.482342
     40          1           0       -0.466464    0.378005    3.443461
     41          1           0       -0.669164   -0.924398    2.257532
     42          8           0        1.766443    0.038275    1.794253
     43          8           0       -2.343231    0.314376    2.523969
     44          1           0       -2.710526   -0.239490    3.229589
     45          7           0        1.705973    1.854108    0.397810
     46          1           0        1.087106    2.622127    0.113602
     47          6           0        2.388323    1.367896   -0.842092
     48          1           0        1.610351    0.914807   -1.458696
     49          6           0        3.461060    0.267764   -0.666497
     50          6           0        2.863919    2.604866   -1.639532
     51          1           0        3.381293    3.313908   -0.990874
     52          1           0        3.536755    2.282604   -2.436123
     53          8           0        4.629806    0.544001   -0.427793
     54          6           0        1.606838    3.214152   -2.228679
     55          8           0        0.767674    3.810973   -1.562467
     56          8           0        1.426804    2.894286   -3.512132
     57          7           0        2.962916   -0.970995   -0.917247
     58          1           0        1.983639   -1.063475   -1.159242
     59          6           0        3.678898   -2.258172   -0.958514
     60          1           0        4.607302   -2.142687   -1.523777
     61          6           0        2.802746   -3.259754   -1.744014
     62          6           0        3.956507   -2.789464    0.457418
     63          1           0        4.212214   -3.855139    0.426361
     64          1           0        3.004986   -2.697001    0.996352
     65          8           0        1.509440   -2.961455   -1.622995
     66          6           0        5.064813   -2.000347    1.171090
     67          1           0        4.923831   -0.925848    1.025741
     68          1           0        6.039438   -2.229236    0.731922
     69          6           0        5.067778   -2.258046    2.678756
     70          1           0        5.022128   -3.329878    2.914475
     71          1           0        5.966160   -1.836001    3.145912
     72          7           0        3.874501   -1.572097    3.204716
     73          1           0        3.242052   -1.151221    2.510661
     74          7           0        4.252398   -1.950978    5.466782
     75          1           0        4.143323   -1.662276    6.426941
     76          1           0        4.937218   -2.665140    5.270502
     77          7           0        2.540871   -0.538578    4.752300
     78          1           0        2.172556    0.049848    4.016097
     79          1           0        2.196021   -0.411581    5.690851
     80          6           0        3.568380   -1.362814    4.467918
     81          8           0        3.278470   -4.198993   -2.336270
     82          1           0        0.452206    3.127255   -3.752083
 ---------------------------------------------------------------------

 SCF Done:  E(RB3LYP) =  -2166.34689941     A.U. after    1 cycles

 Alpha  occ. eigenvalues --  -19.27384 -19.25402 -19.24810 -19.24474 -19.22839
 Alpha  occ. eigenvalues --  -19.22494 -19.22350 -19.21274 -19.21137 -19.19607
 Alpha  occ. eigenvalues --  -14.51904 -14.50807 -14.50471 -14.47032 -14.45588
 Alpha  occ. eigenvalues --  -14.45481 -14.43842 -14.43413 -10.47489 -10.40741
 Alpha  occ. eigenvalues --  -10.40510 -10.39781 -10.39332 -10.38285 -10.37400
 Alpha  occ. eigenvalues --  -10.34872 -10.33743 -10.33622 -10.33581 -10.33093
 Alpha  occ. eigenvalues --  -10.32760 -10.32403 -10.31804 -10.29079 -10.28549
 Alpha  occ. eigenvalues --  -10.28436 -10.28235 -10.28146 -10.27251 -10.27100
 Alpha  occ. eigenvalues --  -10.26764 -10.26703 -10.26341  -1.18184  -1.18030
 Alpha  occ. eigenvalues --   -1.16202  -1.15584  -1.14880  -1.13294  -1.12826
 Alpha  occ. eigenvalues --   -1.11854  -1.11507  -1.09581  -1.09119  -1.05264
 Alpha  occ. eigenvalues --   -1.04337  -1.03625  -1.03042  -1.01247  -1.00819
 Alpha  occ. eigenvalues --   -1.00168  -0.93816  -0.90575  -0.88690  -0.87751
 Alpha  occ. eigenvalues --   -0.86434  -0.85294  -0.84697  -0.82372  -0.80738
 Alpha  occ. eigenvalues --   -0.79668  -0.78042  -0.76877  -0.75636  -0.74523
 Alpha  occ. eigenvalues --   -0.73549  -0.72605  -0.71971  -0.70637  -0.69554
 Alpha  occ. eigenvalues --   -0.69399  -0.68600  -0.68347  -0.67975  -0.67427
 Alpha  occ. eigenvalues --   -0.66654  -0.65933  -0.65066  -0.64810  -0.64490
 Alpha  occ. eigenvalues --   -0.62926  -0.61882  -0.61511  -0.61295  -0.60220
 Alpha  occ. eigenvalues --   -0.59918  -0.59751  -0.59066  -0.58647  -0.58216
 Alpha  occ. eigenvalues --   -0.57895  -0.57226  -0.56297  -0.55989  -0.55935
 Alpha  occ. eigenvalues --   -0.55313  -0.54923  -0.54819  -0.54601  -0.54273
 Alpha  occ. eigenvalues --   -0.53701  -0.53417  -0.53007  -0.52728  -0.52640
 Alpha  occ. eigenvalues --   -0.52244  -0.52046  -0.51143  -0.50924  -0.50243
 Alpha  occ. eigenvalues --   -0.50133  -0.49842  -0.49673  -0.49612  -0.48724
 Alpha  occ. eigenvalues --   -0.48501  -0.48141  -0.47541  -0.47399  -0.47094
 Alpha  occ. eigenvalues --   -0.46805  -0.46609  -0.46048  -0.45645  -0.45303
 Alpha  occ. eigenvalues --   -0.44965  -0.44091  -0.43831  -0.43718  -0.43103
 Alpha  occ. eigenvalues --   -0.42699  -0.42292  -0.42079  -0.41694  -0.39955
 Alpha  occ. eigenvalues --   -0.39686  -0.39093  -0.38720  -0.38349  -0.37537
 Alpha  occ. eigenvalues --   -0.36903  -0.36798  -0.36404  -0.36007  -0.35729
 Alpha  occ. eigenvalues --   -0.34984  -0.34729  -0.33496  -0.33162  -0.32935
 Alpha  occ. eigenvalues --   -0.32536  -0.32404
 Alpha virt. eigenvalues --   -0.12673  -0.11062  -0.09729  -0.08771  -0.08550
 Alpha virt. eigenvalues --   -0.08215  -0.07593  -0.07239  -0.06564  -0.05800
 Alpha virt. eigenvalues --   -0.04126  -0.03005  -0.02428  -0.02144  -0.01973

 Mulliken charges:
               1
     1  N   -0.803862
     2  H    0.345258
     3  H    0.493305
     4  H    0.344095
     5  C   -0.067268
     6  H    0.166242
     7  C    0.619609
     8  C   -0.361647
     9  H    0.170154
    10  H    0.176581
    11  O   -0.544041
    12  C    0.143060
    13  C   -0.183999
    14  H    0.126893
    15  C   -0.208689
    16  H    0.136577
    17  C   -0.142928
    18  H    0.174646
    19  C   -0.132867
    20  H    0.151454
    21  C   -0.136763
    22  H    0.151850
    23  N   -0.581859
    24  H    0.359440
    25  C   -0.114732
    26  H    0.207779
    27  C    0.630951
    28  C   -0.049116
    29  H    0.198230
    30  H    0.149169
    31  O   -0.481393
    32  O   -0.625543
    33  H    0.422181
    34  N   -0.618577
    35  H    0.351847
    36  C   -0.065686
    37  H    0.213865
    38  C    0.551915
    39  C   -0.008844
    40  H    0.111730
    41  H    0.138357
    42  O   -0.545881
    43  O   -0.598762
    44  H    0.408524
    45  N   -0.579171
    46  H    0.374960
    47  C   -0.144647
    48  H    0.215370
    49  C    0.646892
    50  C   -0.332043
    51  H    0.204884
    52  H    0.201036
    53  O   -0.523608
    54  C    0.571325
    55  O   -0.489192
    56  O   -0.563736
    57  N   -0.661102
    58  H    0.400232
    59  C   -0.037230
    60  H    0.194033
    61  C    0.553030
    62  C   -0.278883
    63  H    0.172603
    64  H    0.146152
    65  O   -0.607415
    66  C   -0.339953
    67  H    0.221604
    68  H    0.178368
    69  C   -0.147035
    70  H    0.171967
    71  H    0.184251
    72  N   -0.636092
    73  H    0.425188
    74  N   -0.766784
    75  H    0.379698
    76  H    0.389048
    77  N   -0.783450
    78  H    0.398719
    79  H    0.369974
    80  C    0.828126
    81  O   -0.442573
    82  H    0.434199
 Sum of Mulliken charges =   1.00000

 Dipole moment (field-independent basis, Debye):
    X=              4.3699    Y=             -5.9223    Z=              9.6205  Tot=             12.1130
 Quadrupole moment (field-independent basis, Debye-Ang):
   XX=           -190.0677   YY=           -234.1078   ZZ=           -117.4205
   XY=            -15.5546   XZ=             80.9008   YZ=            -29.1818

 Normal termination of Gaussian 16 at Tue May 17 19:49:21 2022.
