 Gaussian 16, Revision C.01,
 Gaussian 16:  ES64L-G16RevC.01  3-Jul-2019

 ----------------------------------------------------------------------
 # B3LYP/6-31G* empiricaldispersion=gd3 guess=read geom=check nosymm in
 tegral(ultrafinegrid)
 ----------------------------------------------------------------------

 ------------------------------------------------------
 Candidate Structure: Conf:549 Charge calc in gas phase
 ------------------------------------------------------
 Structure from the checkpoint file:  "conf-549.chk"
 Charge =  1 Multiplicity = 1

                          Input orientation:
 ---------------------------------------------------------------------
 Center     Atomic      Atomic             Coordinates (Angstroms)
 Number     Number       Type             X           Y           Z
 ---------------------------------------------------------------------
      1          7           0       -2.574358    1.348253   -7.013830
      2          1           0       -1.624784    1.387324   -7.395645
      3          1           0       -2.944452    0.381568   -7.181182
      4          1           0       -3.151038    2.078006   -7.460935
      5          6           0       -2.595568    1.482306   -5.509445
      6          1           0       -1.726046    2.072505   -5.212603
      7          6           0       -2.511681    0.020321   -5.019408
      8          6           0       -3.905835    2.173186   -5.066184
      9          1           0       -4.742637    1.490660   -5.256551
     10          1           0       -3.844053    2.307843   -3.981187
     11          8           0       -2.836364   -0.874875   -5.805173
     12          6           0       -4.106533    3.490607   -5.782116
     13          6           0       -3.378228    4.627141   -5.402481
     14          1           0       -2.719977    4.583584   -4.537360
     15          6           0       -4.960916    3.567675   -6.893735
     16          1           0       -5.565755    2.705760   -7.172381
     17          6           0       -3.507367    5.818166   -6.115234
     18          1           0       -2.948635    6.695693   -5.803949
     19          6           0       -5.085468    4.761887   -7.611799
     20          1           0       -5.760511    4.813016   -8.460822
     21          6           0       -4.357383    5.886189   -7.223815
     22          1           0       -4.457133    6.816059   -7.775283
     23          7           0       -2.133896   -0.144989   -3.750913
     24          1           0       -1.804604    0.638810   -3.184547
     25          6           0       -1.749819   -1.431565   -3.185790
     26          1           0       -2.609418   -2.110417   -3.168241
     27          6           0       -1.297732   -1.114385   -1.747801
     28          6           0       -0.608254   -2.092310   -4.024037
     29          1           0       -1.059746   -2.628174   -4.860258
     30          1           0       -0.085990   -2.820224   -3.384845
     31          8           0       -1.031057    0.046777   -1.422055
     32          8           0        0.284156   -1.149006   -4.588590
     33          1           0        2.091524   -1.651426   -4.022651
     34          7           0       -1.172803   -2.164785   -0.919007
     35          1           0       -1.376029   -3.123197   -1.187394
     36          6           0       -0.659595   -2.029816    0.445755
     37          1           0       -0.896097   -1.023659    0.804319
     38          6           0        0.873090   -2.233418    0.437318
     39          6           0       -1.340396   -3.099071    1.309991
     40          1           0       -2.411794   -2.889196    1.371163
     41          1           0       -0.919631   -3.071730    2.323004
     42          8           0        1.378837   -3.274598    0.873603
     43          8           0       -1.201072   -4.376564    0.704859
     44          1           0       -0.251158   -4.584693    0.782202
     45          7           0        1.571349   -1.228654   -0.132687
     46          1           0        1.064074   -0.385924   -0.389305
     47          6           0        3.027385   -1.208207   -0.196940
     48          1           0        3.341541   -2.252027   -0.297528
     49          6           0        3.595096   -0.677791    1.145119
     50          6           0        3.515873   -0.396520   -1.429007
     51          1           0        3.577585    0.669966   -1.191221
     52          1           0        4.516011   -0.733544   -1.710514
     53          8           0        2.925555   -0.876564    2.188427
     54          6           0        2.565706   -0.554905   -2.581824
     55          8           0        1.627126    0.215349   -2.770026
     56          8           0        2.789877   -1.631126   -3.343180
     57          7           0        4.773313   -0.073058    1.108311
     58          1           0        5.118687    0.312797    0.192248
     59          6           0        5.161361    0.998821    2.042533
     60          1           0        4.270911    1.317325    2.596324
     61          6           0        5.586098    2.199633    1.064934
     62          6           0        6.303542    0.690520    3.024481
     63          1           0        6.816693    1.647666    3.154267
     64          1           0        7.020114    0.006109    2.551164
     65          8           0        5.912924    3.243245    1.630997
     66          6           0        5.918569    0.177416    4.427484
     67          1           0        4.962926    0.615526    4.745288
     68          1           0        6.665421    0.533704    5.147252
     69          6           0        5.858015   -1.341000    4.613360
     70          1           0        6.793625   -1.787545    4.247715
     71          1           0        5.761871   -1.578136    5.682144
     72          7           0        4.728671   -1.933054    3.893975
     73          1           0        4.040129   -1.309615    3.439805
     74          7           0        5.394431   -4.142604    4.210885
     75          1           0        5.474935   -5.064917    3.809641
     76          1           0        6.144558   -3.849868    4.817604
     77          7           0        3.649409   -3.642786    2.765144
     78          1           0        3.003029   -2.973069    2.343389
     79          1           0        3.362509   -4.610275    2.761975
     80          6           0        4.593788   -3.221306    3.625141
     81          8           0        5.533752    1.893653   -0.168741
     82          1           0        0.565606   -0.497889   -3.894112
 ---------------------------------------------------------------------

 SCF Done:  E(RB3LYP) =  -2166.36423295     A.U. after    1 cycles

 Alpha  occ. eigenvalues --  -19.28700 -19.26734 -19.25345 -19.24229 -19.23834
 Alpha  occ. eigenvalues --  -19.23159 -19.22339 -19.19868 -19.10243 -19.08821
 Alpha  occ. eigenvalues --  -14.59940 -14.49626 -14.48089 -14.47758 -14.46147
 Alpha  occ. eigenvalues --  -14.45866 -14.45833 -14.40589 -10.43618 -10.43241
 Alpha  occ. eigenvalues --  -10.42110 -10.40842 -10.40734 -10.39112 -10.36108
 Alpha  occ. eigenvalues --  -10.35942 -10.34895 -10.34222 -10.33340 -10.33160
 Alpha  occ. eigenvalues --  -10.32505 -10.32333 -10.31346 -10.31098 -10.30672
 Alpha  occ. eigenvalues --  -10.30412 -10.30242 -10.29996 -10.28396 -10.27735
 Alpha  occ. eigenvalues --  -10.25470 -10.25242 -10.22844  -1.20496  -1.19257
 Alpha  occ. eigenvalues --   -1.15950  -1.14122  -1.13954  -1.12652  -1.12054
 Alpha  occ. eigenvalues --   -1.11199  -1.10800  -1.10420  -1.06279  -1.04036
 Alpha  occ. eigenvalues --   -1.03215  -1.02246  -1.01065  -1.00051  -0.97892
 Alpha  occ. eigenvalues --   -0.97832  -0.94295  -0.93525  -0.89693  -0.88051
 Alpha  occ. eigenvalues --   -0.86450  -0.86028  -0.85931  -0.84461  -0.80331
 Alpha  occ. eigenvalues --   -0.79799  -0.78322  -0.77445  -0.74949  -0.74064
 Alpha  occ. eigenvalues --   -0.73799  -0.73505  -0.72645  -0.71836  -0.71684
 Alpha  occ. eigenvalues --   -0.70285  -0.70117  -0.69789  -0.69037  -0.68733
 Alpha  occ. eigenvalues --   -0.67034  -0.66831  -0.64815  -0.63607  -0.63294
 Alpha  occ. eigenvalues --   -0.62669  -0.62356  -0.62054  -0.61150  -0.60914
 Alpha  occ. eigenvalues --   -0.60417  -0.59836  -0.59405  -0.59279  -0.58476
 Alpha  occ. eigenvalues --   -0.57872  -0.57620  -0.57336  -0.56844  -0.56443
 Alpha  occ. eigenvalues --   -0.56328  -0.55951  -0.55550  -0.55200  -0.54527
 Alpha  occ. eigenvalues --   -0.54109  -0.53836  -0.53443  -0.52918  -0.52602
 Alpha  occ. eigenvalues --   -0.52185  -0.51881  -0.51673  -0.51284  -0.50945
 Alpha  occ. eigenvalues --   -0.50752  -0.50573  -0.49857  -0.49503  -0.48892
 Alpha  occ. eigenvalues --   -0.48616  -0.48011  -0.47661  -0.47526  -0.46936
 Alpha  occ. eigenvalues --   -0.46127  -0.45841  -0.45545  -0.45543  -0.44806
 Alpha  occ. eigenvalues --   -0.44221  -0.43293  -0.42647  -0.41475  -0.41325
 Alpha  occ. eigenvalues --   -0.40921  -0.40267  -0.40031  -0.39083  -0.38965
 Alpha  occ. eigenvalues --   -0.38843  -0.38776  -0.38686  -0.38056  -0.37357
 Alpha  occ. eigenvalues --   -0.37041  -0.36783  -0.36599  -0.36423  -0.36303
 Alpha  occ. eigenvalues --   -0.35652  -0.34509  -0.33767  -0.32404  -0.25181
 Alpha  occ. eigenvalues --   -0.25100  -0.22845
 Alpha virt. eigenvalues --   -0.13441  -0.12443  -0.11357  -0.10380  -0.09793
 Alpha virt. eigenvalues --   -0.09277  -0.07777  -0.07463  -0.06016  -0.05043
 Alpha virt. eigenvalues --   -0.03734  -0.03085  -0.01998  -0.01670  -0.01344

 Mulliken charges:
               1
     1  N   -0.745227
     2  H    0.421758
     3  H    0.424813
     4  H    0.406409
     5  C   -0.121977
     6  H    0.219719
     7  C    0.681642
     8  C   -0.380179
     9  H    0.194148
    10  H    0.208411
    11  O   -0.537711
    12  C    0.137285
    13  C   -0.181142
    14  H    0.151059
    15  C   -0.232552
    16  H    0.150871
    17  C   -0.122196
    18  H    0.171684
    19  C   -0.119589
    20  H    0.168256
    21  C   -0.123724
    22  H    0.171067
    23  N   -0.620361
    24  H    0.376166
    25  C   -0.070945
    26  H    0.200330
    27  C    0.625431
    28  C   -0.049876
    29  H    0.194791
    30  H    0.148033
    31  O   -0.540322
    32  O   -0.668536
    33  H    0.433483
    34  N   -0.602191
    35  H    0.359333
    36  C   -0.106574
    37  H    0.203459
    38  C    0.656669
    39  C   -0.050517
    40  H    0.168195
    41  H    0.163182
    42  O   -0.570029
    43  O   -0.633269
    44  H    0.417681
    45  N   -0.608863
    46  H    0.381427
    47  C   -0.059042
    48  H    0.202346
    49  C    0.610046
    50  C   -0.395521
    51  H    0.242335
    52  H    0.209892
    53  O   -0.601262
    54  C    0.590999
    55  O   -0.507943
    56  O   -0.564429
    57  N   -0.593670
    58  H    0.387560
    59  C   -0.100490
    60  H    0.154030
    61  C    0.585425
    62  C   -0.268484
    63  H    0.201505
    64  H    0.131540
    65  O   -0.547960
    66  C   -0.308507
    67  H    0.162609
    68  H    0.164686
    69  C   -0.151787
    70  H    0.160973
    71  H    0.167210
    72  N   -0.616469
    73  H    0.423387
    74  N   -0.765508
    75  H    0.367215
    76  H    0.379292
    77  N   -0.806117
    78  H    0.427387
    79  H    0.355464
    80  C    0.797370
    81  O   -0.620198
    82  H    0.436590
 Sum of Mulliken charges =   1.00000

 Dipole moment (field-independent basis, Debye):
    X=             -9.2362    Y=             -8.2386    Z=            -16.4455  Tot=             20.5824
 Quadrupole moment (field-independent basis, Debye-Ang):
   XX=           -202.6171   YY=           -197.3312   ZZ=            -36.7542
   XY=           -119.8255   XZ=            122.8821   YZ=            -99.6262

 Normal termination of Gaussian 16 at Tue May 17 19:49:03 2022.
