 Gaussian 16, Revision C.01,
 Gaussian 16:  ES64L-G16RevC.01  3-Jul-2019

 ----------------------------------------------------------------------
 # B3LYP/6-31G* empiricaldispersion=gd3 guess=read geom=check nosymm in
 tegral(ultrafinegrid)
 ----------------------------------------------------------------------

 ------------------------------------------------------
 Candidate Structure: Conf:234 Charge calc in gas phase
 ------------------------------------------------------
 Structure from the checkpoint file:  "conf-234.chk"
 Charge =  1 Multiplicity = 1

                          Input orientation:
 ---------------------------------------------------------------------
 Center     Atomic      Atomic             Coordinates (Angstroms)
 Number     Number       Type             X           Y           Z
 ---------------------------------------------------------------------
      1          7           0       -5.593109   -3.056565   -4.217085
      2          1           0       -5.820117   -2.150871   -4.646413
      3          1           0       -4.848942   -3.473609   -4.798208
      4          1           0       -6.429282   -3.668041   -4.216133
      5          6           0       -5.073950   -2.922695   -2.797654
      6          1           0       -5.758108   -2.259132   -2.261877
      7          6           0       -3.675061   -2.339929   -2.904028
      8          6           0       -5.097880   -4.333727   -2.148421
      9          1           0       -4.387077   -4.978381   -2.683210
     10          1           0       -4.719592   -4.220585   -1.125708
     11          8           0       -3.061329   -2.499530   -4.006922
     12          6           0       -6.496574   -4.917429   -2.190783
     13          6           0       -7.520082   -4.368045   -1.395123
     14          1           0       -7.298786   -3.555435   -0.703597
     15          6           0       -6.803119   -5.973393   -3.068018
     16          1           0       -6.018020   -6.419808   -3.677101
     17          6           0       -8.817225   -4.875012   -1.468141
     18          1           0       -9.597596   -4.453627   -0.841063
     19          6           0       -8.106488   -6.476785   -3.140779
     20          1           0       -8.329622   -7.300424   -3.812837
     21          6           0       -9.112580   -5.928590   -2.341819
     22          1           0      -10.122911   -6.323328   -2.393444
     23          7           0       -3.155349   -1.802172   -1.812083
     24          1           0       -3.699803   -1.565593   -0.975271
     25          6           0       -1.745175   -1.395171   -1.703156
     26          1           0       -1.116250   -2.263097   -1.944275
     27          6           0       -1.571837   -1.034992   -0.179196
     28          6           0       -1.391361   -0.244221   -2.637696
     29          1           0       -0.417054    0.305907   -2.400143
     30          1           0       -2.215070    0.462993   -2.733673
     31          8           0       -2.552642   -0.598714    0.423962
     32          8           0       -1.212598   -0.788435   -4.059137
     33          1           0       -0.264273   -1.001313   -4.200141
     34          7           0       -0.340302   -1.254671    0.285926
     35          1           0        0.258655   -1.810756   -0.315065
     36          6           0        0.153521   -1.133775    1.668589
     37          1           0       -0.634520   -0.617528    2.222218
     38          6           0        1.530670   -0.381151    1.759584
     39          6           0        0.365421   -2.530169    2.257897
     40          1           0        0.677736   -2.399600    3.300908
     41          1           0        1.193327   -3.032825    1.728932
     42          8           0        2.213313   -0.550648    2.779011
     43          8           0       -0.855090   -3.255373    2.131703
     44          1           0       -0.698181   -4.152369    2.469686
     45          7           0        1.837731    0.298483    0.665820
     46          1           0        1.219437    0.235847   -0.158920
     47          6           0        3.122047    0.912235    0.308541
     48          1           0        3.879947    0.125230    0.198167
     49          6           0        3.565142    1.914206    1.388038
     50          6           0        2.920477    1.610978   -1.061913
     51          1           0        2.213279    2.434528   -0.901290
     52          1           0        3.875115    2.017110   -1.404518
     53          8           0        2.733393    2.653029    1.930138
     54          6           0        2.351428    0.648680   -2.126689
     55          8           0        2.980906    0.276704   -3.106663
     56          8           0        1.125393    0.264934   -1.821129
     57          7           0        4.876179    1.857864    1.675837
     58          1           0        5.576513    1.475485    1.020869
     59          6           0        5.551278    2.770750    2.587487
     60          1           0        5.013996    3.723026    2.627039
     61          6           0        7.027872    2.995932    2.063325
     62          6           0        5.596998    2.141582    3.987158
     63          1           0        6.129686    2.825358    4.659904
     64          1           0        6.187006    1.214746    3.926515
     65          8           0        7.667730    3.828501    2.748465
     66          6           0        4.183496    1.810293    4.472207
     67          1           0        3.695316    1.146175    3.748145
     68          1           0        3.574733    2.724891    4.499317
     69          6           0        4.164082    1.097965    5.819524
     70          1           0        4.714633    0.154307    5.772755
     71          1           0        4.615567    1.669548    6.641008
     72          7           0        2.773523    0.739377    6.203864
     73          1           0        2.398412   -0.050069    5.685125
     74          7           0        2.199495    2.885099    6.905620
     75          1           0        1.610681    3.464290    7.487746
     76          1           0        3.144352    3.213764    6.757334
     77          7           0        0.587647    1.224023    6.817423
     78          1           0        0.393625    0.238886    6.930990
     79          1           0       -0.068079    1.842973    7.273970
     80          6           0        1.876348    1.611498    6.649780
     81          8           0        7.361901    2.282021    1.086335
     82          1           0       -1.835693   -1.606373   -4.203942
 ---------------------------------------------------------------------

 SCF Done:  E(RB3LYP) =  -2166.17559793     A.U. after    3 cycles

 Alpha  occ. eigenvalues --  -19.39641 -19.31527 -19.23696 -19.23340 -19.16747
 Alpha  occ. eigenvalues --  -19.13091 -19.11860 -19.11773 -19.05511 -19.05449
 Alpha  occ. eigenvalues --  -14.64282 -14.53616 -14.49991 -14.49976 -14.48933
 Alpha  occ. eigenvalues --  -14.47208 -14.39124 -14.35037 -10.47349 -10.45867
 Alpha  occ. eigenvalues --  -10.44468 -10.41352 -10.38892 -10.37924 -10.36987
 Alpha  occ. eigenvalues --  -10.34564 -10.34263 -10.33182 -10.32922 -10.32252
 Alpha  occ. eigenvalues --  -10.32243 -10.31929 -10.31797 -10.31652 -10.30919
 Alpha  occ. eigenvalues --  -10.30244 -10.29127 -10.26127 -10.23602 -10.22347
 Alpha  occ. eigenvalues --  -10.20959 -10.20651 -10.20059  -1.25806  -1.22248
 Alpha  occ. eigenvalues --   -1.18100  -1.15550  -1.14453  -1.10559  -1.09842
 Alpha  occ. eigenvalues --   -1.08116  -1.05315  -1.03724  -1.03323  -1.03266
 Alpha  occ. eigenvalues --   -1.02971  -1.00037  -0.98455  -0.97427  -0.96544
 Alpha  occ. eigenvalues --   -0.95570  -0.92109  -0.91996  -0.89877  -0.88966
 Alpha  occ. eigenvalues --   -0.87925  -0.85318  -0.85119  -0.83152  -0.80925
 Alpha  occ. eigenvalues --   -0.80393  -0.78517  -0.78440  -0.76824  -0.76391
 Alpha  occ. eigenvalues --   -0.75592  -0.75491  -0.74050  -0.73037  -0.72359
 Alpha  occ. eigenvalues --   -0.71753  -0.70937  -0.70013  -0.69076  -0.68370
 Alpha  occ. eigenvalues --   -0.67495  -0.67000  -0.65932  -0.64885  -0.64632
 Alpha  occ. eigenvalues --   -0.64113  -0.62998  -0.62610  -0.62201  -0.61146
 Alpha  occ. eigenvalues --   -0.61062  -0.60520  -0.59760  -0.59091  -0.58506
 Alpha  occ. eigenvalues --   -0.57836  -0.57593  -0.57277  -0.56465  -0.55844
 Alpha  occ. eigenvalues --   -0.55618  -0.55349  -0.55002  -0.54684  -0.54402
 Alpha  occ. eigenvalues --   -0.54198  -0.53705  -0.53123  -0.52446  -0.52128
 Alpha  occ. eigenvalues --   -0.51532  -0.50661  -0.50212  -0.49612  -0.48751
 Alpha  occ. eigenvalues --   -0.48403  -0.48170  -0.48027  -0.47538  -0.47068
 Alpha  occ. eigenvalues --   -0.46573  -0.46350  -0.45324  -0.44814  -0.44029
 Alpha  occ. eigenvalues --   -0.43761  -0.43459  -0.43058  -0.42526  -0.42062
 Alpha  occ. eigenvalues --   -0.41451  -0.41036  -0.40659  -0.39851  -0.38937
 Alpha  occ. eigenvalues --   -0.38736  -0.38567  -0.38383  -0.38095  -0.37522
 Alpha  occ. eigenvalues --   -0.37127  -0.36868  -0.36172  -0.35903  -0.35641
 Alpha  occ. eigenvalues --   -0.34527  -0.32610  -0.30618  -0.30007  -0.28417
 Alpha  occ. eigenvalues --   -0.28162  -0.26104  -0.25791  -0.25146  -0.20728
 Alpha  occ. eigenvalues --   -0.20034  -0.18733
 Alpha virt. eigenvalues --   -0.17951  -0.14485  -0.13984  -0.13229  -0.10881
 Alpha virt. eigenvalues --   -0.10168  -0.08744  -0.08046  -0.06958  -0.06545
 Alpha virt. eigenvalues --   -0.06501  -0.04767  -0.04125  -0.03405  -0.03026

 Mulliken charges:
               1
     1  N   -0.723675
     2  H    0.423831
     3  H    0.428070
     4  H    0.417199
     5  C   -0.131109
     6  H    0.223903
     7  C    0.664845
     8  C   -0.369091
     9  H    0.190944
    10  H    0.216937
    11  O   -0.633522
    12  C    0.113737
    13  C   -0.185437
    14  H    0.147462
    15  C   -0.215868
    16  H    0.150456
    17  C   -0.122466
    18  H    0.173505
    19  C   -0.120097
    20  H    0.174034
    21  C   -0.123212
    22  H    0.176349
    23  N   -0.602890
    24  H    0.383674
    25  C   -0.104916
    26  H    0.190330
    27  C    0.631129
    28  C   -0.122797
    29  H    0.330879
    30  H    0.200878
    31  O   -0.522213
    32  O   -0.631772
    33  H    0.485583
    34  N   -0.578880
    35  H    0.346722
    36  C   -0.086237
    37  H    0.199881
    38  C    0.637873
    39  C   -0.039841
    40  H    0.157624
    41  H    0.138154
    42  O   -0.574476
    43  O   -0.631856
    44  H    0.401234
    45  N   -0.636927
    46  H    0.411939
    47  C   -0.040279
    48  H    0.161630
    49  C    0.632002
    50  C   -0.370927
    51  H    0.163896
    52  H    0.180926
    53  O   -0.575191
    54  C    0.546500
    55  O   -0.513429
    56  O   -0.684387
    57  N   -0.605706
    58  H    0.350514
    59  C   -0.069257
    60  H    0.150373
    61  C    0.589267
    62  C   -0.251698
    63  H    0.151056
    64  H    0.137701
    65  O   -0.564113
    66  C   -0.301764
    67  H    0.213761
    68  H    0.145148
    69  C   -0.199842
    70  H    0.193803
    71  H    0.164144
    72  N   -0.572141
    73  H    0.376649
    74  N   -0.738153
    75  H    0.372823
    76  H    0.401092
    77  N   -0.750027
    78  H    0.372418
    79  H    0.369255
    80  C    0.803848
    81  O   -0.591113
    82  H    0.491332
 Sum of Mulliken charges =   1.00000

 Dipole moment (field-independent basis, Debye):
    X=            -45.5234    Y=            -23.5874    Z=              0.9959  Tot=             51.2810
 Quadrupole moment (field-independent basis, Debye-Ang):
   XX=           -226.9627   YY=           -186.1862   ZZ=            -18.4474
   XY=             39.9188   XZ=            110.5051   YZ=             80.8066

 Normal termination of Gaussian 16 at Tue May 17 19:49:39 2022.
