 Gaussian 16, Revision C.01,
 Gaussian 16:  ES64L-G16RevC.01  3-Jul-2019

 ----------------------------------------------------------------------
 # B3LYP/6-31G* empiricaldispersion=gd3 guess=read geom=check nosymm in
 tegral(ultrafinegrid)
 ----------------------------------------------------------------------

 ------------------------------------------------------
 Candidate Structure: Conf:746 Charge calc in gas phase
 ------------------------------------------------------
 Structure from the checkpoint file:  "conf-746.chk"
 Charge =  1 Multiplicity = 1

                          Input orientation:
 ---------------------------------------------------------------------
 Center     Atomic      Atomic             Coordinates (Angstroms)
 Number     Number       Type             X           Y           Z
 ---------------------------------------------------------------------
      1          7           0       -4.011571   -0.452355   -7.402695
      2          1           0       -3.649090    0.028492   -8.230327
      3          1           0       -3.380196   -1.288321   -7.174517
      4          1           0       -4.970285   -0.756662   -7.594907
      5          6           0       -3.892998    0.362264   -6.125297
      6          1           0       -3.602804    1.379307   -6.395830
      7          6           0       -2.732342   -0.360939   -5.383700
      8          6           0       -5.236386    0.368955   -5.363454
      9          1           0       -6.004643    0.763260   -6.043335
     10          1           0       -5.508538   -0.665187   -5.118861
     11          8           0       -2.338798   -1.440979   -5.859668
     12          6           0       -5.166804    1.208589   -4.104252
     13          6           0       -5.254700    0.610485   -2.842239
     14          1           0       -5.420978   -0.460801   -2.762792
     15          6           0       -4.956709    2.592761   -4.192820
     16          1           0       -4.908514    3.077327   -5.166827
     17          6           0       -5.127136    1.381660   -1.686423
     18          1           0       -5.197217    0.907020   -0.712433
     19          6           0       -4.819230    3.361115   -3.036733
     20          1           0       -4.650548    4.430714   -3.116257
     21          6           0       -4.900216    2.754740   -1.781743
     22          1           0       -4.783123    3.350603   -0.882170
     23          7           0       -2.242982    0.232679   -4.305675
     24          1           0       -2.629511    1.108491   -3.946003
     25          6           0       -1.164272   -0.308300   -3.483587
     26          1           0       -1.315403   -1.381691   -3.338948
     27          6           0       -1.242338    0.466589   -2.146052
     28          6           0        0.198994   -0.089672   -4.175902
     29          1           0        0.324259    0.982003   -4.390314
     30          1           0        0.216034   -0.651505   -5.117183
     31          8           0       -1.732182    1.594484   -2.131152
     32          8           0        1.172096   -0.560801   -3.253142
     33          1           0        2.074263   -0.594664   -3.623645
     34          7           0       -0.735521   -0.190908   -1.085250
     35          1           0       -0.169746   -1.018969   -1.275878
     36          6           0       -0.319461    0.481644    0.142564
     37          1           0       -0.385755    1.561004   -0.016695
     38          6           0        1.144435    0.069438    0.374601
     39          6           0       -1.212703    0.118018    1.345540
     40          1           0       -1.189213   -0.970338    1.508566
     41          1           0       -2.242574    0.404614    1.112248
     42          8           0        1.580714   -0.978260   -0.100307
     43          8           0       -0.836706    0.850287    2.497420
     44          1           0        0.000358    0.490660    2.833424
     45          7           0        1.875517    0.916750    1.136526
     46          1           0        1.467107    1.801054    1.422306
     47          6           0        3.328363    0.895228    1.079134
     48          1           0        3.652519   -0.147382    1.108554
     49          6           0        3.837234    1.698049    2.289111
     50          6           0        3.887625    1.574621   -0.215874
     51          1           0        3.671345    2.646578   -0.150908
     52          1           0        4.968646    1.425305   -0.255600
     53          8           0        3.171966    2.650993    2.708352
     54          6           0        3.267266    1.025540   -1.481114
     55          8           0        3.786895    0.233449   -2.243570
     56          8           0        2.008407    1.493146   -1.668680
     57          7           0        5.028707    1.322582    2.770542
     58          1           0        5.559682    0.532140    2.405486
     59          6           0        5.752077    2.036747    3.816048
     60          1           0        5.666376    3.110985    3.617469
     61          6           0        7.248569    1.614186    3.687083
     62          6           0        5.112109    1.710796    5.189381
     63          1           0        5.065897    0.618351    5.276330
     64          1           0        4.077488    2.072398    5.141302
     65          8           0        8.073659    2.476878    4.150901
     66          6           0        5.784054    2.252580    6.462770
     67          1           0        6.772630    1.794278    6.587808
     68          1           0        5.178082    1.921165    7.315053
     69          6           0        5.955932    3.787149    6.556345
     70          1           0        5.133059    4.316888    6.066747
     71          1           0        5.955446    4.101196    7.604907
     72          7           0        7.222367    4.200600    5.924646
     73          1           0        7.398339    3.677724    5.023191
     74          7           0        8.438134    4.919349    7.795478
     75          1           0        9.246765    4.827458    8.390326
     76          1           0        7.676226    5.497334    8.113263
     77          7           0        9.481747    3.783911    6.052760
     78          1           0        9.356020    3.139327    5.255499
     79          1           0       10.402369    4.092717    6.327637
     80          6           0        8.373363    4.301145    6.596145
     81          8           0        7.494667    0.523614    3.161892
     82          1           0        1.596219    0.832485   -2.283871
 ---------------------------------------------------------------------

 SCF Done:  E(RB3LYP) =  -2166.36727426     A.U. after    1 cycles

 Alpha  occ. eigenvalues --  -19.27433 -19.26139 -19.23953 -19.21612 -19.21369
 Alpha  occ. eigenvalues --  -19.19484 -19.18761 -19.16238 -19.13240 -19.11971
 Alpha  occ. eigenvalues --  -14.60369 -14.49861 -14.46021 -14.44676 -14.43866
 Alpha  occ. eigenvalues --  -14.42470 -14.42079 -14.40024 -10.44075 -10.41362
 Alpha  occ. eigenvalues --  -10.40694 -10.38633 -10.37617 -10.35805 -10.34814
 Alpha  occ. eigenvalues --  -10.34777 -10.34585 -10.33565 -10.31094 -10.30621
 Alpha  occ. eigenvalues --  -10.30525 -10.30354 -10.30028 -10.29640 -10.29341
 Alpha  occ. eigenvalues --  -10.29258 -10.28848 -10.28674 -10.28466 -10.26076
 Alpha  occ. eigenvalues --  -10.25966 -10.24428 -10.23173  -1.19813  -1.15720
 Alpha  occ. eigenvalues --   -1.14303  -1.13668  -1.12810  -1.10936  -1.09299
 Alpha  occ. eigenvalues --   -1.08695  -1.08115  -1.06486  -1.06409  -1.05756
 Alpha  occ. eigenvalues --   -1.01380  -0.99213  -0.98920  -0.97451  -0.97295
 Alpha  occ. eigenvalues --   -0.96959  -0.96144  -0.93082  -0.88504  -0.85742
 Alpha  occ. eigenvalues --   -0.85148  -0.84561  -0.84246  -0.82517  -0.80072
 Alpha  occ. eigenvalues --   -0.78887  -0.76835  -0.75588  -0.74451  -0.73359
 Alpha  occ. eigenvalues --   -0.73202  -0.72457  -0.71055  -0.70784  -0.70266
 Alpha  occ. eigenvalues --   -0.68633  -0.67939  -0.66485  -0.66419  -0.65727
 Alpha  occ. eigenvalues --   -0.65407  -0.64508  -0.63749  -0.63098  -0.63010
 Alpha  occ. eigenvalues --   -0.62189  -0.61312  -0.61151  -0.60273  -0.58772
 Alpha  occ. eigenvalues --   -0.58608  -0.58338  -0.58175  -0.57919  -0.57259
 Alpha  occ. eigenvalues --   -0.55962  -0.55879  -0.55654  -0.55177  -0.54794
 Alpha  occ. eigenvalues --   -0.54457  -0.53849  -0.53542  -0.53365  -0.53045
 Alpha  occ. eigenvalues --   -0.52441  -0.52045  -0.51698  -0.51388  -0.51237
 Alpha  occ. eigenvalues --   -0.50800  -0.50662  -0.50147  -0.49638  -0.49292
 Alpha  occ. eigenvalues --   -0.48905  -0.48582  -0.48268  -0.47312  -0.47087
 Alpha  occ. eigenvalues --   -0.46445  -0.46112  -0.45860  -0.45283  -0.44904
 Alpha  occ. eigenvalues --   -0.44625  -0.44253  -0.44158  -0.43922  -0.43603
 Alpha  occ. eigenvalues --   -0.43073  -0.42712  -0.42223  -0.42148  -0.41564
 Alpha  occ. eigenvalues --   -0.40321  -0.39657  -0.39602  -0.39357  -0.38622
 Alpha  occ. eigenvalues --   -0.38231  -0.36974  -0.36365  -0.36248  -0.35756
 Alpha  occ. eigenvalues --   -0.35040  -0.34737  -0.33669  -0.33219  -0.33149
 Alpha  occ. eigenvalues --   -0.32910  -0.31817  -0.30352  -0.30241  -0.28165
 Alpha  occ. eigenvalues --   -0.27466  -0.26234
 Alpha virt. eigenvalues --   -0.13009  -0.11616  -0.11065  -0.10300  -0.07953
 Alpha virt. eigenvalues --   -0.06427  -0.06214  -0.05569  -0.05164  -0.03274
 Alpha virt. eigenvalues --   -0.02125  -0.01818  -0.01715  -0.01340  -0.00602

 Mulliken charges:
               1
     1  N   -0.763318
     2  H    0.417149
     3  H    0.436769
     4  H    0.414984
     5  C   -0.109605
     6  H    0.220962
     7  C    0.649897
     8  C   -0.377138
     9  H    0.186040
    10  H    0.183826
    11  O   -0.545654
    12  C    0.136096
    13  C   -0.179911
    14  H    0.142660
    15  C   -0.200019
    16  H    0.129909
    17  C   -0.116882
    18  H    0.160492
    19  C   -0.114629
    20  H    0.161729
    21  C   -0.102548
    22  H    0.165978
    23  N   -0.613709
    24  H    0.394252
    25  C   -0.057195
    26  H    0.203108
    27  C    0.599329
    28  C   -0.044717
    29  H    0.158839
    30  H    0.176006
    31  O   -0.527429
    32  O   -0.630132
    33  H    0.438803
    34  N   -0.600849
    35  H    0.376365
    36  C   -0.075821
    37  H    0.197490
    38  C    0.605756
    39  C   -0.032805
    40  H    0.145890
    41  H    0.160039
    42  O   -0.535444
    43  O   -0.609933
    44  H    0.407482
    45  N   -0.597439
    46  H    0.356044
    47  C   -0.072486
    48  H    0.196919
    49  C    0.627274
    50  C   -0.328375
    51  H    0.185352
    52  H    0.194466
    53  O   -0.558319
    54  C    0.575138
    55  O   -0.480155
    56  O   -0.625501
    57  N   -0.616197
    58  H    0.355535
    59  C   -0.060563
    60  H    0.154085
    61  C    0.607507
    62  C   -0.268828
    63  H    0.152866
    64  H    0.165458
    65  O   -0.646900
    66  C   -0.286500
    67  H    0.163822
    68  H    0.150742
    69  C   -0.170493
    70  H    0.183206
    71  H    0.142977
    72  N   -0.600935
    73  H    0.408030
    74  N   -0.753913
    75  H    0.364947
    76  H    0.371392
    77  N   -0.769022
    78  H    0.423130
    79  H    0.351067
    80  C    0.759328
    81  O   -0.541355
    82  H    0.455582
 Sum of Mulliken charges =   1.00000

 Dipole moment (field-independent basis, Debye):
    X=             -8.3697    Y=              9.2788    Z=            -13.3862  Tot=             18.3123
 Quadrupole moment (field-independent basis, Debye-Ang):
   XX=            -90.7799   YY=           -204.4649   ZZ=             68.1275
   XY=             79.8229   XZ=            225.7841   YZ=             67.8874

 Normal termination of Gaussian 16 at Tue May 17 19:50:26 2022.
