 Gaussian 16, Revision C.01,
 Gaussian 16:  ES64L-G16RevC.01  3-Jul-2019

 ----------------------------------------------------------------------
 # B3LYP/6-31G* empiricaldispersion=gd3 guess=read geom=check nosymm in
 tegral(ultrafinegrid)
 ----------------------------------------------------------------------

 ------------------------------------------------------
 Candidate Structure: Conf:879 Charge calc in gas phase
 ------------------------------------------------------
 Structure from the checkpoint file:  "conf-879.chk"
 Charge =  1 Multiplicity = 1

                          Input orientation:
 ---------------------------------------------------------------------
 Center     Atomic      Atomic             Coordinates (Angstroms)
 Number     Number       Type             X           Y           Z
 ---------------------------------------------------------------------
      1          7           0       -3.653594   -0.570142   -6.281962
      2          1           0       -2.847638   -0.054940   -6.650242
      3          1           0       -3.460656   -1.566387   -6.434178
      4          1           0       -4.482262   -0.305501   -6.821955
      5          6           0       -3.846463   -0.312577   -4.819960
      6          1           0       -3.937309    0.767268   -4.661855
      7          6           0       -2.602735   -0.829362   -4.111697
      8          6           0       -5.136541   -0.987020   -4.305231
      9          1           0       -5.953013   -0.685017   -4.973537
     10          1           0       -5.029715   -2.072916   -4.390291
     11          8           0       -1.839115   -1.630971   -4.715231
     12          6           0       -5.441111   -0.580580   -2.882640
     13          6           0       -5.245996   -1.473257   -1.825444
     14          1           0       -4.883318   -2.477371   -2.028140
     15          6           0       -5.885895    0.716387   -2.608175
     16          1           0       -6.025694    1.417488   -3.428306
     17          6           0       -5.494167   -1.073129   -0.512442
     18          1           0       -5.327277   -1.771115    0.301496
     19          6           0       -6.146039    1.113986   -1.297861
     20          1           0       -6.499272    2.120202   -1.100216
     21          6           0       -5.949541    0.217663   -0.247216
     22          1           0       -6.153582    0.525099    0.772294
     23          7           0       -2.376649   -0.391535   -2.874232
     24          1           0       -2.965298    0.315108   -2.435260
     25          6           0       -1.369416   -0.961506   -1.994781
     26          1           0       -1.479748   -2.051529   -1.946444
     27          6           0       -1.585657   -0.314902   -0.618053
     28          6           0        0.052057   -0.641965   -2.476760
     29          1           0        0.805856   -0.817932   -1.708147
     30          1           0        0.117540    0.385875   -2.828825
     31          8           0       -2.107621    0.786179   -0.554973
     32          8           0        0.396752   -1.502099   -3.649824
     33          1           0        0.734752   -2.370946   -3.366227
     34          7           0       -1.085376   -1.010201    0.430174
     35          1           0       -0.491862   -1.812752    0.259629
     36          6           0       -0.712296   -0.276883    1.640992
     37          1           0       -1.149910    0.719124    1.559827
     38          6           0        0.813617   -0.233745    1.476403
     39          6           0       -1.154241   -0.937464    2.927800
     40          1           0       -0.676823   -1.924095    3.009784
     41          1           0       -2.245357   -1.076043    2.912066
     42          8           0        1.447368   -1.295171    1.528404
     43          8           0       -0.746554   -0.061875    3.968576
     44          1           0       -0.920781   -0.493941    4.813704
     45          7           0        1.311626    0.947360    1.107724
     46          1           0        0.678267    1.722618    0.821193
     47          6           0        2.587414    1.037031    0.412710
     48          1           0        2.560375    0.418487   -0.494641
     49          6           0        3.735745    0.515278    1.286242
     50          6           0        2.778431    2.506710    0.018313
     51          1           0        2.749782    3.105295    0.933538
     52          1           0        3.733510    2.659027   -0.484346
     53          8           0        3.909645    0.963741    2.440510
     54          6           0        1.599456    2.900950   -0.926540
     55          8           0        1.880972    3.221716   -2.089605
     56          8           0        0.442550    2.835226   -0.402929
     57          7           0        4.498740   -0.430325    0.693625
     58          1           0        4.628458   -0.432130   -0.322844
     59          6           0        5.722993   -0.911195    1.288378
     60          1           0        5.961804   -0.317146    2.170759
     61          6           0        6.850798   -0.746390    0.204288
     62          6           0        5.672963   -2.399957    1.671877
     63          1           0        6.630096   -2.605072    2.163008
     64          1           0        5.638964   -3.029341    0.775190
     65          8           0        8.011750   -0.754752    0.639105
     66          6           0        4.488588   -2.759429    2.583131
     67          1           0        4.604791   -3.784118    2.957576
     68          1           0        3.552761   -2.731577    2.016065
     69          6           0        4.323626   -1.754391    3.710948
     70          1           0        4.074671   -0.810317    3.245094
     71          1           0        3.489325   -2.009703    4.374928
     72          7           0        5.552962   -1.594568    4.507293
     73          1           0        5.887287   -2.440679    4.949739
     74          7           0        5.403244    0.732159    4.677115
     75          1           0        5.514003    1.542866    5.268969
     76          1           0        4.654416    0.787848    3.983463
     77          7           0        6.833627   -0.451970    6.082010
     78          1           0        7.426363   -1.271503    6.131826
     79          1           0        7.351318    0.408517    6.211805
     80          6           0        5.906397   -0.438954    5.080070
     81          8           0        6.408587   -0.675673   -0.969818
     82          1           0       -0.498925   -1.645224   -4.186194
 ---------------------------------------------------------------------

 SCF Done:  E(RB3LYP) =  -2166.15625970     A.U. after    3 cycles

 Alpha  occ. eigenvalues --  -19.43298 -19.33719 -19.24673 -19.21770 -19.17315
 Alpha  occ. eigenvalues --  -19.15917 -19.08187 -19.07230 -19.07128 -19.06975
 Alpha  occ. eigenvalues --  -14.67072 -14.54875 -14.47996 -14.47078 -14.46814
 Alpha  occ. eigenvalues --  -14.45023 -14.38936 -14.37585 -10.48974 -10.45835
 Alpha  occ. eigenvalues --  -10.42817 -10.42752 -10.42166 -10.41097 -10.37939
 Alpha  occ. eigenvalues --  -10.33878 -10.33836 -10.32270 -10.32190 -10.32176
 Alpha  occ. eigenvalues --  -10.31338 -10.31261 -10.31048 -10.30999 -10.30666
 Alpha  occ. eigenvalues --  -10.27982 -10.26696 -10.26122 -10.25089 -10.23137
 Alpha  occ. eigenvalues --  -10.22315 -10.21175 -10.19140  -1.30395  -1.25044
 Alpha  occ. eigenvalues --   -1.21171  -1.17272  -1.11638  -1.11309  -1.09846
 Alpha  occ. eigenvalues --   -1.08833  -1.06736  -1.04324  -1.01412  -1.00836
 Alpha  occ. eigenvalues --   -1.00738  -1.00676  -0.99209  -0.97364  -0.96733
 Alpha  occ. eigenvalues --   -0.94781  -0.94703  -0.92309  -0.91743  -0.89780
 Alpha  occ. eigenvalues --   -0.87258  -0.86446  -0.84824  -0.84579  -0.82936
 Alpha  occ. eigenvalues --   -0.81325  -0.80105  -0.79747  -0.78645  -0.77342
 Alpha  occ. eigenvalues --   -0.77280  -0.74235  -0.73720  -0.73567  -0.72071
 Alpha  occ. eigenvalues --   -0.71381  -0.71140  -0.70825  -0.70330  -0.68671
 Alpha  occ. eigenvalues --   -0.68334  -0.67596  -0.67063  -0.66083  -0.64506
 Alpha  occ. eigenvalues --   -0.64398  -0.63862  -0.62874  -0.61288  -0.61140
 Alpha  occ. eigenvalues --   -0.60709  -0.60205  -0.59981  -0.59438  -0.59073
 Alpha  occ. eigenvalues --   -0.58738  -0.58723  -0.57857  -0.57216  -0.56809
 Alpha  occ. eigenvalues --   -0.56012  -0.55427  -0.54861  -0.54804  -0.54553
 Alpha  occ. eigenvalues --   -0.54218  -0.54110  -0.53740  -0.53625  -0.52334
 Alpha  occ. eigenvalues --   -0.51789  -0.50746  -0.50229  -0.49263  -0.49238
 Alpha  occ. eigenvalues --   -0.48882  -0.48397  -0.47923  -0.47324  -0.47226
 Alpha  occ. eigenvalues --   -0.46833  -0.46293  -0.45417  -0.45294  -0.45188
 Alpha  occ. eigenvalues --   -0.44472  -0.43953  -0.42760  -0.41698  -0.41264
 Alpha  occ. eigenvalues --   -0.40952  -0.40529  -0.40070  -0.38903  -0.38840
 Alpha  occ. eigenvalues --   -0.38184  -0.37987  -0.37776  -0.37720  -0.37587
 Alpha  occ. eigenvalues --   -0.37480  -0.37005  -0.36402  -0.35554  -0.35057
 Alpha  occ. eigenvalues --   -0.34292  -0.34142  -0.31696  -0.30711  -0.29828
 Alpha  occ. eigenvalues --   -0.28767  -0.23576  -0.22839  -0.22537  -0.21833
 Alpha  occ. eigenvalues --   -0.21367  -0.20298
 Alpha virt. eigenvalues --   -0.19258  -0.16374  -0.14105  -0.13771  -0.13041
 Alpha virt. eigenvalues --   -0.11389  -0.10241  -0.09925  -0.07672  -0.06655
 Alpha virt. eigenvalues --   -0.06414  -0.05057  -0.04525  -0.03737  -0.03542

 Mulliken charges:
               1
     1  N   -0.716073
     2  H    0.439199
     3  H    0.435261
     4  H    0.432727
     5  C   -0.150422
     6  H    0.246539
     7  C    0.655119
     8  C   -0.371370
     9  H    0.189112
    10  H    0.187862
    11  O   -0.636213
    12  C    0.145825
    13  C   -0.187576
    14  H    0.135066
    15  C   -0.194955
    16  H    0.136910
    17  C   -0.123731
    18  H    0.164924
    19  C   -0.113690
    20  H    0.178288
    21  C   -0.109373
    22  H    0.177117
    23  N   -0.582999
    24  H    0.403004
    25  C   -0.104522
    26  H    0.185836
    27  C    0.615900
    28  C   -0.120695
    29  H    0.261745
    30  H    0.296139
    31  O   -0.462134
    32  O   -0.604084
    33  H    0.484700
    34  N   -0.605925
    35  H    0.336012
    36  C   -0.084352
    37  H    0.226676
    38  C    0.605878
    39  C   -0.023498
    40  H    0.138486
    41  H    0.123513
    42  O   -0.582870
    43  O   -0.607481
    44  H    0.405602
    45  N   -0.590510
    46  H    0.390432
    47  C   -0.057724
    48  H    0.111668
    49  C    0.667564
    50  C   -0.367380
    51  H    0.160475
    52  H    0.164320
    53  O   -0.601171
    54  C    0.537170
    55  O   -0.573565
    56  O   -0.628070
    57  N   -0.574430
    58  H    0.348274
    59  C   -0.088720
    60  H    0.133430
    61  C    0.587989
    62  C   -0.252957
    63  H    0.147714
    64  H    0.144773
    65  O   -0.559185
    66  C   -0.302518
    67  H    0.120245
    68  H    0.187747
    69  C   -0.196058
    70  H    0.230584
    71  H    0.158403
    72  N   -0.570914
    73  H    0.348504
    74  N   -0.750945
    75  H    0.361678
    76  H    0.443654
    77  N   -0.748747
    78  H    0.365510
    79  H    0.368736
    80  C    0.763635
    81  O   -0.602578
    82  H    0.497489
 Sum of Mulliken charges =   1.00000

 Dipole moment (field-independent basis, Debye):
    X=            -25.6499    Y=            -15.9230    Z=            -11.4995  Tot=             32.3063
 Quadrupole moment (field-independent basis, Debye-Ang):
   XX=           -199.6610   YY=           -250.4599   ZZ=             11.2771
   XY=             -2.0567   XZ=            202.2488   YZ=             24.0947

 Normal termination of Gaussian 16 at Tue May 17 19:49:32 2022.
