 Gaussian 16, Revision C.01,
 Gaussian 16:  ES64L-G16RevC.01  3-Jul-2019

 ----------------------------------------------------------------------
 # B3LYP/6-31G* empiricaldispersion=gd3 guess=read geom=check nosymm in
 tegral(ultrafinegrid)
 ----------------------------------------------------------------------

 ------------------------------------------------------
 Candidate Structure: Conf:126 Charge calc in gas phase
 ------------------------------------------------------
 Structure from the checkpoint file:  "conf-126.chk"
 Charge =  1 Multiplicity = 1

                          Input orientation:
 ---------------------------------------------------------------------
 Center     Atomic      Atomic             Coordinates (Angstroms)
 Number     Number       Type             X           Y           Z
 ---------------------------------------------------------------------
      1          7           0       -4.370733   -1.781840   -4.755928
      2          1           0       -4.559356   -1.570130   -5.740572
      3          1           0       -3.406135   -2.178952   -4.691771
      4          1           0       -5.084632   -2.446668   -4.412430
      5          6           0       -4.332692   -0.547859   -3.885773
      6          1           0       -4.982159    0.204294   -4.338687
      7          6           0       -2.845833   -0.145289   -3.867747
      8          6           0       -4.822024   -0.909532   -2.459107
      9          1           0       -4.060407   -1.537117   -1.980869
     10          1           0       -4.870281    0.023757   -1.887955
     11          8           0       -2.009277   -1.015289   -4.135353
     12          6           0       -6.161758   -1.610252   -2.495038
     13          6           0       -7.342919   -0.882259   -2.698645
     14          1           0       -7.307008    0.203869   -2.752658
     15          6           0       -6.227026   -3.011170   -2.413895
     16          1           0       -5.324023   -3.585559   -2.211122
     17          6           0       -8.566354   -1.541206   -2.809715
     18          1           0       -9.476941   -0.967197   -2.952115
     19          6           0       -7.454931   -3.671377   -2.532157
     20          1           0       -7.495405   -4.753469   -2.452933
     21          6           0       -8.623522   -2.936648   -2.731625
     22          1           0       -9.578295   -3.446244   -2.816439
     23          7           0       -2.557985    1.112639   -3.509128
     24          1           0       -3.302371    1.728608   -3.202455
     25          6           0       -1.170860    1.549840   -3.280606
     26          1           0       -0.539697    1.005995   -3.987112
     27          6           0       -0.779660    1.204387   -1.819418
     28          6           0       -1.028044    3.046282   -3.567443
     29          1           0       -1.534669    3.628575   -2.786503
     30          1           0       -1.485246    3.263358   -4.541075
     31          8           0       -0.833536    2.039836   -0.929803
     32          8           0        0.369657    3.306019   -3.583406
     33          1           0        0.570687    4.079752   -4.131533
     34          7           0       -0.446331   -0.104577   -1.636182
     35          1           0       -0.320857   -0.678439   -2.462859
     36          6           0        0.107215   -0.612392   -0.380926
     37          1           0       -0.158133    0.105932    0.399926
     38          6           0        1.653439   -0.704007   -0.482524
     39          6           0       -0.494713   -1.993483   -0.059418
     40          1           0       -0.431560   -2.635456   -0.950718
     41          1           0       -1.548846   -1.886857    0.213258
     42          8           0        2.222293   -1.804038   -0.392959
     43          8           0        0.183802   -2.609883    1.030425
     44          1           0        1.122141   -2.607564    0.708781
     45          7           0        2.267596    0.455704   -0.723117
     46          1           0        1.730463    1.313715   -0.628183
     47          6           0        3.729742    0.592826   -0.775732
     48          1           0        4.092054    0.052067   -1.655235
     49          6           0        4.333566    0.008154    0.528151
     50          6           0        4.099420    2.090623   -0.884937
     51          1           0        3.946176    2.551888    0.095217
     52          1           0        5.150048    2.170516   -1.169147
     53          8           0        3.790079    0.296802    1.603969
     54          6           0        3.240333    2.783820   -1.921213
     55          8           0        2.054606    3.161272   -1.374881
     56          8           0        3.501919    2.928173   -3.093980
     57          7           0        5.388337   -0.779076    0.340074
     58          1           0        5.926767   -0.841022   -0.547036
     59          6           0        6.236427   -1.365494    1.368771
     60          1           0        6.360968   -0.655044    2.194494
     61          6           0        7.638409   -1.644580    0.672454
     62          6           0        5.685233   -2.693419    1.912622
     63          1           0        6.403756   -3.042349    2.662198
     64          1           0        5.677432   -3.436227    1.103066
     65          8           0        7.659402   -1.365390   -0.559224
     66          6           0        4.274461   -2.534980    2.476227
     67          1           0        3.608452   -2.208671    1.672817
     68          1           0        4.269560   -1.722379    3.210282
     69          6           0        3.663150   -3.793473    3.090605
     70          1           0        3.725852   -4.647047    2.410818
     71          1           0        4.153415   -4.105118    4.020816
     72          7           0        2.209992   -3.584383    3.349200
     73          1           0        1.566962   -3.960022    2.662696
     74          7           0        2.423015   -2.093161    5.128238
     75          1           0        2.326736   -1.117784    5.377085
     76          1           0        3.320317   -2.504068    5.346201
     77          7           0        0.532590   -2.049732    3.774907
     78          1           0        0.192374   -2.130631    2.809602
     79          1           0        0.098081   -1.392361    4.405896
     80          6           0        1.734959   -2.565364    4.068037
     81          8           0        8.493443   -2.134274    1.425563
     82          1           0        1.438751    3.393147   -2.116296
 ---------------------------------------------------------------------

 SCF Done:  E(RB3LYP) =  -2166.30360823     A.U. after    1 cycles

 Alpha  occ. eigenvalues --  -19.30709 -19.28453 -19.26039 -19.24862 -19.24465
 Alpha  occ. eigenvalues --  -19.21554 -19.19465 -19.13675 -19.05234 -19.04034
 Alpha  occ. eigenvalues --  -14.63359 -14.54623 -14.48845 -14.48695 -14.48307
 Alpha  occ. eigenvalues --  -14.47889 -14.44191 -14.36333 -10.47703 -10.44644
 Alpha  occ. eigenvalues --  -10.44529 -10.41693 -10.38218 -10.37883 -10.37641
 Alpha  occ. eigenvalues --  -10.37637 -10.37239 -10.35254 -10.35242 -10.34460
 Alpha  occ. eigenvalues --  -10.33881 -10.33498 -10.33034 -10.32906 -10.32600
 Alpha  occ. eigenvalues --  -10.31124 -10.31104 -10.29645 -10.25728 -10.23180
 Alpha  occ. eigenvalues --  -10.23088 -10.21116 -10.20442  -1.23116  -1.17692
 Alpha  occ. eigenvalues --   -1.16738  -1.15883  -1.15172  -1.14454  -1.13234
 Alpha  occ. eigenvalues --   -1.11810  -1.10558  -1.06886  -1.05391  -1.05096
 Alpha  occ. eigenvalues --   -1.02298  -1.01439  -1.00752  -1.00618  -0.98312
 Alpha  occ. eigenvalues --   -0.96788  -0.93171  -0.92027  -0.89588  -0.89193
 Alpha  occ. eigenvalues --   -0.88665  -0.87223  -0.85171  -0.84579  -0.82853
 Alpha  occ. eigenvalues --   -0.78777  -0.78699  -0.77581  -0.77170  -0.76730
 Alpha  occ. eigenvalues --   -0.76515  -0.74952  -0.74607  -0.73790  -0.73140
 Alpha  occ. eigenvalues --   -0.71690  -0.70441  -0.70047  -0.69472  -0.67974
 Alpha  occ. eigenvalues --   -0.66941  -0.66786  -0.66509  -0.65663  -0.65208
 Alpha  occ. eigenvalues --   -0.65047  -0.63623  -0.62946  -0.62220  -0.61608
 Alpha  occ. eigenvalues --   -0.61338  -0.60909  -0.60749  -0.59971  -0.59730
 Alpha  occ. eigenvalues --   -0.59351  -0.58559  -0.57886  -0.57481  -0.56967
 Alpha  occ. eigenvalues --   -0.56455  -0.56172  -0.56014  -0.55449  -0.54948
 Alpha  occ. eigenvalues --   -0.54568  -0.54285  -0.53651  -0.53126  -0.53067
 Alpha  occ. eigenvalues --   -0.52718  -0.52490  -0.52303  -0.51655  -0.51011
 Alpha  occ. eigenvalues --   -0.50354  -0.50250  -0.49358  -0.49175  -0.48586
 Alpha  occ. eigenvalues --   -0.48256  -0.47927  -0.47497  -0.47330  -0.46604
 Alpha  occ. eigenvalues --   -0.46147  -0.45280  -0.45233  -0.44490  -0.44139
 Alpha  occ. eigenvalues --   -0.43581  -0.42787  -0.42666  -0.41938  -0.40777
 Alpha  occ. eigenvalues --   -0.40478  -0.39955  -0.39517  -0.39498  -0.39088
 Alpha  occ. eigenvalues --   -0.38574  -0.38420  -0.37733  -0.37613  -0.37384
 Alpha  occ. eigenvalues --   -0.36526  -0.35767  -0.34765  -0.34537  -0.33940
 Alpha  occ. eigenvalues --   -0.32841  -0.32604  -0.28072  -0.27048  -0.20279
 Alpha  occ. eigenvalues --   -0.20213  -0.18394
 Alpha virt. eigenvalues --   -0.17136  -0.15256  -0.14373  -0.12994  -0.11850
 Alpha virt. eigenvalues --   -0.10003  -0.09214  -0.07440  -0.07011  -0.05464
 Alpha virt. eigenvalues --   -0.05190  -0.04963  -0.04707  -0.04436  -0.04275

 Mulliken charges:
               1
     1  N   -0.744023
     2  H    0.424125
     3  H    0.429642
     4  H    0.411059
     5  C   -0.119227
     6  H    0.217165
     7  C    0.663804
     8  C   -0.382684
     9  H    0.197150
    10  H    0.203394
    11  O   -0.534636
    12  C    0.134794
    13  C   -0.179788
    14  H    0.146687
    15  C   -0.234896
    16  H    0.153664
    17  C   -0.120902
    18  H    0.176705
    19  C   -0.117695
    20  H    0.176231
    21  C   -0.122167
    22  H    0.179312
    23  N   -0.603137
    24  H    0.360021
    25  C   -0.093740
    26  H    0.220482
    27  C    0.629512
    28  C   -0.042163
    29  H    0.175968
    30  H    0.155314
    31  O   -0.498213
    32  O   -0.616821
    33  H    0.437339
    34  N   -0.607480
    35  H    0.359740
    36  C   -0.114667
    37  H    0.207721
    38  C    0.650851
    39  C   -0.030727
    40  H    0.143450
    41  H    0.146484
    42  O   -0.554917
    43  O   -0.667720
    44  H    0.444241
    45  N   -0.623535
    46  H    0.391079
    47  C   -0.035277
    48  H    0.185677
    49  C    0.633060
    50  C   -0.368892
    51  H    0.198011
    52  H    0.212364
    53  O   -0.600547
    54  C    0.549559
    55  O   -0.611285
    56  O   -0.459102
    57  N   -0.597470
    58  H    0.354094
    59  C   -0.077325
    60  H    0.139970
    61  C    0.587271
    62  C   -0.256991
    63  H    0.164516
    64  H    0.137643
    65  O   -0.614147
    66  C   -0.283474
    67  H    0.174281
    68  H    0.140369
    69  C   -0.188614
    70  H    0.185252
    71  H    0.171285
    72  N   -0.581757
    73  H    0.364528
    74  N   -0.730332
    75  H    0.377230
    76  H    0.385313
    77  N   -0.781722
    78  H    0.406856
    79  H    0.360607
    80  C    0.776453
    81  O   -0.587191
    82  H    0.442989
 Sum of Mulliken charges =   1.00000

 Dipole moment (field-independent basis, Debye):
    X=            -44.1307    Y=             -4.7473    Z=            -12.3971  Tot=             46.0841
 Quadrupole moment (field-independent basis, Debye-Ang):
   XX=           -294.5719   YY=           -203.2549   ZZ=           -105.3830
   XY=             59.7367   XZ=            117.4906   YZ=            -10.1989

 Normal termination of Gaussian 16 at Tue May 17 19:49:05 2022.
