 Gaussian 16, Revision C.01,
 Gaussian 16:  ES64L-G16RevC.01  3-Jul-2019

 ----------------------------------------------------------------------
 # B3LYP/6-31G* empiricaldispersion=gd3 guess=read geom=check nosymm in
 tegral(ultrafinegrid)
 ----------------------------------------------------------------------

 ------------------------------------------------------
 Candidate Structure: Conf:684 Charge calc in gas phase
 ------------------------------------------------------
 Structure from the checkpoint file:  "conf-684.chk"
 Charge =  1 Multiplicity = 1

                          Input orientation:
 ---------------------------------------------------------------------
 Center     Atomic      Atomic             Coordinates (Angstroms)
 Number     Number       Type             X           Y           Z
 ---------------------------------------------------------------------
      1          7           0       -4.672693   -3.280090   -4.407640
      2          1           0       -4.814455   -3.614296   -5.363663
      3          1           0       -3.724263   -3.572703   -4.052646
      4          1           0       -5.391848   -3.678470   -3.779093
      5          6           0       -4.647003   -1.772344   -4.278977
      6          1           0       -4.810434   -1.345798   -5.271680
      7          6           0       -3.200680   -1.474613   -3.813369
      8          6           0       -5.745370   -1.293743   -3.279851
      9          1           0       -5.438871   -0.316837   -2.890050
     10          1           0       -6.673397   -1.134697   -3.837669
     11          8           0       -2.476196   -2.423088   -3.490022
     12          6           0       -5.971055   -2.287619   -2.158714
     13          6           0       -7.136642   -3.072229   -2.147591
     14          1           0       -7.914197   -2.897868   -2.888936
     15          6           0       -4.985343   -2.514531   -1.185062
     16          1           0       -4.067326   -1.935942   -1.179513
     17          6           0       -7.322108   -4.049144   -1.164078
     18          1           0       -8.235215   -4.636906   -1.154755
     19          6           0       -5.168088   -3.494060   -0.209542
     20          1           0       -4.381721   -3.650692    0.521233
     21          6           0       -6.338456   -4.259380   -0.197072
     22          1           0       -6.481049   -5.019778    0.564998
     23          7           0       -2.827517   -0.190015   -3.798253
     24          1           0       -3.502794    0.531637   -4.023561
     25          6           0       -1.489300    0.248964   -3.370876
     26          1           0       -0.823258   -0.608251   -3.508999
     27          6           0       -1.507618    0.633793   -1.870724
     28          6           0       -1.023079    1.408670   -4.264808
     29          1           0       -1.689389    2.266082   -4.125547
     30          1           0       -1.081430    1.080960   -5.313676
     31          8           0       -1.450601    1.798495   -1.499786
     32          8           0        0.270554    1.855860   -3.940584
     33          1           0        0.901305    1.104926   -3.840117
     34          7           0       -1.593653   -0.433550   -1.037144
     35          1           0       -1.625321   -1.379282   -1.405367
     36          6           0       -1.445021   -0.332155    0.415934
     37          1           0       -1.660545    0.700012    0.704126
     38          6           0        0.019350   -0.716467    0.707310
     39          6           0       -2.405843   -1.306363    1.106393
     40          1           0       -3.439165   -0.984287    0.945143
     41          1           0       -2.208685   -1.300857    2.187552
     42          8           0        0.325793   -1.900138    0.893613
     43          8           0       -2.283469   -2.610019    0.553261
     44          1           0       -1.345134   -2.854013    0.709702
     45          7           0        0.918173    0.279118    0.591521
     46          1           0        0.596908    1.238614    0.559068
     47          6           0        2.349651    0.014389    0.539788
     48          1           0        2.468321   -0.988791    0.123149
     49          6           0        2.976412    0.119609    1.947860
     50          6           0        3.036767    1.054926   -0.378731
     51          1           0        3.137246    2.005324    0.152165
     52          1           0        4.030401    0.688254   -0.646805
     53          8           0        2.511839    0.903742    2.772521
     54          6           0        2.210555    1.255922   -1.629650
     55          8           0        1.515561    2.393952   -1.585059
     56          8           0        2.131530    0.434090   -2.537491
     57          7           0        4.076823   -0.631053    2.125471
     58          1           0        4.403458   -1.316207    1.447228
     59          6           0        4.936147   -0.553513    3.301177
     60          1           0        5.100392    0.498651    3.552313
     61          6           0        6.274794   -1.228040    2.898277
     62          6           0        4.243878   -1.262428    4.501304
     63          1           0        4.267950   -2.345763    4.317108
     64          1           0        3.194600   -0.956840    4.452936
     65          8           0        7.305304   -0.878381    3.573513
     66          6           0        4.762696   -0.934100    5.923863
     67          1           0        3.907363   -0.785749    6.593865
     68          1           0        5.305769    0.019757    5.921483
     69          6           0        5.643435   -2.009212    6.579549
     70          1           0        5.833674   -1.743680    7.627770
     71          1           0        5.124524   -2.976178    6.566091
     72          7           0        6.912810   -2.123978    5.858321
     73          1           0        7.111062   -1.347050    5.189184
     74          7           0        7.288502   -4.405624    6.184305
     75          1           0        7.759198   -5.255086    5.910162
     76          1           0        7.002981   -4.343811    7.150249
     77          7           0        8.290692   -3.248968    4.412982
     78          1           0        8.176063   -2.432701    3.772124
     79          1           0        8.823152   -4.060068    4.140843
     80          6           0        7.501991   -3.260683    5.485744
     81          8           0        6.230778   -2.091930    2.007179
     82          1           0        0.903734    2.436938   -2.361758
 ---------------------------------------------------------------------

 SCF Done:  E(RB3LYP) =  -2166.38413527     A.U. after    1 cycles

 Alpha  occ. eigenvalues --  -19.28596 -19.25472 -19.24456 -19.22590 -19.21800
 Alpha  occ. eigenvalues --  -19.21275 -19.20138 -19.15486 -19.13138 -19.12490
 Alpha  occ. eigenvalues --  -14.60301 -14.52235 -14.46085 -14.45694 -14.43929
 Alpha  occ. eigenvalues --  -14.42830 -14.42467 -14.39467 -10.45371 -10.42159
 Alpha  occ. eigenvalues --  -10.40294 -10.39294 -10.39141 -10.37013 -10.35388
 Alpha  occ. eigenvalues --  -10.35099 -10.34262 -10.32926 -10.32358 -10.32149
 Alpha  occ. eigenvalues --  -10.31970 -10.31059 -10.30607 -10.30345 -10.30221
 Alpha  occ. eigenvalues --  -10.30184 -10.29764 -10.29366 -10.29350 -10.26837
 Alpha  occ. eigenvalues --  -10.25790 -10.24644 -10.23203  -1.20901  -1.17116
 Alpha  occ. eigenvalues --   -1.14753  -1.13969  -1.12243  -1.11673  -1.09624
 Alpha  occ. eigenvalues --   -1.09092  -1.08240  -1.08055  -1.07535  -1.06067
 Alpha  occ. eigenvalues --   -1.02282  -1.00237  -0.98728  -0.97816  -0.97402
 Alpha  occ. eigenvalues --   -0.96913  -0.95712  -0.93953  -0.89270  -0.86851
 Alpha  occ. eigenvalues --   -0.85919  -0.85646  -0.84529  -0.83934  -0.80298
 Alpha  occ. eigenvalues --   -0.79165  -0.76638  -0.75850  -0.75161  -0.74640
 Alpha  occ. eigenvalues --   -0.73400  -0.72980  -0.71831  -0.71727  -0.70609
 Alpha  occ. eigenvalues --   -0.70094  -0.69286  -0.67305  -0.66816  -0.66583
 Alpha  occ. eigenvalues --   -0.66112  -0.65047  -0.64516  -0.63929  -0.62821
 Alpha  occ. eigenvalues --   -0.62305  -0.62025  -0.61243  -0.60614  -0.59926
 Alpha  occ. eigenvalues --   -0.59547  -0.58539  -0.58191  -0.57664  -0.57200
 Alpha  occ. eigenvalues --   -0.57108  -0.56885  -0.56385  -0.55536  -0.55354
 Alpha  occ. eigenvalues --   -0.54960  -0.54784  -0.53931  -0.53813  -0.53422
 Alpha  occ. eigenvalues --   -0.53011  -0.52804  -0.52318  -0.52218  -0.51886
 Alpha  occ. eigenvalues --   -0.51701  -0.51588  -0.50810  -0.50282  -0.50013
 Alpha  occ. eigenvalues --   -0.49422  -0.48883  -0.48814  -0.48336  -0.47997
 Alpha  occ. eigenvalues --   -0.47500  -0.46625  -0.46505  -0.45647  -0.45398
 Alpha  occ. eigenvalues --   -0.45226  -0.45094  -0.44938  -0.44668  -0.43825
 Alpha  occ. eigenvalues --   -0.43629  -0.43283  -0.42966  -0.42236  -0.41922
 Alpha  occ. eigenvalues --   -0.41537  -0.40900  -0.39795  -0.39158  -0.38576
 Alpha  occ. eigenvalues --   -0.38095  -0.38011  -0.36902  -0.36534  -0.36364
 Alpha  occ. eigenvalues --   -0.36108  -0.35692  -0.35080  -0.34679  -0.33883
 Alpha  occ. eigenvalues --   -0.32815  -0.32567  -0.29996  -0.29537  -0.28406
 Alpha  occ. eigenvalues --   -0.27379  -0.26709
 Alpha virt. eigenvalues --   -0.14521  -0.12518  -0.11869  -0.10531  -0.09541
 Alpha virt. eigenvalues --   -0.06914  -0.06285  -0.04996  -0.04924  -0.04819
 Alpha virt. eigenvalues --   -0.03544  -0.01866  -0.01822  -0.01417  -0.01192

 Mulliken charges:
               1
     1  N   -0.756754
     2  H    0.413618
     3  H    0.438079
     4  H    0.412041
     5  C   -0.100841
     6  H    0.218998
     7  C    0.653336
     8  C   -0.376020
     9  H    0.200631
    10  H    0.193064
    11  O   -0.531460
    12  C    0.081765
    13  C   -0.210464
    14  H    0.149683
    15  C   -0.191203
    16  H    0.161620
    17  C   -0.118680
    18  H    0.166460
    19  C   -0.133017
    20  H    0.200048
    21  C   -0.126102
    22  H    0.168494
    23  N   -0.595545
    24  H    0.358114
    25  C   -0.140422
    26  H    0.213628
    27  C    0.639262
    28  C   -0.003176
    29  H    0.169298
    30  H    0.146026
    31  O   -0.507186
    32  O   -0.640339
    33  H    0.430199
    34  N   -0.604960
    35  H    0.362444
    36  C   -0.102506
    37  H    0.193255
    38  C    0.647283
    39  C   -0.046346
    40  H    0.148835
    41  H    0.165859
    42  O   -0.545606
    43  O   -0.649628
    44  H    0.431056
    45  N   -0.594239
    46  H    0.365806
    47  C   -0.064311
    48  H    0.190898
    49  C    0.634918
    50  C   -0.361665
    51  H    0.201242
    52  H    0.203474
    53  O   -0.544182
    54  C    0.593034
    55  O   -0.579112
    56  O   -0.517488
    57  N   -0.612921
    58  H    0.350418
    59  C   -0.025099
    60  H    0.164170
    61  C    0.585588
    62  C   -0.276852
    63  H    0.139280
    64  H    0.176885
    65  O   -0.646114
    66  C   -0.301566
    67  H    0.156953
    68  H    0.170479
    69  C   -0.148482
    70  H    0.161952
    71  H    0.158434
    72  N   -0.605852
    73  H    0.404112
    74  N   -0.757399
    75  H    0.359836
    76  H    0.367447
    77  N   -0.764981
    78  H    0.419357
    79  H    0.345588
    80  C    0.768605
    81  O   -0.560771
    82  H    0.459719
 Sum of Mulliken charges =   1.00000

 Dipole moment (field-independent basis, Debye):
    X=            -15.0931    Y=            -17.3515    Z=             -8.0854  Tot=             24.3773
 Quadrupole moment (field-independent basis, Debye-Ang):
   XX=            -73.3887   YY=           -181.3037   ZZ=            -85.0511
   XY=             -0.9094   XZ=            158.8528   YZ=            -15.4144

 Normal termination of Gaussian 16 at Tue May 17 19:49:06 2022.
