 Gaussian 16, Revision C.01,
 Gaussian 16:  ES64L-G16RevC.01  3-Jul-2019

 ----------------------------------------------------------------------
 # B3LYP/6-31G** empiricaldispersion=gd3bj guess=read geom=check nosymm
  integral(ultrafinegrid)
 ----------------------------------------------------------------------

 ------------------------------------------------------
 Candidate Structure: Conf:232 Charge calc in gas phase
 ------------------------------------------------------
 Structure from the checkpoint file:  "conf-232.chk"
 Charge =  1 Multiplicity = 1

                          Input orientation:
 ---------------------------------------------------------------------
 Center     Atomic      Atomic             Coordinates (Angstroms)
 Number     Number       Type             X           Y           Z
 ---------------------------------------------------------------------
      1          7           0      -12.577158   -7.472696   -8.321785
      2          1           0      -12.555418   -6.488709   -8.695072
      3          1           0      -12.007051   -8.074305   -8.951867
      4          1           0      -13.529600   -7.822905   -8.224413
      5          6           0      -11.826286   -7.352993   -7.029612
      6          1           0      -12.539503   -7.121946   -6.233122
      7          6           0      -10.977540   -6.081811   -7.262148
      8          6           0      -11.064924   -8.631804   -6.672121
      9          1           0      -10.498637   -8.500671   -5.748043
     10          1           0      -11.767565   -9.451526   -6.478028
     11          8           0      -11.363902   -5.328382   -8.162168
     12          6           0      -10.161019   -9.066590   -7.806249
     13          8           0      -10.447677   -8.873527   -8.978738
     14          8           0       -9.070984   -9.694301   -7.401238
     15          7           0       -9.951655   -5.890440   -6.456248
     16          1           0       -9.689215   -6.539412   -5.713710
     17          6           0       -9.137340   -4.686248   -6.401101
     18          1           0       -8.673281   -4.505676   -7.377536
     19          6           0       -8.058872   -5.031804   -5.356573
     20          6           0       -9.967810   -3.437999   -6.003483
     21          1           0      -10.656325   -3.228735   -6.825396
     22          1           0       -9.287132   -2.584205   -5.932567
     23          8           0       -8.123603   -6.096034   -4.738527
     24          6           0      -10.732829   -3.650552   -4.722644
     25          6           0      -12.047271   -4.136705   -4.764003
     26          1           0      -12.531892   -4.266985   -5.728820
     27          6           0      -10.151180   -3.435725   -3.469178
     28          1           0       -9.140040   -3.046197   -3.403613
     29          6           0      -12.755263   -4.419105   -3.601507
     30          1           0      -13.778700   -4.776575   -3.632629
     31          6           0      -10.847251   -3.711535   -2.294694
     32          1           0      -10.377815   -3.532176   -1.330966
     33          8           0      -12.887076   -4.508878   -1.251670
     34          1           0      -12.383707   -4.291457   -0.456584
     35          6           0      -12.151445   -4.211953   -2.356464
     36          7           0       -7.123995   -4.098422   -5.144003
     37          1           0       -7.058037   -3.262124   -5.712621
     38          6           0       -6.084401   -4.241346   -4.131171
     39          1           0       -6.514135   -4.793839   -3.293238
     40          6           0       -5.671259   -2.823184   -3.738230
     41          6           0       -4.834954   -4.997783   -4.629794
     42          1           0       -4.385117   -4.439517   -5.456560
     43          1           0       -5.155754   -5.966082   -5.024419
     44          8           0       -5.527796   -1.940828   -4.583197
     45          6           0       -3.883102   -5.159560   -3.467108
     46          6           0       -2.954461   -4.157102   -3.137327
     47          1           0       -2.883584   -3.263458   -3.750212
     48          6           0       -3.948373   -6.291539   -2.649979
     49          1           0       -4.658536   -7.080148   -2.884601
     50          6           0       -2.122902   -4.285665   -2.034132
     51          1           0       -1.409735   -3.517856   -1.761139
     52          6           0       -3.116009   -6.432353   -1.540601
     53          1           0       -3.177166   -7.324362   -0.922402
     54          8           0       -1.353205   -5.490503   -0.166705
     55          1           0       -1.485079   -6.321471    0.306982
     56          6           0       -2.197779   -5.425761   -1.228904
     57          7           0       -5.504646   -2.652138   -2.409967
     58          1           0       -5.405426   -3.479396   -1.836486
     59          6           0       -4.971660   -1.418745   -1.850727
     60          1           0       -5.299598   -0.603860   -2.499096
     61          6           0       -3.435944   -1.515326   -1.863709
     62          6           0       -5.524363   -1.197528   -0.432662
     63          1           0       -6.601324   -1.386564   -0.470474
     64          1           0       -5.067555   -1.935774    0.235467
     65          8           0       -2.834280   -2.289609   -1.118400
     66          6           0       -5.259523    0.204594    0.067698
     67          6           0       -3.968962    0.578222    0.458654
     68          1           0       -3.184098   -0.167610    0.469590
     69          6           0       -6.268340    1.172605    0.072329
     70          1           0       -7.276631    0.898173   -0.226990
     71          6           0       -3.683437    1.889213    0.833740
     72          1           0       -2.672068    2.158502    1.126131
     73          6           0       -5.991567    2.484353    0.460210
     74          1           0       -6.787127    3.223097    0.465938
     75          6           0       -4.697415    2.847113    0.836131
     76          1           0       -4.481113    3.868584    1.132043
     77          7           0       -2.825315   -0.707416   -2.758154
     78          1           0       -3.395152   -0.089037   -3.317138
     79          6           0       -1.369749   -0.638487   -2.922079
     80          1           0       -0.992203   -1.654599   -2.809264
     81          6           0       -0.774374    0.204834   -1.774942
     82          6           0       -1.026306   -0.075268   -4.290762
     83          1           0        0.054471   -0.090569   -4.442991
     84          1           0       -1.500091   -0.670830   -5.075551
     85          1           0       -1.355186    0.963990   -4.365423
     86          8           0       -0.508863    1.397400   -1.911814
     87          7           0       -0.586382   -0.494835   -0.630436
     88          1           0       -1.005398   -1.419993   -0.567709
     89          6           0       -0.138896    0.169556    0.593203
     90          1           0       -0.585458    1.165086    0.593167
     91          6           0        1.389582    0.344934    0.563645
     92          6           0       -0.587425   -0.619340    1.820915
     93          1           0       -1.675974   -0.747674    1.760334
     94          1           0       -0.129214   -1.613016    1.770479
     95          8           0        2.152816   -0.423294    1.138566
     96          6           0       -0.234122    0.008278    3.181796
     97          1           0        0.855794   -0.022282    3.283008
     98          6           0       -0.672395    1.471503    3.292160
     99          1           0       -1.744389    1.587195    3.080365
    100          1           0       -0.495089    1.846035    4.305661
    101          1           0       -0.103520    2.111584    2.616075
    102          6           0       -0.844887   -0.842170    4.300458
    103          1           0       -1.940776   -0.823470    4.252204
    104          1           0       -0.548507   -0.466516    5.284685
    105          1           0       -0.522660   -1.886243    4.228756
    106          7           0        1.815452    1.412030   -0.158259
    107          1           0        1.121733    1.989391   -0.616342
    108          6           0        3.178346    1.871178   -0.037931
    109          1           0        3.839095    1.013757   -0.208993
    110          6           0        3.422334    2.370751    1.404167
    111          6           0        3.466820    2.976920   -1.054352
    112          1           0        4.504880    3.308393   -0.981626
    113          1           0        2.820698    3.841362   -0.869880
    114          1           0        3.286885    2.616236   -2.070636
    115          8           0        2.503877    2.679954    2.157736
    116          7           0        4.726059    2.460010    1.749799
    117          1           0        5.463762    2.129364    1.140680
    118          6           0        5.149737    2.767627    3.098082
    119          1           0        4.673052    3.702205    3.416943
    120          6           0        6.668224    2.916504    3.058838
    121          6           0        4.726475    1.650736    4.101115
    122          1           0        3.643538    1.559126    4.002316
    123          1           0        4.933603    1.990741    5.122368
    124          8           0        7.319201    2.674155    2.042835
    125          6           0        5.367338    0.327820    3.847115
    126          6           0        5.014268   -0.699116    2.999750
    127          1           0        4.143365   -0.745337    2.359401
    128          7           0        6.549854   -0.089842    4.435127
    129          1           0        7.130482    0.414908    5.095289
    130          6           0        6.841349   -1.322503    3.929140
    131          1           0        7.707893   -1.882927    4.249727
    132          7           0        5.938447   -1.722141    3.056134
    133          7           0        7.248201    3.215166    4.242904
    134          1           0        6.722541    3.649761    4.989142
    135          6           0        8.694230    3.200897    4.382574
    136          1           0        9.149587    3.728956    3.535296
    137          6           0        9.171700    1.738038    4.394266
    138          6           0        9.092896    3.868709    5.711426
    139          1           0        8.823709    3.172033    6.508943
    140          8           0        9.138736    1.085379    5.445536
    141          6           0       10.591274    4.136919    5.753401
    142          1           0       11.145783    3.210244    5.551322
    143          1           0       10.872458    4.872011    4.988209
    144          1           0       10.879576    4.538866    6.728135
    145          8           0        8.310325    5.038550    5.949910
    146          1           0        8.562391    5.699335    5.290252
    147          7           0        9.517057    1.210391    3.218197
    148          1           0        9.416199    1.777706    2.389516
    149          6           0       10.270073   -0.025611    3.138502
    150          1           0        9.691210   -0.799378    3.652133
    151          6           0       11.637788    0.118839    3.859777
    152          6           0       10.446535   -0.418573    1.648394
    153          1           0       11.005460    0.397364    1.168109
    154          8           0       12.226206    1.199251    3.956481
    155          6           0       11.259291   -1.708778    1.472909
    156          1           0       10.765706   -2.560966    1.952324
    157          1           0       12.270340   -1.623049    1.886472
    158          1           0       11.353806   -1.940882    0.407930
    159          6           0        9.073750   -0.563561    0.970602
    160          1           0        8.528915   -1.417149    1.388882
    161          1           0        9.201108   -0.736840   -0.102582
    162          1           0        8.434699    0.313395    1.098427
    163          7           0       12.095394   -1.032503    4.364909
    164          1           0       11.761059   -1.959005    4.075773
    165          6           0       13.430773   -1.221555    4.894532
    166          1           0       14.133362   -0.575294    4.352663
    167          6           0       13.790959   -2.736849    4.630167
    168          6           0       13.593733   -0.953809    6.392305
    169          1           0       12.986775   -1.677101    6.953717
    170          1           0       14.643085   -1.195390    6.592711
    171          8           0       14.895793   -3.085615    5.076284
    172          6           0       13.260981    0.465721    6.846620
    173          1           0       12.194582    0.687286    6.767405
    174          1           0       13.738731    1.177653    6.163882
    175          6           0       13.687093    0.701354    8.294934
    176          1           0       13.108228    0.078903    8.980452
    177          1           0       13.544222    1.739338    8.612901
    178          7           0       15.106498    0.337279    8.529831
    179          1           0       15.272816   -0.639268    8.737164
    180          7           0       15.929333    2.126134    7.297775
    181          1           0       16.703000    2.703437    7.003103
    182          1           0       15.009074    2.343112    6.936353
    183          7           0       17.386533    0.518990    8.143882
    184          1           0       18.164134    0.924003    7.645309
    185          1           0       17.583742   -0.242936    8.775974
    186          6           0       16.130351    0.983765    7.982925
    187          8           0       12.895928   -3.391635    4.033825
    188          1           0       -8.565721   -9.981309   -8.183649
 ---------------------------------------------------------------------

 SCF Done:  E(RB3LYP) =  -4648.99650484     A.U. after    1 cycles

 Alpha  occ. eigenvalues --  -19.34617 -19.29742 -19.26539 -19.25715 -19.22589
 Alpha  occ. eigenvalues --  -19.22429 -19.20279 -19.18826 -19.18682 -19.16413
 Alpha  occ. eigenvalues --  -19.16019 -19.13675 -19.13650 -19.13526 -19.10606
 Alpha  occ. eigenvalues --  -19.03740 -19.02895 -14.58185 -14.49324 -14.48306
 Alpha  occ. eigenvalues --  -14.48012 -14.47417 -14.46143 -14.44334 -14.43308
 Alpha  occ. eigenvalues --  -14.40110 -14.39875 -14.38020 -14.37825 -14.37495
 Alpha  occ. eigenvalues --  -14.37449 -14.32833 -14.30311 -10.47966 -10.44274
 Alpha  occ. eigenvalues --  -10.43489 -10.41352 -10.39427 -10.37048 -10.36737
 Alpha  occ. eigenvalues --  -10.35422 -10.34929 -10.33275 -10.33132 -10.32575
 Alpha  occ. eigenvalues --  -10.31777 -10.30648 -10.30460 -10.30457 -10.30441
 Alpha  occ. eigenvalues --  -10.30050 -10.29656 -10.29201 -10.29200 -10.27864
 Alpha  occ. eigenvalues --  -10.27781 -10.27622 -10.27349 -10.27293 -10.27253
 Alpha  occ. eigenvalues --  -10.27022 -10.26483 -10.26377 -10.26192 -10.25907
 Alpha  occ. eigenvalues --  -10.25668 -10.25605 -10.24829 -10.24631 -10.24559
 Alpha  occ. eigenvalues --  -10.24190 -10.24075 -10.23716 -10.23639 -10.23534
 Alpha  occ. eigenvalues --  -10.23284 -10.23228 -10.23210 -10.23162 -10.23117
 Alpha  occ. eigenvalues --  -10.23020 -10.22521 -10.21744 -10.21736 -10.21700
 Alpha  occ. eigenvalues --  -10.21383 -10.21082 -10.21008 -10.20426 -10.20099
 Alpha  occ. eigenvalues --  -10.19405 -10.19252 -10.19130 -10.18720 -10.18479
 Alpha  occ. eigenvalues --  -10.17271 -10.16635  -1.26248  -1.19494  -1.17367
 Alpha  occ. eigenvalues --   -1.14840  -1.13967  -1.12836  -1.12630  -1.12268
 Alpha  occ. eigenvalues --   -1.10981  -1.10717  -1.08180  -1.08127  -1.06533
 Alpha  occ. eigenvalues --   -1.06284  -1.06029  -1.05498  -1.04910  -1.02753
 Alpha  occ. eigenvalues --   -1.02114  -1.01684  -1.01170  -1.00923  -1.00291
 Alpha  occ. eigenvalues --   -0.99573  -0.97075  -0.96636  -0.96371  -0.95542
 Alpha  occ. eigenvalues --   -0.94799  -0.94454  -0.94289  -0.94063  -0.91343
 Alpha  occ. eigenvalues --   -0.90469  -0.90417  -0.89578  -0.88132  -0.86851
 Alpha  occ. eigenvalues --   -0.85963  -0.85317  -0.85114  -0.84452  -0.83900
 Alpha  occ. eigenvalues --   -0.83329  -0.82634  -0.82596  -0.82532  -0.81084
 Alpha  occ. eigenvalues --   -0.80323  -0.80171  -0.79900  -0.79228  -0.78918
 Alpha  occ. eigenvalues --   -0.78112  -0.77417  -0.77126  -0.76985  -0.76439
 Alpha  occ. eigenvalues --   -0.75231  -0.74462  -0.74282  -0.73475  -0.73102
 Alpha  occ. eigenvalues --   -0.72472  -0.71887  -0.71239  -0.70801  -0.70685
 Alpha  occ. eigenvalues --   -0.70220  -0.70092  -0.69808  -0.69098  -0.69024
 Alpha  occ. eigenvalues --   -0.68676  -0.68099  -0.68004  -0.67879  -0.67566
 Alpha  occ. eigenvalues --   -0.67178  -0.66502  -0.66152  -0.65898  -0.65843
 Alpha  occ. eigenvalues --   -0.65505  -0.65119  -0.64922  -0.64480  -0.63292
 Alpha  occ. eigenvalues --   -0.63275  -0.63054  -0.62811  -0.62553  -0.62324
 Alpha  occ. eigenvalues --   -0.62074  -0.61400  -0.61286  -0.60821  -0.60562
 Alpha  occ. eigenvalues --   -0.60479  -0.60319  -0.60082  -0.60031  -0.59674
 Alpha  occ. eigenvalues --   -0.59623  -0.59133  -0.58273  -0.57874  -0.57712
 Alpha  occ. eigenvalues --   -0.57593  -0.57212  -0.56928  -0.56667  -0.56438
 Alpha  occ. eigenvalues --   -0.56353  -0.55890  -0.55745  -0.55411  -0.55129
 Alpha  occ. eigenvalues --   -0.55062  -0.55026  -0.54565  -0.54359  -0.54300
 Alpha  occ. eigenvalues --   -0.54095  -0.53999  -0.53872  -0.53777  -0.53433
 Alpha  occ. eigenvalues --   -0.52910  -0.52768  -0.52374  -0.52319  -0.52185
 Alpha  occ. eigenvalues --   -0.52117  -0.51663  -0.51114  -0.51055  -0.50808
 Alpha  occ. eigenvalues --   -0.50670  -0.50532  -0.50021  -0.49947  -0.49891
 Alpha  occ. eigenvalues --   -0.49742  -0.49479  -0.49221  -0.49084  -0.48644
 Alpha  occ. eigenvalues --   -0.48604  -0.48547  -0.48255  -0.48232  -0.47861
 Alpha  occ. eigenvalues --   -0.47602  -0.47514  -0.47391  -0.47072  -0.46958
 Alpha  occ. eigenvalues --   -0.46779  -0.46728  -0.46425  -0.46133  -0.45834
 Alpha  occ. eigenvalues --   -0.45816  -0.45741  -0.45471  -0.45324  -0.45242
 Alpha  occ. eigenvalues --   -0.45106  -0.44967  -0.44762  -0.44681  -0.44437
 Alpha  occ. eigenvalues --   -0.44232  -0.44168  -0.43973  -0.43820  -0.43720
 Alpha  occ. eigenvalues --   -0.43656  -0.43400  -0.43362  -0.43030  -0.42817
 Alpha  occ. eigenvalues --   -0.42585  -0.42549  -0.42460  -0.42263  -0.42079
 Alpha  occ. eigenvalues --   -0.41961  -0.41843  -0.41515  -0.41419  -0.41317
 Alpha  occ. eigenvalues --   -0.41278  -0.41241  -0.41191  -0.41025  -0.40938
 Alpha  occ. eigenvalues --   -0.40818  -0.40381  -0.40203  -0.40100  -0.39967
 Alpha  occ. eigenvalues --   -0.39906  -0.39594  -0.39450  -0.39328  -0.39276
 Alpha  occ. eigenvalues --   -0.39155  -0.39034  -0.38998  -0.38762  -0.38429
 Alpha  occ. eigenvalues --   -0.38397  -0.38339  -0.38282  -0.37845  -0.37679
 Alpha  occ. eigenvalues --   -0.37566  -0.36908  -0.36720  -0.36547  -0.36138
 Alpha  occ. eigenvalues --   -0.35906  -0.35875  -0.35669  -0.35247  -0.34838
 Alpha  occ. eigenvalues --   -0.34675  -0.34326  -0.34146  -0.33977  -0.33913
 Alpha  occ. eigenvalues --   -0.33778  -0.33664  -0.33508  -0.33120  -0.32616
 Alpha  occ. eigenvalues --   -0.31979  -0.31739  -0.31296  -0.31019  -0.30574
 Alpha  occ. eigenvalues --   -0.30187  -0.30039  -0.29911  -0.29492  -0.29105
 Alpha  occ. eigenvalues --   -0.28930  -0.28325  -0.27931  -0.27649  -0.26985
 Alpha  occ. eigenvalues --   -0.26812  -0.26627  -0.26605  -0.26477  -0.25653
 Alpha  occ. eigenvalues --   -0.24509  -0.24094  -0.21777  -0.19092  -0.18646
 Alpha  occ. eigenvalues --   -0.17304
 Alpha virt. eigenvalues --   -0.14605  -0.12538  -0.09385  -0.08488  -0.08405
 Alpha virt. eigenvalues --   -0.08122  -0.07529  -0.07013  -0.06144  -0.04946
 Alpha virt. eigenvalues --   -0.04889  -0.04813  -0.04496  -0.04375  -0.04222

 Mulliken charges:
               1
     1  N   -0.549144
     2  H    0.366034
     3  H    0.371464
     4  H    0.339536
     5  C   -0.106078
     6  H    0.197544
     7  C    0.673374
     8  C   -0.296831
     9  H    0.194967
    10  H    0.186159
    11  O   -0.551185
    12  C    0.627847
    13  O   -0.485695
    14  O   -0.438256
    15  N   -0.537384
    16  H    0.306650
    17  C   -0.004407
    18  H    0.155088
    19  C    0.625752
    20  C   -0.274934
    21  H    0.150001
    22  H    0.128320
    23  O   -0.552948
    24  C    0.115089
    25  C   -0.149863
    26  H    0.076159
    27  C   -0.122200
    28  H    0.095917
    29  C   -0.107404
    30  H    0.100584
    31  C   -0.127949
    32  H    0.092412
    33  O   -0.547878
    34  H    0.326662
    35  C    0.333917
    36  N   -0.545077
    37  H    0.287524
    38  C    0.012711
    39  H    0.135679
    40  C    0.593040
    41  C   -0.234815
    42  H    0.122285
    43  H    0.118787
    44  O   -0.552020
    45  C    0.071929
    46  C   -0.156719
    47  H    0.092082
    48  C   -0.142379
    49  H    0.081675
    50  C   -0.029647
    51  H    0.109070
    52  C   -0.131194
    53  H    0.081097
    54  O   -0.546596
    55  H    0.321092
    56  C    0.317432
    57  N   -0.505547
    58  H    0.285785
    59  C   -0.004744
    60  H    0.130544
    61  C    0.641042
    62  C   -0.259808
    63  H    0.100337
    64  H    0.134495
    65  O   -0.560962
    66  C    0.103701
    67  C   -0.126086
    68  H    0.099441
    69  C   -0.125096
    70  H    0.073762
    71  C   -0.085824
    72  H    0.106850
    73  C   -0.082974
    74  H    0.091818
    75  C   -0.087370
    76  H    0.098194
    77  N   -0.504944
    78  H    0.282762
    79  C   -0.031708
    80  H    0.138179
    81  C    0.626322
    82  C   -0.335686
    83  H    0.138254
    84  H    0.112498
    85  H    0.139102
    86  O   -0.539779
    87  N   -0.544816
    88  H    0.302472
    89  C   -0.025478
    90  H    0.126102
    91  C    0.642917
    92  C   -0.192776
    93  H    0.086366
    94  H    0.121356
    95  O   -0.523304
    96  C   -0.067457
    97  H    0.132888
    98  C   -0.330352
    99  H    0.085063
   100  H    0.099801
   101  H    0.129625
   102  C   -0.312551
   103  H    0.089855
   104  H    0.100962
   105  H    0.102421
   106  N   -0.516633
   107  H    0.284489
   108  C   -0.014477
   109  H    0.138471
   110  C    0.627607
   111  C   -0.336080
   112  H    0.123536
   113  H    0.121067
   114  H    0.124994
   115  O   -0.543131
   116  N   -0.532132
   117  H    0.285413
   118  C    0.011176
   119  H    0.130276
   120  C    0.613318
   121  C   -0.257324
   122  H    0.164182
   123  H    0.092609
   124  O   -0.545248
   125  C    0.268636
   126  C   -0.040740
   127  H    0.124746
   128  N   -0.536997
   129  H    0.274580
   130  C    0.255700
   131  H    0.115625
   132  N   -0.457440
   133  N   -0.539587
   134  H    0.279170
   135  C   -0.013681
   136  H    0.106984
   137  C    0.640546
   138  C    0.151800
   139  H    0.134102
   140  O   -0.581608
   141  C   -0.349353
   142  H    0.154161
   143  H    0.094702
   144  H    0.105807
   145  O   -0.555437
   146  H    0.304019
   147  N   -0.500645
   148  H    0.281847
   149  C    0.030091
   150  H    0.118143
   151  C    0.594599
   152  C   -0.096669
   153  H    0.088460
   154  O   -0.592836
   155  C   -0.320578
   156  H    0.123422
   157  H    0.134118
   158  H    0.093008
   159  C   -0.327312
   160  H    0.130785
   161  H    0.094131
   162  H    0.110207
   163  N   -0.508739
   164  H    0.287239
   165  C   -0.030735
   166  H    0.088203
   167  C    0.577551
   168  C   -0.168188
   169  H    0.099950
   170  H    0.087479
   171  O   -0.608233
   172  C   -0.216358
   173  H    0.156751
   174  H    0.107573
   175  C   -0.108711
   176  H    0.151287
   177  H    0.130616
   178  N   -0.502023
   179  H    0.306817
   180  N   -0.608153
   181  H    0.307195
   182  H    0.322443
   183  N   -0.621627
   184  H    0.312676
   185  H    0.317386
   186  C    0.810441
   187  O   -0.610799
   188  H    0.358412
 Sum of Mulliken charges =   1.00000

 Dipole moment (field-independent basis, Debye):
    X=            -35.0824    Y=            -16.8198    Z=            -16.3529  Tot=             42.2030
 Quadrupole moment (field-independent basis, Debye-Ang):
   XX=            371.2910   YY=           -312.7812   ZZ=           -182.7962
   XY=            581.2985   XZ=            593.8876   YZ=            298.5451

 Normal termination of Gaussian 16 at Fri Sep  9 20:44:15 2022.
