 Gaussian 16, Revision C.01,
 Gaussian 16:  ES64L-G16RevC.01  3-Jul-2019

 ----------------------------------------------------------------------
 # B3LYP/6-31G** empiricaldispersion=gd3bj guess=read geom=check nosymm
  integral(ultrafinegrid)
 ----------------------------------------------------------------------

 ------------------------------------------------------
 Candidate Structure: Conf:647 Charge calc in gas phase
 ------------------------------------------------------
 Structure from the checkpoint file:  "conf-647.chk"
 Charge =  1 Multiplicity = 1

                          Input orientation:
 ---------------------------------------------------------------------
 Center     Atomic      Atomic             Coordinates (Angstroms)
 Number     Number       Type             X           Y           Z
 ---------------------------------------------------------------------
      1          7           0        0.567191   -6.113188   -0.484405
      2          1           0        0.687614   -5.084904   -0.435573
      3          1           0        0.079338   -6.392799    0.382029
      4          1           0        1.474178   -6.600748   -0.619614
      5          6           0       -0.348265   -6.493664   -1.613342
      6          1           0       -0.061232   -5.888420   -2.475039
      7          6           0       -1.750450   -6.126314   -1.087224
      8          6           0       -0.238005   -7.993265   -1.911563
      9          1           0       -0.625961   -8.567333   -1.060026
     10          1           0       -0.866519   -8.241987   -2.769274
     11          8           0       -1.967461   -6.273541    0.115791
     12          6           0        1.186694   -8.445029   -2.167966
     13          8           0        2.168621   -7.909195   -1.675225
     14          8           0        1.247946   -9.507254   -2.962010
     15          7           0       -2.613594   -5.642033   -1.984222
     16          1           0       -2.335143   -5.465554   -2.947724
     17          6           0       -3.750740   -4.827042   -1.589168
     18          1           0       -4.403223   -5.410085   -0.934879
     19          6           0       -4.458243   -4.470426   -2.902765
     20          6           0       -3.308662   -3.504429   -0.839633
     21          1           0       -3.614810   -3.579913    0.205208
     22          1           0       -3.845471   -2.663600   -1.289454
     23          8           0       -3.834080   -4.459382   -3.959895
     24          6           0       -1.827449   -3.220026   -0.912868
     25          6           0       -1.033360   -3.238073    0.236454
     26          1           0       -1.490932   -3.448568    1.198207
     27          6           0       -1.207713   -2.963587   -2.147748
     28          1           0       -1.812396   -2.933377   -3.047140
     29          6           0        0.342424   -2.978427    0.175520
     30          1           0        0.941226   -2.909658    1.077948
     31          6           0        0.158617   -2.718293   -2.225852
     32          1           0        0.627597   -2.491337   -3.177655
     33          8           0        2.271329   -2.409898   -1.113755
     34          1           0        2.345901   -1.512677   -1.506981
     35          6           0        0.941920   -2.696134   -1.059624
     36          7           0       -5.760284   -4.117745   -2.790888
     37          1           0       -6.240338   -4.290314   -1.918254
     38          6           0       -6.555244   -3.703299   -3.950620
     39          1           0       -6.355704   -4.380192   -4.783902
     40          6           0       -6.142789   -2.311094   -4.449942
     41          6           0       -8.050783   -3.741334   -3.568948
     42          1           0       -8.193319   -3.130651   -2.668708
     43          1           0       -8.303029   -4.775195   -3.305214
     44          8           0       -6.011547   -2.063833   -5.634646
     45          6           0       -8.952491   -3.241232   -4.669369
     46          6           0       -9.354162   -1.900181   -4.711169
     47          1           0       -9.033982   -1.223149   -3.924217
     48          6           0       -9.370127   -4.091543   -5.696200
     49          1           0       -9.073993   -5.137248   -5.684773
     50          6           0      -10.148003   -1.417169   -5.743541
     51          1           0      -10.465316   -0.380971   -5.776150
     52          6           0      -10.165643   -3.623384   -6.738513
     53          1           0      -10.485448   -4.299586   -7.527332
     54          8           0      -11.334366   -1.756095   -7.752532
     55          1           0      -11.550933   -2.445713   -8.393787
     56          6           0      -10.556211   -2.280539   -6.765907
     57          7           0       -6.022433   -1.353105   -3.467663
     58          1           0       -5.812230   -1.697821   -2.540615
     59          6           0       -5.395912   -0.095709   -3.824435
     60          1           0       -5.872510    0.249212   -4.744212
     61          6           0       -3.900421   -0.325785   -4.091883
     62          6           0       -5.590419    0.951633   -2.707386
     63          1           0       -6.666603    1.106589   -2.577949
     64          1           0       -5.199781    0.543036   -1.768173
     65          8           0       -3.268805   -1.165579   -3.432822
     66          6           0       -4.877003    2.241256   -3.040065
     67          6           0       -3.717774    2.614566   -2.353415
     68          1           0       -3.385853    2.021519   -1.507068
     69          6           0       -5.304320    3.027935   -4.118416
     70          1           0       -6.216814    2.765279   -4.648400
     71          6           0       -2.983969    3.733923   -2.746114
     72          1           0       -2.089157    4.012575   -2.199372
     73          6           0       -4.567275    4.142603   -4.519935
     74          1           0       -4.908370    4.741358   -5.358645
     75          6           0       -3.398901    4.492225   -3.840157
     76          1           0       -2.821839    5.354916   -4.155384
     77          7           0       -3.344425    0.441114   -5.045355
     78          1           0       -3.895939    1.194585   -5.434309
     79          6           0       -1.935955    0.370555   -5.440512
     80          1           0       -1.665780   -0.690709   -5.433404
     81          6           0       -1.054992    1.096495   -4.403258
     82          6           0       -1.761547    0.966201   -6.829442
     83          1           0       -0.722757    0.873859   -7.151498
     84          1           0       -2.403167    0.448887   -7.546412
     85          1           0       -2.004304    2.031889   -6.816990
     86          8           0       -0.539661    2.192557   -4.621903
     87          7           0       -0.902809    0.420197   -3.236885
     88          1           0       -1.507680   -0.384389   -3.082528
     89          6           0       -0.310243    1.088850   -2.084484
     90          1           0       -0.594286    2.142413   -2.148230
     91          6           0        1.224828    1.046945   -2.162686
     92          6           0       -0.836059    0.495921   -0.779561
     93          1           0       -1.931653    0.536702   -0.827074
     94          1           0       -0.562293   -0.558393   -0.729034
     95          8           0        1.910777    0.208300   -1.542089
     96          6           0       -0.353117    1.200914    0.499729
     97          1           0        0.723067    1.023651    0.588898
     98          6           0       -0.585461    2.717139    0.471451
     99          1           0       -1.636787    2.953687    0.263345
    100          1           0       -0.339027    3.157998    1.442206
    101          1           0        0.042981    3.217966   -0.270766
    102          6           0       -1.024051    0.556167    1.717231
    103          1           0       -2.107625    0.726702    1.704983
    104          1           0       -0.629809    0.974397    2.647629
    105          1           0       -0.852849   -0.525059    1.736283
    106          7           0        1.783331    2.014938   -2.894344
    107          1           0        1.154860    2.627372   -3.406809
    108          6           0        3.185959    2.379652   -2.726896
    109          1           0        3.795498    1.478216   -2.839154
    110          6           0        3.323419    2.946547   -1.295461
    111          6           0        3.576815    3.435454   -3.757485
    112          1           0        4.633160    3.693419   -3.651625
    113          1           0        2.986475    4.342627   -3.601050
    114          1           0        3.408403    3.066366   -4.772503
    115          8           0        2.523209    3.781677   -0.878655
    116          7           0        4.335672    2.446915   -0.558811
    117          1           0        5.021777    1.801361   -0.935641
    118          6           0        4.584741    2.862363    0.809066
    119          1           0        4.671926    3.955291    0.847477
    120          6           0        5.922227    2.227349    1.207549
    121          6           0        3.437456    2.428584    1.765559
    122          1           0        2.503829    2.780134    1.318353
    123          1           0        3.543505    2.959842    2.716049
    124          8           0        6.578683    1.567311    0.387830
    125          6           0        3.435124    0.964329    2.044623
    126          6           0        3.781188    0.257129    3.175103
    127          1           0        4.064522    0.661088    4.136264
    128          7           0        3.185278   -0.000203    1.085182
    129          1           0        2.875103    0.168895    0.133277
    130          6           0        3.387693   -1.218540    1.670887
    131          1           0        3.279385   -2.136015    1.113167
    132          7           0        3.748742   -1.100683    2.935101
    133          7           0        6.309876    2.406573    2.476903
    134          1           0        5.712592    2.855423    3.165251
    135          6           0        7.370698    1.614747    3.079612
    136          1           0        7.399456    0.638125    2.580463
    137          6           0        6.961060    1.434098    4.552760
    138          6           0        8.742148    2.307186    2.882181
    139          1           0        8.680599    3.287132    3.377617
    140          8           0        6.141565    2.200793    5.063260
    141          6           0        9.915237    1.527313    3.478166
    142          1           0        9.869445    1.479434    4.568940
    143          1           0        9.944185    0.507407    3.073916
    144          1           0       10.838405    2.028029    3.172946
    145          8           0        8.988829    2.532147    1.505999
    146          1           0        8.352352    2.023279    0.973050
    147          7           0        7.540026    0.404971    5.198163
    148          1           0        8.250898   -0.150823    4.741775
    149          6           0        7.428835    0.185819    6.634848
    150          1           0        6.958380    1.074637    7.061734
    151          6           0        8.854569    0.011547    7.161140
    152          6           0        6.573519   -1.066917    6.985800
    153          1           0        7.164829   -1.945850    6.692217
    154          8           0        9.689690   -0.577621    6.417776
    155          6           0        6.287393   -1.137272    8.492397
    156          1           0        5.672334   -0.284694    8.803062
    157          1           0        7.179999   -1.132130    9.120836
    158          1           0        5.722743   -2.046590    8.718237
    159          6           0        5.263395   -1.073257    6.191963
    160          1           0        4.687546   -0.163832    6.395621
    161          1           0        4.650416   -1.928698    6.490495
    162          1           0        5.422163   -1.145381    5.114868
    163          7           0        9.099448    0.461612    8.380156
    164          1           0        8.339582    0.721231    9.045135
    165          6           0       10.232027    0.087004    9.213561
    166          1           0       10.510551   -0.946899    8.981144
    167          6           0        9.705279    0.120228   10.703115
    168          6           0       11.454591    1.002397    9.052130
    169          1           0       11.542650    1.294697    8.000177
    170          1           0       11.284416    1.929490    9.607245
    171          8           0       10.577069   -0.105427   11.557444
    172          6           0       12.740177    0.316808    9.556484
    173          1           0       12.570627   -0.759671    9.653739
    174          1           0       12.942120    0.625380   10.583644
    175          6           0       14.010092    0.591464    8.736595
    176          1           0       14.811590   -0.087977    9.044878
    177          1           0       14.359786    1.609896    8.928666
    178          7           0       13.854980    0.524407    7.258920
    179          1           0       14.377119    1.210923    6.733174
    180          7           0       12.258757   -1.182157    7.003798
    181          1           0       11.229821   -1.197250    6.829816
    182          1           0       12.588635   -1.598517    7.860575
    183          7           0       12.490562    0.429830    5.385702
    184          1           0       11.685859   -0.005926    4.953690
    185          1           0       12.552656    1.427778    5.247816
    186          6           0       12.865478   -0.074310    6.584600
    187          8           0        8.476421    0.388480   10.800897
    188          1           0        2.180937   -9.776247   -3.047894
 ---------------------------------------------------------------------

 SCF Done:  E(RB3LYP) =  -4649.09273906     A.U. after    1 cycles

 Alpha  occ. eigenvalues --  -19.33417 -19.28580 -19.25300 -19.24433 -19.23324
 Alpha  occ. eigenvalues --  -19.22826 -19.21343 -19.21148 -19.19919 -19.19467
 Alpha  occ. eigenvalues --  -19.19289 -19.17972 -19.17914 -19.17795 -19.17686
 Alpha  occ. eigenvalues --  -19.07904 -19.06815 -14.56866 -14.48548 -14.47096
 Alpha  occ. eigenvalues --  -14.46418 -14.45765 -14.45074 -14.44028 -14.43831
 Alpha  occ. eigenvalues --  -14.43812 -14.43322 -14.42539 -14.42531 -14.42277
 Alpha  occ. eigenvalues --  -14.41649 -14.39075 -14.35321 -10.46804 -10.42430
 Alpha  occ. eigenvalues --  -10.41670 -10.39924 -10.39726 -10.37531 -10.37494
 Alpha  occ. eigenvalues --  -10.36388 -10.36311 -10.35938 -10.35387 -10.35145
 Alpha  occ. eigenvalues --  -10.35139 -10.34872 -10.34545 -10.33763 -10.32023
 Alpha  occ. eigenvalues --  -10.31684 -10.31621 -10.30891 -10.30714 -10.30659
 Alpha  occ. eigenvalues --  -10.30368 -10.30271 -10.29915 -10.29638 -10.29621
 Alpha  occ. eigenvalues --  -10.29449 -10.29445 -10.28810 -10.28717 -10.28696
 Alpha  occ. eigenvalues --  -10.28027 -10.27978 -10.27731 -10.27605 -10.27270
 Alpha  occ. eigenvalues --  -10.26244 -10.26184 -10.26129 -10.26074 -10.26037
 Alpha  occ. eigenvalues --  -10.25822 -10.25776 -10.25749 -10.25483 -10.25464
 Alpha  occ. eigenvalues --  -10.25461 -10.25451 -10.25297 -10.25070 -10.25015
 Alpha  occ. eigenvalues --  -10.24786 -10.24223 -10.23979 -10.23931 -10.23828
 Alpha  occ. eigenvalues --  -10.23465 -10.23249 -10.23201 -10.22899 -10.22754
 Alpha  occ. eigenvalues --  -10.20150 -10.19716  -1.24899  -1.17863  -1.16025
 Alpha  occ. eigenvalues --   -1.14872  -1.13511  -1.12974  -1.12478  -1.11713
 Alpha  occ. eigenvalues --   -1.11515  -1.11499  -1.11371  -1.11180  -1.10652
 Alpha  occ. eigenvalues --   -1.09884  -1.09564  -1.08321  -1.05814  -1.05634
 Alpha  occ. eigenvalues --   -1.05011  -1.03521  -1.01624  -1.01123  -1.00975
 Alpha  occ. eigenvalues --   -1.00522  -1.00067  -0.99950  -0.99215  -0.99019
 Alpha  occ. eigenvalues --   -0.98310  -0.98096  -0.96008  -0.95693  -0.94016
 Alpha  occ. eigenvalues --   -0.93110  -0.92339  -0.91847  -0.90730  -0.89638
 Alpha  occ. eigenvalues --   -0.88397  -0.87659  -0.86478  -0.86436  -0.85356
 Alpha  occ. eigenvalues --   -0.85087  -0.85033  -0.84860  -0.84649  -0.84049
 Alpha  occ. eigenvalues --   -0.82522  -0.82452  -0.81669  -0.81180  -0.80882
 Alpha  occ. eigenvalues --   -0.80707  -0.79326  -0.79214  -0.79031  -0.77247
 Alpha  occ. eigenvalues --   -0.76801  -0.75583  -0.75053  -0.74538  -0.74310
 Alpha  occ. eigenvalues --   -0.73835  -0.73526  -0.72979  -0.72701  -0.72449
 Alpha  occ. eigenvalues --   -0.72020  -0.71691  -0.71180  -0.71018  -0.70036
 Alpha  occ. eigenvalues --   -0.69899  -0.69729  -0.69649  -0.68702  -0.68215
 Alpha  occ. eigenvalues --   -0.68145  -0.67834  -0.67332  -0.67104  -0.66606
 Alpha  occ. eigenvalues --   -0.66126  -0.65982  -0.65961  -0.65815  -0.65326
 Alpha  occ. eigenvalues --   -0.65227  -0.64974  -0.64661  -0.64459  -0.64122
 Alpha  occ. eigenvalues --   -0.63396  -0.63205  -0.63100  -0.62765  -0.62674
 Alpha  occ. eigenvalues --   -0.62546  -0.62220  -0.62034  -0.61588  -0.61434
 Alpha  occ. eigenvalues --   -0.60806  -0.60260  -0.60159  -0.60074  -0.59675
 Alpha  occ. eigenvalues --   -0.59539  -0.58846  -0.58521  -0.58314  -0.58137
 Alpha  occ. eigenvalues --   -0.58012  -0.57832  -0.57747  -0.57584  -0.57201
 Alpha  occ. eigenvalues --   -0.56880  -0.56806  -0.56434  -0.56271  -0.56165
 Alpha  occ. eigenvalues --   -0.55759  -0.55343  -0.54920  -0.54881  -0.54599
 Alpha  occ. eigenvalues --   -0.54584  -0.54399  -0.53826  -0.53678  -0.53543
 Alpha  occ. eigenvalues --   -0.53435  -0.53140  -0.52951  -0.52774  -0.52696
 Alpha  occ. eigenvalues --   -0.52594  -0.52249  -0.52195  -0.51895  -0.51704
 Alpha  occ. eigenvalues --   -0.51654  -0.51505  -0.51409  -0.51211  -0.50970
 Alpha  occ. eigenvalues --   -0.50733  -0.50389  -0.50222  -0.50030  -0.49968
 Alpha  occ. eigenvalues --   -0.49854  -0.49744  -0.49670  -0.49373  -0.49351
 Alpha  occ. eigenvalues --   -0.49057  -0.48958  -0.48689  -0.48574  -0.48446
 Alpha  occ. eigenvalues --   -0.48176  -0.48093  -0.47892  -0.47851  -0.47666
 Alpha  occ. eigenvalues --   -0.47416  -0.47218  -0.47130  -0.46787  -0.46764
 Alpha  occ. eigenvalues --   -0.46523  -0.46413  -0.46301  -0.46165  -0.46006
 Alpha  occ. eigenvalues --   -0.45953  -0.45849  -0.45782  -0.45613  -0.45462
 Alpha  occ. eigenvalues --   -0.45388  -0.45192  -0.45058  -0.45012  -0.44911
 Alpha  occ. eigenvalues --   -0.44828  -0.44558  -0.44427  -0.44292  -0.44175
 Alpha  occ. eigenvalues --   -0.43993  -0.43915  -0.43732  -0.43696  -0.43583
 Alpha  occ. eigenvalues --   -0.43451  -0.43334  -0.43105  -0.42937  -0.42566
 Alpha  occ. eigenvalues --   -0.42476  -0.42446  -0.42246  -0.42088  -0.42025
 Alpha  occ. eigenvalues --   -0.41927  -0.41668  -0.41379  -0.41244  -0.40990
 Alpha  occ. eigenvalues --   -0.40622  -0.40165  -0.39870  -0.39553  -0.39168
 Alpha  occ. eigenvalues --   -0.39009  -0.38972  -0.38782  -0.38690  -0.38653
 Alpha  occ. eigenvalues --   -0.38573  -0.38526  -0.38219  -0.37524  -0.37518
 Alpha  occ. eigenvalues --   -0.37291  -0.36977  -0.36765  -0.36669  -0.36538
 Alpha  occ. eigenvalues --   -0.36373  -0.36228  -0.35622  -0.35543  -0.35383
 Alpha  occ. eigenvalues --   -0.35210  -0.35050  -0.33892  -0.33549  -0.33081
 Alpha  occ. eigenvalues --   -0.32915  -0.32742  -0.32700  -0.32520  -0.32326
 Alpha  occ. eigenvalues --   -0.32210  -0.31972  -0.31836  -0.31487  -0.31282
 Alpha  occ. eigenvalues --   -0.31129  -0.31064  -0.30944  -0.30687  -0.30441
 Alpha  occ. eigenvalues --   -0.30215  -0.27650  -0.26457  -0.22996  -0.22764
 Alpha  occ. eigenvalues --   -0.21113
 Alpha virt. eigenvalues --   -0.13547  -0.12360  -0.11222  -0.10079  -0.08358
 Alpha virt. eigenvalues --   -0.08308  -0.07900  -0.07669  -0.07513  -0.07296
 Alpha virt. eigenvalues --   -0.06551  -0.05971  -0.05601  -0.05443  -0.05295

 Mulliken charges:
               1
     1  N   -0.545912
     2  H    0.345819
     3  H    0.344059
     4  H    0.362996
     5  C   -0.088373
     6  H    0.171866
     7  C    0.629170
     8  C   -0.276512
     9  H    0.193026
    10  H    0.188467
    11  O   -0.531412
    12  C    0.614730
    13  O   -0.481678
    14  O   -0.445390
    15  N   -0.522243
    16  H    0.294066
    17  C    0.005833
    18  H    0.148050
    19  C    0.617569
    20  C   -0.259341
    21  H    0.128277
    22  H    0.148103
    23  O   -0.518525
    24  C    0.088264
    25  C   -0.122840
    26  H    0.116858
    27  C   -0.152792
    28  H    0.148826
    29  C   -0.200402
    30  H    0.134416
    31  C   -0.137843
    32  H    0.110349
    33  O   -0.594335
    34  H    0.357943
    35  C    0.328374
    36  N   -0.565789
    37  H    0.272469
    38  C    0.007083
    39  H    0.157469
    40  C    0.632476
    41  C   -0.286979
    42  H    0.105740
    43  H    0.121837
    44  O   -0.499219
    45  C    0.111884
    46  C   -0.115586
    47  H    0.081764
    48  C   -0.118629
    49  H    0.082766
    50  C   -0.097633
    51  H    0.102823
    52  C   -0.127037
    53  H    0.086449
    54  O   -0.550211
    55  H    0.322779
    56  C    0.333031
    57  N   -0.523790
    58  H    0.259710
    59  C   -0.013113
    60  H    0.146792
    61  C    0.639355
    62  C   -0.251788
    63  H    0.136712
    64  H    0.101944
    65  O   -0.582858
    66  C    0.105049
    67  C   -0.124506
    68  H    0.086019
    69  C   -0.157052
    70  H    0.095963
    71  C   -0.078724
    72  H    0.105833
    73  C   -0.087940
    74  H    0.105782
    75  C   -0.079730
    76  H    0.107091
    77  N   -0.493001
    78  H    0.282929
    79  C   -0.029049
    80  H    0.136294
    81  C    0.624688
    82  C   -0.330797
    83  H    0.131519
    84  H    0.125803
    85  H    0.138544
    86  O   -0.539794
    87  N   -0.557802
    88  H    0.311687
    89  C   -0.012651
    90  H    0.135621
    91  C    0.645176
    92  C   -0.192709
    93  H    0.089883
    94  H    0.113232
    95  O   -0.612959
    96  C   -0.073590
    97  H    0.105389
    98  C   -0.336999
    99  H    0.094583
   100  H    0.113011
   101  H    0.131582
   102  C   -0.311808
   103  H    0.092419
   104  H    0.117018
   105  H    0.092777
   106  N   -0.484046
   107  H    0.303850
   108  C   -0.008136
   109  H    0.117595
   110  C    0.611760
   111  C   -0.341429
   112  H    0.133498
   113  H    0.142267
   114  H    0.129467
   115  O   -0.538478
   116  N   -0.537304
   117  H    0.289232
   118  C    0.011220
   119  H    0.154257
   120  C    0.621443
   121  C   -0.275962
   122  H    0.158585
   123  H    0.125384
   124  O   -0.576344
   125  C    0.267995
   126  C   -0.025329
   127  H    0.108019
   128  N   -0.547327
   129  H    0.297051
   130  C    0.241092
   131  H    0.109289
   132  N   -0.465616
   133  N   -0.510094
   134  H    0.291859
   135  C   -0.079714
   136  H    0.137703
   137  C    0.614307
   138  C    0.236513
   139  H    0.096723
   140  O   -0.548070
   141  C   -0.363342
   142  H    0.109917
   143  H    0.101721
   144  H    0.118389
   145  O   -0.570400
   146  H    0.330209
   147  N   -0.518023
   148  H    0.274000
   149  C   -0.007618
   150  H    0.146075
   151  C    0.606694
   152  C   -0.062206
   153  H    0.089605
   154  O   -0.642339
   155  C   -0.329661
   156  H    0.112640
   157  H    0.138770
   158  H    0.102244
   159  C   -0.316131
   160  H    0.111267
   161  H    0.102691
   162  H    0.125988
   163  N   -0.497385
   164  H    0.303332
   165  C   -0.048164
   166  H    0.079568
   167  C    0.587918
   168  C   -0.163044
   169  H    0.064320
   170  H    0.129889
   171  O   -0.577805
   172  C   -0.210664
   173  H    0.109548
   174  H    0.168198
   175  C   -0.076701
   176  H    0.141507
   177  H    0.136922
   178  N   -0.516378
   179  H    0.285533
   180  N   -0.584233
   181  H    0.348540
   182  H    0.292002
   183  N   -0.603660
   184  H    0.320367
   185  H    0.292928
   186  C    0.699206
   187  O   -0.597710
   188  H    0.355524
 Sum of Mulliken charges =   1.00000

 Dipole moment (field-independent basis, Debye):
    X=              1.2471    Y=            -20.6776    Z=            -19.9790  Tot=             28.7798
 Quadrupole moment (field-independent basis, Debye-Ang):
   XX=           -242.0294   YY=           -374.2133   ZZ=           -687.0520
   XY=             40.5229   XZ=             34.8626   YZ=             45.6841

 Normal termination of Gaussian 16 at Fri Sep  9 20:45:05 2022.
