 Gaussian 16, Revision C.01,
 Gaussian 16:  ES64L-G16RevC.01  3-Jul-2019

 ----------------------------------------------------------------------
 # B3LYP/6-31G** empiricaldispersion=gd3bj guess=read geom=check nosymm
  integral(ultrafinegrid)
 ----------------------------------------------------------------------

 -----------------------------------------------------
 Candidate Structure: Conf:95 Charge calc in gas phase
 -----------------------------------------------------
 Structure from the checkpoint file:  "conf-95.chk"
 Charge =  1 Multiplicity = 1

                          Input orientation:
 ---------------------------------------------------------------------
 Center     Atomic      Atomic             Coordinates (Angstroms)
 Number     Number       Type             X           Y           Z
 ---------------------------------------------------------------------
      1          7           0      -10.662998   -2.779173   -1.924372
      2          1           0      -10.898916   -1.981761   -2.542115
      3          1           0      -10.480982   -3.597143   -2.573113
      4          1           0      -11.408528   -2.949590   -1.249377
      5          6           0       -9.300088   -2.556015   -1.331552
      6          1           0       -9.154069   -1.487053   -1.185820
      7          6           0       -8.397539   -3.085213   -2.476527
      8          6           0       -9.110942   -3.307568   -0.015260
      9          1           0       -9.946902   -3.131121    0.673458
     10          1           0       -9.041888   -4.388907   -0.169767
     11          8           0       -8.910784   -3.921085   -3.237961
     12          6           0       -7.846687   -2.808342    0.668188
     13          8           0       -7.210608   -1.846202    0.288061
     14          8           0       -7.546094   -3.542489    1.738337
     15          7           0       -7.189751   -2.558207   -2.588473
     16          1           0       -6.800967   -1.976607   -1.849219
     17          6           0       -6.440451   -2.601018   -3.833059
     18          1           0       -6.665278   -3.540448   -4.342968
     19          6           0       -4.955358   -2.501753   -3.460820
     20          6           0       -6.860750   -1.380914   -4.722047
     21          1           0       -6.432078   -1.505038   -5.719649
     22          1           0       -6.402091   -0.480464   -4.305022
     23          8           0       -4.628415   -2.280377   -2.299559
     24          6           0       -8.360124   -1.214589   -4.796265
     25          6           0       -9.146005   -1.998785   -5.655886
     26          1           0       -8.661677   -2.704437   -6.324124
     27          6           0       -9.017605   -0.323243   -3.945432
     28          1           0       -8.429155    0.306333   -3.287206
     29          6           0      -10.531433   -1.904606   -5.668858
     30          1           0      -11.131529   -2.502192   -6.345691
     31          6           0      -10.416869   -0.218200   -3.932891
     32          1           0      -10.902780    0.524369   -3.302317
     33          8           0      -12.541256   -0.954920   -4.858661
     34          1           0      -12.855980   -0.131978   -4.460315
     35          6           0      -11.177678   -1.002027   -4.812649
     36          7           0       -4.088783   -2.616485   -4.498752
     37          1           0       -4.498949   -2.550032   -5.422930
     38          6           0       -2.806819   -1.923092   -4.414604
     39          1           0       -2.496993   -1.933177   -3.370182
     40          6           0       -3.049549   -0.477360   -4.877544
     41          6           0       -1.728294   -2.606613   -5.273671
     42          1           0       -0.847581   -1.956992   -5.264289
     43          1           0       -2.076355   -2.650576   -6.312253
     44          8           0       -3.916482   -0.215769   -5.716096
     45          6           0       -1.379672   -3.982749   -4.764656
     46          6           0       -0.583336   -4.133138   -3.619821
     47          1           0       -0.198085   -3.250498   -3.119125
     48          6           0       -1.866453   -5.134316   -5.385067
     49          1           0       -2.483110   -5.043939   -6.275289
     50          6           0       -0.280749   -5.390033   -3.111670
     51          1           0        0.338736   -5.507897   -2.229268
     52          6           0       -1.569416   -6.403940   -4.889463
     53          1           0       -1.951375   -7.290058   -5.391291
     54          8           0       -0.443777   -7.744817   -3.209092
     55          1           0       -0.815670   -8.448392   -3.756806
     56          6           0       -0.774050   -6.534498   -3.748486
     57          7           0       -2.240810    0.425153   -4.293464
     58          1           0       -1.599832    0.093023   -3.560060
     59          6           0       -2.328084    1.832205   -4.579595
     60          1           0       -3.060725    1.940244   -5.386588
     61          6           0       -0.960458    2.340310   -5.076795
     62          6           0       -2.816623    2.614298   -3.328110
     63          1           0       -2.021946    2.591613   -2.578303
     64          1           0       -2.977345    3.665734   -3.588807
     65          8           0       -0.023991    1.572079   -5.308757
     66          6           0       -4.086968    2.057396   -2.731486
     67          6           0       -5.337150    2.564563   -3.104841
     68          1           0       -5.393651    3.362677   -3.840167
     69          6           0       -4.034958    1.025810   -1.785934
     70          1           0       -3.073718    0.614641   -1.495579
     71          6           0       -6.507203    2.076090   -2.523845
     72          1           0       -7.464663    2.505985   -2.804403
     73          6           0       -5.201591    0.527332   -1.207366
     74          1           0       -5.144438   -0.270941   -0.477173
     75          6           0       -6.440204    1.059438   -1.567579
     76          1           0       -7.342692    0.694380   -1.084639
     77          7           0       -0.837202    3.678639   -5.245215
     78          1           0       -1.592658    4.292819   -4.980568
     79          6           0        0.428932    4.301089   -5.654180
     80          1           0        0.914397    3.589824   -6.327789
     81          6           0        1.312679    4.492575   -4.400578
     82          6           0        0.167258    5.625638   -6.353806
     83          1           0        1.108034    6.057850   -6.700103
     84          1           0       -0.491262    5.478727   -7.213408
     85          1           0       -0.280061    6.343140   -5.661025
     86          8           0        1.454430    5.588459   -3.867313
     87          7           0        1.867549    3.342668   -3.933859
     88          1           0        1.640140    2.468713   -4.397159
     89          6           0        2.556741    3.295570   -2.663036
     90          1           0        2.890619    4.313282   -2.446772
     91          6           0        3.735284    2.331410   -2.732402
     92          6           0        1.655331    2.767019   -1.512929
     93          1           0        1.373289    1.741318   -1.766619
     94          1           0        2.256350    2.711061   -0.595523
     95          8           0        3.676295    1.273314   -3.361257
     96          6           0        0.385362    3.583828   -1.236146
     97          1           0       -0.124693    3.732473   -2.196952
     98          6           0       -0.549769    2.782023   -0.319178
     99          1           0       -0.130658    2.656742    0.684559
    100          1           0       -1.510764    3.294339   -0.201087
    101          1           0       -0.743803    1.784657   -0.729987
    102          6           0        0.701664    4.965673   -0.653653
    103          1           0        1.300450    4.871245    0.260522
    104          1           0       -0.220780    5.494898   -0.393776
    105          1           0        1.246530    5.584139   -1.370998
    106          7           0        4.799424    2.669117   -1.947983
    107          1           0        4.679416    3.482765   -1.356758
    108          6           0        5.659560    1.628173   -1.368587
    109          1           0        5.814666    0.878968   -2.147000
    110          6           0        4.816916    1.065861   -0.214528
    111          6           0        6.978281    2.210629   -0.883102
    112          1           0        7.619310    1.418153   -0.488176
    113          1           0        6.798909    2.929305   -0.078878
    114          1           0        7.498078    2.707989   -1.704617
    115          8           0        4.591160    1.762212    0.780692
    116          7           0        4.206993   -0.118017   -0.434553
    117          1           0        4.628549   -0.753631   -1.097306
    118          6           0        3.241255   -0.650853    0.516808
    119          1           0        2.582537    0.176665    0.794077
    120          6           0        3.967879   -1.171145    1.767425
    121          6           0        2.405157   -1.767335   -0.133063
    122          1           0        1.799640   -2.227389    0.652564
    123          1           0        3.085131   -2.549283   -0.495452
    124          8           0        4.981194   -1.856787    1.679740
    125          6           0        1.488927   -1.284402   -1.209224
    126          6           0        0.114892   -1.223570   -1.269535
    127          1           0       -0.596776   -1.555122   -0.527697
    128          7           0        1.918156   -0.760172   -2.418399
    129          1           0        2.851057   -0.449582   -2.667303
    130          6           0        0.824623   -0.397576   -3.133703
    131          1           0        0.870596    0.068025   -4.106087
    132          7           0       -0.289448   -0.669345   -2.470261
    133          7           0        3.361713   -0.789453    2.907130
    134          1           0        2.546483   -0.182044    2.861649
    135          6           0        3.876390   -1.077828    4.229684
    136          1           0        4.528427   -1.953381    4.140134
    137          6           0        2.668393   -1.488378    5.103787
    138          6           0        4.725287    0.097023    4.757060
    139          1           0        5.115013   -0.191631    5.742425
    140          8           0        1.816546   -2.241600    4.644708
    141          6           0        5.900192    0.432585    3.846602
    142          1           0        6.520383   -0.447960    3.661013
    143          1           0        5.543067    0.807071    2.884659
    144          1           0        6.517005    1.204729    4.316191
    145          8           0        3.918973    1.275893    4.965838
    146          1           0        3.079315    1.212787    4.450067
    147          7           0        2.602752   -0.965532    6.361612
    148          1           0        3.172423   -0.150388    6.547698
    149          6           0        1.379001   -1.097378    7.162643
    150          1           0        0.790256   -1.868594    6.655702
    151          6           0        0.620222    0.255747    7.072332
    152          6           0        1.652895   -1.534420    8.610348
    153          1           0        2.092757   -0.679434    9.139197
    154          8           0        0.327689    0.919560    8.062661
    155          6           0        0.336046   -1.898735    9.308946
    156          1           0       -0.145456   -2.745163    8.803794
    157          1           0       -0.353494   -1.053869    9.316975
    158          1           0        0.525447   -2.197151   10.344540
    159          6           0        2.630665   -2.713651    8.652797
    160          1           0        2.231993   -3.570733    8.097650
    161          1           0        2.795217   -3.031991    9.686623
    162          1           0        3.598788   -2.457853    8.215575
    163          7           0        0.381574    0.632512    5.787645
    164          1           0        0.725596    0.013729    5.064115
    165          6           0        0.140915    1.981877    5.286041
    166          1           0       -0.926392    2.227955    5.311785
    167          6           0        0.629830    2.014683    3.819085
    168          6           0        0.924671    3.053951    6.087656
    169          1           0        0.736109    2.860701    7.143137
    170          1           0        1.995164    2.873607    5.930264
    171          8           0        0.188813    2.911309    3.063124
    172          6           0        0.546237    4.512210    5.749982
    173          1           0        0.194672    5.022755    6.652850
    174          1           0       -0.284315    4.534071    5.036451
    175          6           0        1.693092    5.354620    5.177637
    176          1           0        2.579749    5.272928    5.811412
    177          1           0        1.417065    6.413019    5.156684
    178          7           0        2.038589    4.962671    3.806652
    179          1           0        1.228041    4.887970    3.199036
    180          7           0        4.171297    4.008838    4.145647
    181          1           0        4.465411    3.040423    4.310306
    182          1           0        4.277601    4.613147    4.946666
    183          7           0        2.865148    3.428138    2.317431
    184          1           0        3.609713    2.825210    1.976373
    185          1           0        1.903065    3.123069    2.136556
    186          6           0        3.020509    4.122247    3.444349
    187          8           0        1.540140    1.175651    3.514201
    188          1           0       -6.734356   -3.180525    2.137055
 ---------------------------------------------------------------------

 SCF Done:  E(RB3LYP) =  -4649.15100167     A.U. after    3 cycles

 Alpha  occ. eigenvalues --  -19.31877 -19.27889 -19.26815 -19.25104 -19.22176
 Alpha  occ. eigenvalues --  -19.20657 -19.20210 -19.19783 -19.19627 -19.19008
 Alpha  occ. eigenvalues --  -19.17140 -19.17043 -19.16244 -19.16153 -19.16137
 Alpha  occ. eigenvalues --  -19.15704 -19.15323 -14.58176 -14.47433 -14.44398
 Alpha  occ. eigenvalues --  -14.44383 -14.44283 -14.43672 -14.43522 -14.43303
 Alpha  occ. eigenvalues --  -14.42783 -14.41874 -14.41089 -14.40550 -14.40534
 Alpha  occ. eigenvalues --  -14.40126 -14.38914 -14.38541 -10.45333 -10.41884
 Alpha  occ. eigenvalues --  -10.39769 -10.39600 -10.36786 -10.36682 -10.36264
 Alpha  occ. eigenvalues --  -10.35957 -10.35565 -10.35103 -10.34064 -10.33863
 Alpha  occ. eigenvalues --  -10.33583 -10.33539 -10.33310 -10.32994 -10.32292
 Alpha  occ. eigenvalues --  -10.30880 -10.30002 -10.29923 -10.29854 -10.29750
 Alpha  occ. eigenvalues --  -10.29731 -10.29508 -10.29499 -10.29346 -10.29291
 Alpha  occ. eigenvalues --  -10.29276 -10.28983 -10.28931 -10.28561 -10.28508
 Alpha  occ. eigenvalues --  -10.28311 -10.28277 -10.28130 -10.27115 -10.26915
 Alpha  occ. eigenvalues --  -10.26476 -10.26381 -10.26253 -10.26067 -10.25899
 Alpha  occ. eigenvalues --  -10.25779 -10.25510 -10.25193 -10.24962 -10.24877
 Alpha  occ. eigenvalues --  -10.24594 -10.24571 -10.24314 -10.23939 -10.23787
 Alpha  occ. eigenvalues --  -10.23702 -10.23517 -10.23428 -10.23298 -10.23155
 Alpha  occ. eigenvalues --  -10.22823 -10.22378 -10.22169 -10.21535 -10.21353
 Alpha  occ. eigenvalues --  -10.20390 -10.19937  -1.23265  -1.17923  -1.16060
 Alpha  occ. eigenvalues --   -1.14408  -1.12386  -1.12262  -1.11740  -1.11157
 Alpha  occ. eigenvalues --   -1.10995  -1.10266  -1.09733  -1.08902  -1.08826
 Alpha  occ. eigenvalues --   -1.08734  -1.08452  -1.07898  -1.07370  -1.07265
 Alpha  occ. eigenvalues --   -1.06857  -1.04636  -1.00651  -1.00369  -1.00179
 Alpha  occ. eigenvalues --   -0.99849  -0.99650  -0.98408  -0.98337  -0.97942
 Alpha  occ. eigenvalues --   -0.97526  -0.97237  -0.96268  -0.95579  -0.95253
 Alpha  occ. eigenvalues --   -0.93757  -0.93052  -0.92097  -0.89951  -0.88539
 Alpha  occ. eigenvalues --   -0.87155  -0.86566  -0.86032  -0.85123  -0.85013
 Alpha  occ. eigenvalues --   -0.84752  -0.84316  -0.84069  -0.83823  -0.83309
 Alpha  occ. eigenvalues --   -0.82467  -0.81730  -0.80840  -0.80177  -0.79862
 Alpha  occ. eigenvalues --   -0.79839  -0.79544  -0.79174  -0.77414  -0.76909
 Alpha  occ. eigenvalues --   -0.75871  -0.74738  -0.74543  -0.73604  -0.73073
 Alpha  occ. eigenvalues --   -0.72685  -0.72515  -0.72152  -0.72040  -0.71919
 Alpha  occ. eigenvalues --   -0.71245  -0.71020  -0.70739  -0.70306  -0.69758
 Alpha  occ. eigenvalues --   -0.69604  -0.69147  -0.68728  -0.67686  -0.67176
 Alpha  occ. eigenvalues --   -0.67069  -0.66682  -0.66599  -0.66514  -0.65940
 Alpha  occ. eigenvalues --   -0.65717  -0.65505  -0.65066  -0.64858  -0.64657
 Alpha  occ. eigenvalues --   -0.64610  -0.64440  -0.63981  -0.63834  -0.63688
 Alpha  occ. eigenvalues --   -0.63434  -0.63015  -0.62992  -0.62209  -0.62019
 Alpha  occ. eigenvalues --   -0.61637  -0.61173  -0.61128  -0.60812  -0.60495
 Alpha  occ. eigenvalues --   -0.59837  -0.59365  -0.59226  -0.59098  -0.58786
 Alpha  occ. eigenvalues --   -0.58702  -0.58391  -0.57973  -0.57658  -0.57607
 Alpha  occ. eigenvalues --   -0.57142  -0.56899  -0.56721  -0.56452  -0.56328
 Alpha  occ. eigenvalues --   -0.55972  -0.55791  -0.55356  -0.55113  -0.54737
 Alpha  occ. eigenvalues --   -0.54432  -0.54217  -0.54163  -0.53877  -0.53795
 Alpha  occ. eigenvalues --   -0.53537  -0.53396  -0.53230  -0.52873  -0.52588
 Alpha  occ. eigenvalues --   -0.52530  -0.52273  -0.52212  -0.52115  -0.52066
 Alpha  occ. eigenvalues --   -0.51917  -0.51521  -0.51422  -0.51158  -0.51072
 Alpha  occ. eigenvalues --   -0.50867  -0.50722  -0.50677  -0.50622  -0.50381
 Alpha  occ. eigenvalues --   -0.50113  -0.49695  -0.49652  -0.49448  -0.49277
 Alpha  occ. eigenvalues --   -0.49236  -0.48941  -0.48800  -0.48392  -0.48326
 Alpha  occ. eigenvalues --   -0.48268  -0.48011  -0.47912  -0.47794  -0.47602
 Alpha  occ. eigenvalues --   -0.47547  -0.47498  -0.47152  -0.47142  -0.47033
 Alpha  occ. eigenvalues --   -0.46792  -0.46720  -0.46608  -0.46535  -0.46237
 Alpha  occ. eigenvalues --   -0.46115  -0.45899  -0.45857  -0.45699  -0.45643
 Alpha  occ. eigenvalues --   -0.45561  -0.45299  -0.45107  -0.45004  -0.44959
 Alpha  occ. eigenvalues --   -0.44902  -0.44685  -0.44561  -0.44428  -0.44402
 Alpha  occ. eigenvalues --   -0.44281  -0.44145  -0.44034  -0.43801  -0.43720
 Alpha  occ. eigenvalues --   -0.43499  -0.43462  -0.43403  -0.43240  -0.42984
 Alpha  occ. eigenvalues --   -0.42753  -0.42740  -0.42619  -0.42416  -0.42340
 Alpha  occ. eigenvalues --   -0.42311  -0.42146  -0.41992  -0.41788  -0.41372
 Alpha  occ. eigenvalues --   -0.41218  -0.41068  -0.41040  -0.40862  -0.40800
 Alpha  occ. eigenvalues --   -0.40704  -0.40444  -0.40105  -0.39974  -0.39968
 Alpha  occ. eigenvalues --   -0.39797  -0.39673  -0.39107  -0.38794  -0.38044
 Alpha  occ. eigenvalues --   -0.37840  -0.37673  -0.37316  -0.37233  -0.37182
 Alpha  occ. eigenvalues --   -0.37043  -0.36503  -0.36083  -0.35998  -0.35467
 Alpha  occ. eigenvalues --   -0.35260  -0.34777  -0.34556  -0.34473  -0.34311
 Alpha  occ. eigenvalues --   -0.34144  -0.34052  -0.33576  -0.33470  -0.33319
 Alpha  occ. eigenvalues --   -0.32888  -0.32172  -0.32154  -0.31782  -0.31670
 Alpha  occ. eigenvalues --   -0.31636  -0.31014  -0.30859  -0.30630  -0.30612
 Alpha  occ. eigenvalues --   -0.30475  -0.30404  -0.30115  -0.29844  -0.29734
 Alpha  occ. eigenvalues --   -0.29578  -0.29500  -0.28737  -0.28351  -0.27396
 Alpha  occ. eigenvalues --   -0.26123
 Alpha virt. eigenvalues --   -0.12162  -0.11726  -0.11177  -0.09597  -0.08276
 Alpha virt. eigenvalues --   -0.07369  -0.07252  -0.06866  -0.06252  -0.05768
 Alpha virt. eigenvalues --   -0.05279  -0.05198  -0.04848  -0.04136  -0.04098

 Mulliken charges:
               1
     1  N   -0.556947
     2  H    0.345843
     3  H    0.364428
     4  H    0.333503
     5  C   -0.074409
     6  H    0.182385
     7  C    0.630682
     8  C   -0.284541
     9  H    0.167021
    10  H    0.188278
    11  O   -0.545717
    12  C    0.615675
    13  O   -0.454669
    14  O   -0.458571
    15  N   -0.501313
    16  H    0.324487
    17  C   -0.051788
    18  H    0.159978
    19  C    0.619603
    20  C   -0.252743
    21  H    0.142624
    22  H    0.157214
    23  O   -0.523277
    24  C    0.097553
    25  C   -0.087193
    26  H    0.109890
    27  C   -0.122485
    28  H    0.102138
    29  C   -0.103875
    30  H    0.124854
    31  C   -0.234684
    32  H    0.098115
    33  O   -0.551070
    34  H    0.327871
    35  C    0.315297
    36  N   -0.498350
    37  H    0.269106
    38  C   -0.051418
    39  H    0.163953
    40  C    0.599186
    41  C   -0.256924
    42  H    0.131306
    43  H    0.104718
    44  O   -0.564619
    45  C    0.127738
    46  C   -0.125729
    47  H    0.099388
    48  C   -0.127985
    49  H    0.073172
    50  C   -0.104604
    51  H    0.095732
    52  C   -0.133698
    53  H    0.075433
    54  O   -0.555946
    55  H    0.318317
    56  C    0.326214
    57  N   -0.527216
    58  H    0.331428
    59  C   -0.030522
    60  H    0.160809
    61  C    0.626739
    62  C   -0.276769
    63  H    0.141839
    64  H    0.095720
    65  O   -0.545913
    66  C    0.133361
    67  C   -0.114563
    68  H    0.084173
    69  C   -0.119577
    70  H    0.109155
    71  C   -0.089869
    72  H    0.082970
    73  C   -0.080413
    74  H    0.111048
    75  C   -0.113913
    76  H    0.067319
    77  N   -0.520509
    78  H    0.270718
    79  C   -0.026340
    80  H    0.146223
    81  C    0.612606
    82  C   -0.324685
    83  H    0.136458
    84  H    0.112756
    85  H    0.129982
    86  O   -0.525049
    87  N   -0.526047
    88  H    0.294084
    89  C   -0.029081
    90  H    0.137222
    91  C    0.608785
    92  C   -0.176859
    93  H    0.117682
    94  H    0.096725
    95  O   -0.554644
    96  C   -0.065756
    97  H    0.081920
    98  C   -0.343044
    99  H    0.135051
   100  H    0.097049
   101  H    0.100403
   102  C   -0.329201
   103  H    0.086339
   104  H    0.098933
   105  H    0.136277
   106  N   -0.496487
   107  H    0.278208
   108  C   -0.022236
   109  H    0.133374
   110  C    0.633779
   111  C   -0.327041
   112  H    0.133554
   113  H    0.130356
   114  H    0.132818
   115  O   -0.563141
   116  N   -0.510686
   117  H    0.280542
   118  C   -0.023766
   119  H    0.137008
   120  C    0.631187
   121  C   -0.278294
   122  H    0.155043
   123  H    0.138321
   124  O   -0.548883
   125  C    0.278162
   126  C   -0.006881
   127  H    0.108669
   128  N   -0.514834
   129  H    0.289801
   130  C    0.249208
   131  H    0.171734
   132  N   -0.518718
   133  N   -0.531196
   134  H    0.317597
   135  C   -0.051889
   136  H    0.164630
   137  C    0.580739
   138  C    0.167495
   139  H    0.100550
   140  O   -0.527740
   141  C   -0.339805
   142  H    0.128445
   143  H    0.130376
   144  H    0.100265
   145  O   -0.621681
   146  H    0.355187
   147  N   -0.531553
   148  H    0.278077
   149  C   -0.020313
   150  H    0.150356
   151  C    0.587809
   152  C   -0.051720
   153  H    0.097676
   154  O   -0.529409
   155  C   -0.323237
   156  H    0.092569
   157  H    0.133062
   158  H    0.101346
   159  C   -0.307372
   160  H    0.105508
   161  H    0.103064
   162  H    0.098588
   163  N   -0.553798
   164  H    0.287212
   165  C    0.046076
   166  H    0.119714
   167  C    0.585683
   168  C   -0.223833
   169  H    0.165106
   170  H    0.089699
   171  O   -0.594488
   172  C   -0.193540
   173  H    0.117210
   174  H    0.129887
   175  C   -0.087522
   176  H    0.111441
   177  H    0.134504
   178  N   -0.484048
   179  H    0.302772
   180  N   -0.613474
   181  H    0.322882
   182  H    0.280610
   183  N   -0.616269
   184  H    0.329196
   185  H    0.317237
   186  C    0.684715
   187  O   -0.632392
   188  H    0.354246
 Sum of Mulliken charges =   1.00000

 Dipole moment (field-independent basis, Debye):
    X=            -30.5936    Y=             -0.7664    Z=             -6.5939  Tot=             31.3055
 Quadrupole moment (field-independent basis, Debye-Ang):
   XX=           -121.7593   YY=           -494.6560   ZZ=           -522.5885
   XY=            104.3519   XZ=             82.1913   YZ=             36.3143

 Normal termination of Gaussian 16 at Fri Sep  9 20:53:36 2022.
