 Gaussian 16, Revision C.01,
 Gaussian 16:  ES64L-G16RevC.01  3-Jul-2019

 ----------------------------------------------------------------------
 # B3LYP/6-31G** empiricaldispersion=gd3bj guess=read geom=check nosymm
  integral(ultrafinegrid)
 ----------------------------------------------------------------------

 ----------------------------------------------------
 Candidate Structure: Conf:2 Charge calc in gas phase
 ----------------------------------------------------
 Structure from the checkpoint file:  "conf-2.chk"
 Charge =  1 Multiplicity = 1

                          Input orientation:
 ---------------------------------------------------------------------
 Center     Atomic      Atomic             Coordinates (Angstroms)
 Number     Number       Type             X           Y           Z
 ---------------------------------------------------------------------
      1          7           0       -7.412898   -1.865379    2.843359
      2          1           0       -8.259930   -1.614895    2.332766
      3          1           0       -7.220273   -2.933547    2.757223
      4          1           0       -7.506054   -1.566279    3.814094
      5          6           0       -6.145237   -1.355614    2.190693
      6          1           0       -6.386719   -0.641014    1.404076
      7          6           0       -5.558848   -2.664134    1.604453
      8          6           0       -5.222756   -0.702789    3.216411
      9          1           0       -5.769020    0.068182    3.773784
     10          1           0       -4.850222   -1.434102    3.940353
     11          8           0       -6.094818   -3.732069    1.983531
     12          6           0       -4.018365   -0.007512    2.533482
     13          8           0       -4.069320    0.143503    1.287524
     14          8           0       -3.107512    0.346608    3.325169
     15          7           0       -4.542830   -2.558900    0.773761
     16          1           0       -4.155734   -1.624691    0.569481
     17          6           0       -3.863049   -3.717030    0.210954
     18          1           0       -3.567563   -4.387385    1.024606
     19          6           0       -2.630903   -3.166520   -0.514226
     20          6           0       -4.766512   -4.510911   -0.783123
     21          1           0       -4.765533   -3.999983   -1.749648
     22          1           0       -5.783058   -4.481670   -0.383651
     23          8           0       -2.491433   -1.958382   -0.695696
     24          6           0       -4.329961   -5.949114   -0.938926
     25          6           0       -3.724257   -6.412457   -2.116846
     26          1           0       -3.562628   -5.719400   -2.936598
     27          6           0       -4.508886   -6.851386    0.117732
     28          1           0       -4.988144   -6.512909    1.033048
     29          6           0       -3.302096   -7.734429   -2.232829
     30          1           0       -2.836291   -8.097584   -3.142461
     31          6           0       -4.092625   -8.175454    0.011912
     32          1           0       -4.242619   -8.863378    0.840534
     33          8           0       -3.050901   -9.901891   -1.336296
     34          1           0       -3.247522  -10.417293   -0.542927
     35          6           0       -3.484707   -8.622283   -1.167685
     36          7           0       -1.761968   -4.090769   -0.993479
     37          1           0       -2.067779   -5.057511   -0.990617
     38          6           0       -0.873408   -3.696180   -2.082886
     39          1           0       -0.187004   -2.928497   -1.714632
     40          6           0       -1.724535   -3.124472   -3.228804
     41          6           0       -0.072450   -4.910597   -2.587065
     42          1           0       -0.781963   -5.699338   -2.858479
     43          1           0        0.542500   -5.286792   -1.763019
     44          8           0       -2.702742   -3.743062   -3.663884
     45          6           0        0.776953   -4.537910   -3.778029
     46          6           0        0.272323   -4.659804   -5.080254
     47          1           0       -0.716590   -5.083138   -5.228495
     48          6           0        2.042720   -3.970717   -3.609989
     49          1           0        2.457616   -3.868030   -2.610490
     50          6           0        1.001917   -4.226726   -6.180628
     51          1           0        0.614668   -4.323901   -7.188842
     52          6           0        2.788207   -3.533228   -4.703366
     53          1           0        3.773565   -3.098376   -4.554062
     54          8           0        2.938414   -3.245696   -7.107296
     55          1           0        3.799245   -2.891893   -6.847973
     56          6           0        2.266355   -3.657475   -5.994379
     57          7           0       -1.333396   -1.941728   -3.724902
     58          1           0       -0.557992   -1.417191   -3.339173
     59          6           0       -2.071488   -1.297907   -4.782927
     60          1           0       -2.218429   -2.009152   -5.601637
     61          6           0       -1.251121   -0.097163   -5.240490
     62          6           0       -3.474787   -0.809034   -4.292441
     63          1           0       -3.839544   -1.573153   -3.604537
     64          1           0       -3.349368    0.116236   -3.723531
     65          8           0       -0.323413    0.339527   -4.547933
     66          6           0       -4.452053   -0.632420   -5.427316
     67          6           0       -4.812834    0.632633   -5.908919
     68          1           0       -4.413000    1.528862   -5.446526
     69          6           0       -4.971110   -1.770607   -6.062612
     70          1           0       -4.690260   -2.752716   -5.690584
     71          6           0       -5.668188    0.759161   -7.005723
     72          1           0       -5.926224    1.748738   -7.369239
     73          6           0       -5.829456   -1.645223   -7.153000
     74          1           0       -6.224929   -2.534753   -7.633696
     75          6           0       -6.178381   -0.378964   -7.629637
     76          1           0       -6.842421   -0.282101   -8.482752
     77          7           0       -1.664888    0.484443   -6.386405
     78          1           0       -2.529566    0.152565   -6.796729
     79          6           0       -1.228974    1.827957   -6.784277
     80          1           0       -0.158713    1.886745   -6.568733
     81          6           0       -1.978477    2.858467   -5.908602
     82          6           0       -1.507582    2.049643   -8.262363
     83          1           0       -1.156790    3.037152   -8.568442
     84          1           0       -0.999491    1.290303   -8.861277
     85          1           0       -2.582791    2.010692   -8.454555
     86          8           0       -2.937359    3.504067   -6.321559
     87          7           0       -1.509825    2.941546   -4.634759
     88          1           0       -0.791888    2.289348   -4.327949
     89          6           0       -2.176902    3.755237   -3.635045
     90          1           0       -2.742624    4.510824   -4.183261
     91          6           0       -1.093659    4.392336   -2.775999
     92          6           0       -3.135807    2.929356   -2.753821
     93          1           0       -3.876623    2.474651   -3.421728
     94          1           0       -2.557828    2.107085   -2.313852
     95          8           0       -0.207281    3.701972   -2.250355
     96          6           0       -3.861515    3.715454   -1.646783
     97          1           0       -3.111225    4.121321   -0.954725
     98          6           0       -4.671672    4.889855   -2.213241
     99          1           0       -5.389365    4.544267   -2.966315
    100          1           0       -5.232742    5.388142   -1.417318
    101          1           0       -4.042580    5.651389   -2.683832
    102          6           0       -4.788363    2.776980   -0.862632
    103          1           0       -5.564392    2.367960   -1.521587
    104          1           0       -5.290264    3.319853   -0.055243
    105          1           0       -4.261170    1.934627   -0.407686
    106          7           0       -1.155027    5.725510   -2.619112
    107          1           0       -1.905335    6.233307   -3.063322
    108          6           0       -0.236180    6.458475   -1.760946
    109          1           0        0.752613    6.473340   -2.235227
    110          6           0       -0.135422    5.756746   -0.395227
    111          6           0       -0.749326    7.885331   -1.563588
    112          1           0       -0.045522    8.457724   -0.955351
    113          1           0       -1.713705    7.863030   -1.049012
    114          1           0       -0.860594    8.396747   -2.524496
    115          8           0       -1.128395    5.379930    0.218668
    116          7           0        1.127843    5.651985    0.074253
    117          1           0        1.923870    5.992882   -0.451821
    118          6           0        1.454726    5.094219    1.363141
    119          1           0        0.631480    5.296573    2.053990
    120          6           0        2.756441    5.749856    1.832541
    121          6           0        1.713609    3.554301    1.305559
    122          1           0        2.315644    3.262612    2.172320
    123          1           0        2.310731    3.348791    0.411815
    124          8           0        3.561085    6.198427    1.027003
    125          6           0        0.476755    2.724642    1.329154
    126          6           0       -0.129428    2.117710    2.397023
    127          1           0        0.170149    2.082044    3.432102
    128          7           0       -0.317502    2.434811    0.230970
    129          1           0       -0.204059    2.821716   -0.716216
    130          6           0       -1.364738    1.696499    0.628410
    131          1           0       -2.155366    1.301806    0.011902
    132          7           0       -1.265874    1.492101    1.938115
    133          7           0        2.943202    5.724803    3.188586
    134          1           0        2.321163    5.093958    3.688532
    135          6           0        4.296297    5.637688    3.739277
    136          1           0        4.987720    6.009710    2.979810
    137          6           0        4.536781    4.150030    4.044422
    138          6           0        4.396716    6.535194    4.997472
    139          1           0        3.726028    6.104850    5.761823
    140          8           0        3.573918    3.398680    4.247750
    141          6           0        5.807674    6.630440    5.558755
    142          1           0        6.176460    5.669251    5.922042
    143          1           0        6.494131    7.005873    4.792873
    144          1           0        5.812801    7.340846    6.388451
    145          8           0        3.993595    7.849404    4.660815
    146          1           0        3.161618    7.768806    4.171353
    147          7           0        5.817332    3.749562    4.061389
    148          1           0        6.575415    4.423905    4.021273
    149          6           0        6.239101    2.429371    4.506303
    150          1           0        5.407700    1.980376    5.057589
    151          6           0        7.440605    2.682313    5.429002
    152          6           0        6.611579    1.509141    3.310464
    153          1           0        7.504145    1.945916    2.841582
    154          8           0        8.151192    3.682681    5.255460
    155          6           0        6.942232    0.084178    3.773202
    156          1           0        6.078599   -0.371239    4.272589
    157          1           0        7.784336    0.040147    4.466449
    158          1           0        7.187442   -0.542228    2.910514
    159          6           0        5.480538    1.485689    2.274623
    160          1           0        4.552941    1.113814    2.721689
    161          1           0        5.747109    0.828759    1.441033
    162          1           0        5.284828    2.481560    1.869688
    163          7           0        7.654890    1.779127    6.393836
    164          1           0        7.167013    0.884859    6.435376
    165          6           0        8.866742    1.775024    7.192569
    166          1           0        9.708134    1.993036    6.522375
    167          6           0        9.052100    0.310885    7.701361
    168          6           0        8.838303    2.863777    8.304945
    169          1           0        7.886573    3.391166    8.212859
    170          1           0        8.838429    2.390864    9.294057
    171          8           0       10.089292    0.108020    8.436129
    172          6           0        9.975957    3.897141    8.210262
    173          1           0        9.674889    4.825851    8.707855
    174          1           0       10.138384    4.140673    7.154757
    175          6           0       11.284371    3.433610    8.868693
    176          1           0       11.154674    3.396631    9.955710
    177          1           0       12.091976    4.150165    8.679826
    178          7           0       11.653221    2.091935    8.442180
    179          1           0       10.916712    1.282572    8.601454
    180          7           0       13.422613    2.626128    6.976479
    181          1           0       14.286338    2.264513    6.601904
    182          1           0       13.470923    3.563789    7.341501
    183          7           0       12.657668    0.439323    7.227025
    184          1           0       13.091097    0.198956    6.349137
    185          1           0       11.863354   -0.131836    7.527944
    186          6           0       12.566618    1.748894    7.563858
    187          8           0        8.224287   -0.530974    7.340960
    188          1           0       -2.020076    0.976063    2.535283
 ---------------------------------------------------------------------

 SCF Done:  E(RB3LYP) =  -4649.14211539     A.U. after    2 cycles

 Alpha  occ. eigenvalues --  -19.24063 -19.23371 -19.22730 -19.20214 -19.19673
 Alpha  occ. eigenvalues --  -19.19508 -19.19268 -19.18967 -19.18222 -19.18045
 Alpha  occ. eigenvalues --  -19.17794 -19.17514 -19.17402 -19.17402 -19.16489
 Alpha  occ. eigenvalues --  -19.14133 -19.13118 -14.55795 -14.46853 -14.45522
 Alpha  occ. eigenvalues --  -14.45238 -14.45164 -14.44739 -14.43038 -14.43035
 Alpha  occ. eigenvalues --  -14.42913 -14.42780 -14.42767 -14.41956 -14.41781
 Alpha  occ. eigenvalues --  -14.41700 -14.41483 -14.39668 -10.39990 -10.39841
 Alpha  occ. eigenvalues --  -10.36914 -10.36478 -10.36284 -10.36246 -10.36010
 Alpha  occ. eigenvalues --  -10.35932 -10.35658 -10.34914 -10.34625 -10.34370
 Alpha  occ. eigenvalues --  -10.33863 -10.33238 -10.31587 -10.31484 -10.31239
 Alpha  occ. eigenvalues --  -10.31012 -10.30756 -10.30641 -10.29976 -10.29840
 Alpha  occ. eigenvalues --  -10.29817 -10.29735 -10.29523 -10.29483 -10.29369
 Alpha  occ. eigenvalues --  -10.29245 -10.29226 -10.28985 -10.28146 -10.27566
 Alpha  occ. eigenvalues --  -10.26362 -10.26203 -10.26037 -10.25541 -10.25194
 Alpha  occ. eigenvalues --  -10.25190 -10.25138 -10.25061 -10.25007 -10.24900
 Alpha  occ. eigenvalues --  -10.24649 -10.24634 -10.24452 -10.24346 -10.24336
 Alpha  occ. eigenvalues --  -10.24271 -10.24216 -10.24136 -10.24135 -10.24115
 Alpha  occ. eigenvalues --  -10.24109 -10.24053 -10.24046 -10.23998 -10.23579
 Alpha  occ. eigenvalues --  -10.23466 -10.23308 -10.23255 -10.22484 -10.22379
 Alpha  occ. eigenvalues --  -10.22227 -10.21958  -1.16263  -1.12336  -1.11745
 Alpha  occ. eigenvalues --   -1.11691  -1.11618  -1.11561  -1.11212  -1.10951
 Alpha  occ. eigenvalues --   -1.10869  -1.10084  -1.09770  -1.09732  -1.09446
 Alpha  occ. eigenvalues --   -1.09105  -1.08856  -1.08196  -1.06981  -1.06796
 Alpha  occ. eigenvalues --   -1.03093  -1.02088  -1.01061  -0.99825  -0.99787
 Alpha  occ. eigenvalues --   -0.99740  -0.99470  -0.99262  -0.98838  -0.98432
 Alpha  occ. eigenvalues --   -0.98311  -0.97689  -0.97614  -0.96855  -0.96221
 Alpha  occ. eigenvalues --   -0.91542  -0.91062  -0.90728  -0.89307  -0.88160
 Alpha  occ. eigenvalues --   -0.87492  -0.86508  -0.86021  -0.85480  -0.85282
 Alpha  occ. eigenvalues --   -0.84599  -0.84175  -0.83551  -0.82898  -0.81598
 Alpha  occ. eigenvalues --   -0.80596  -0.80519  -0.80344  -0.79899  -0.79676
 Alpha  occ. eigenvalues --   -0.79442  -0.79365  -0.77965  -0.77439  -0.77011
 Alpha  occ. eigenvalues --   -0.75988  -0.74812  -0.74019  -0.73354  -0.73226
 Alpha  occ. eigenvalues --   -0.73031  -0.72721  -0.72485  -0.72072  -0.71817
 Alpha  occ. eigenvalues --   -0.70776  -0.70100  -0.69968  -0.69539  -0.69158
 Alpha  occ. eigenvalues --   -0.68160  -0.68051  -0.67936  -0.67335  -0.67023
 Alpha  occ. eigenvalues --   -0.66339  -0.66258  -0.65862  -0.65840  -0.65449
 Alpha  occ. eigenvalues --   -0.65213  -0.65197  -0.64846  -0.64666  -0.64521
 Alpha  occ. eigenvalues --   -0.64145  -0.64054  -0.63998  -0.63440  -0.63236
 Alpha  occ. eigenvalues --   -0.62801  -0.62503  -0.62437  -0.62194  -0.61829
 Alpha  occ. eigenvalues --   -0.61479  -0.60974  -0.60060  -0.59908  -0.59622
 Alpha  occ. eigenvalues --   -0.59322  -0.59309  -0.58872  -0.57976  -0.57652
 Alpha  occ. eigenvalues --   -0.57566  -0.57042  -0.56833  -0.56786  -0.56481
 Alpha  occ. eigenvalues --   -0.56119  -0.55949  -0.55785  -0.55456  -0.54976
 Alpha  occ. eigenvalues --   -0.54813  -0.54741  -0.54630  -0.54190  -0.54114
 Alpha  occ. eigenvalues --   -0.53830  -0.53791  -0.53635  -0.53347  -0.53114
 Alpha  occ. eigenvalues --   -0.53047  -0.52955  -0.52659  -0.52658  -0.52235
 Alpha  occ. eigenvalues --   -0.52107  -0.51695  -0.51634  -0.51591  -0.51414
 Alpha  occ. eigenvalues --   -0.51295  -0.51258  -0.51135  -0.51048  -0.50825
 Alpha  occ. eigenvalues --   -0.50671  -0.50354  -0.50000  -0.49972  -0.49853
 Alpha  occ. eigenvalues --   -0.49605  -0.49545  -0.49032  -0.48997  -0.48940
 Alpha  occ. eigenvalues --   -0.48764  -0.48748  -0.48506  -0.48431  -0.48396
 Alpha  occ. eigenvalues --   -0.48217  -0.47857  -0.47685  -0.47624  -0.47525
 Alpha  occ. eigenvalues --   -0.47356  -0.47060  -0.46987  -0.46953  -0.46808
 Alpha  occ. eigenvalues --   -0.46777  -0.46674  -0.46286  -0.46263  -0.46169
 Alpha  occ. eigenvalues --   -0.45819  -0.45680  -0.45560  -0.45393  -0.45088
 Alpha  occ. eigenvalues --   -0.45054  -0.44907  -0.44857  -0.44795  -0.44720
 Alpha  occ. eigenvalues --   -0.44514  -0.44421  -0.44260  -0.44128  -0.43997
 Alpha  occ. eigenvalues --   -0.43793  -0.43747  -0.43631  -0.43529  -0.43465
 Alpha  occ. eigenvalues --   -0.43362  -0.43336  -0.43294  -0.43166  -0.43133
 Alpha  occ. eigenvalues --   -0.43035  -0.42895  -0.42544  -0.42338  -0.42061
 Alpha  occ. eigenvalues --   -0.41878  -0.41675  -0.41375  -0.41250  -0.41224
 Alpha  occ. eigenvalues --   -0.41037  -0.40753  -0.40484  -0.40079  -0.39745
 Alpha  occ. eigenvalues --   -0.39440  -0.39256  -0.39251  -0.39153  -0.38997
 Alpha  occ. eigenvalues --   -0.38926  -0.38659  -0.38579  -0.38572  -0.38367
 Alpha  occ. eigenvalues --   -0.38288  -0.38155  -0.38112  -0.38014  -0.37784
 Alpha  occ. eigenvalues --   -0.37769  -0.36206  -0.36100  -0.35010  -0.34779
 Alpha  occ. eigenvalues --   -0.34417  -0.34273  -0.34215  -0.33637  -0.33504
 Alpha  occ. eigenvalues --   -0.33049  -0.32964  -0.32934  -0.32766  -0.32612
 Alpha  occ. eigenvalues --   -0.32412  -0.32034  -0.31938  -0.31854  -0.31810
 Alpha  occ. eigenvalues --   -0.31411  -0.31032  -0.30794  -0.30786  -0.30694
 Alpha  occ. eigenvalues --   -0.30488  -0.30278  -0.30271  -0.30238  -0.29885
 Alpha  occ. eigenvalues --   -0.29500  -0.29417  -0.28401  -0.27634  -0.27203
 Alpha  occ. eigenvalues --   -0.26878
 Alpha virt. eigenvalues --   -0.09041  -0.07738  -0.06906  -0.06850  -0.06724
 Alpha virt. eigenvalues --   -0.06552  -0.06030  -0.05830  -0.05617  -0.05482
 Alpha virt. eigenvalues --   -0.04966  -0.04728  -0.04579  -0.04393  -0.04307

 Mulliken charges:
               1
     1  N   -0.569155
     2  H    0.341597
     3  H    0.371934
     4  H    0.337918
     5  C   -0.074147
     6  H    0.186125
     7  C    0.628909
     8  C   -0.284301
     9  H    0.141335
    10  H    0.147379
    11  O   -0.570244
    12  C    0.615483
    13  O   -0.582800
    14  O   -0.588556
    15  N   -0.535897
    16  H    0.346685
    17  C   -0.002412
    18  H    0.147128
    19  C    0.598495
    20  C   -0.251231
    21  H    0.139057
    22  H    0.132963
    23  O   -0.536467
    24  C    0.060587
    25  C   -0.167195
    26  H    0.140171
    27  C   -0.126907
    28  H    0.099412
    29  C   -0.105958
    30  H    0.108209
    31  C   -0.130867
    32  H    0.085731
    33  O   -0.548709
    34  H    0.322371
    35  C    0.331433
    36  N   -0.526609
    37  H    0.281347
    38  C    0.018668
    39  H    0.119975
    40  C    0.642153
    41  C   -0.277985
    42  H    0.125733
    43  H    0.121170
    44  O   -0.571129
    45  C    0.094672
    46  C   -0.122164
    47  H    0.101600
    48  C   -0.130517
    49  H    0.083874
    50  C   -0.105839
    51  H    0.102382
    52  C   -0.127809
    53  H    0.081217
    54  O   -0.553302
    55  H    0.320270
    56  C    0.330011
    57  N   -0.515155
    58  H    0.287041
    59  C    0.015363
    60  H    0.144346
    61  C    0.599266
    62  C   -0.248184
    63  H    0.147530
    64  H    0.107992
    65  O   -0.562918
    66  C    0.075858
    67  C   -0.159778
    68  H    0.105999
    69  C   -0.126346
    70  H    0.111376
    71  C   -0.088882
    72  H    0.106233
    73  C   -0.086342
    74  H    0.097021
    75  C   -0.086911
    76  H    0.097248
    77  N   -0.510600
    78  H    0.283425
    79  C   -0.027353
    80  H    0.141272
    81  C    0.609789
    82  C   -0.323414
    83  H    0.129773
    84  H    0.118119
    85  H    0.135271
    86  O   -0.534167
    87  N   -0.542254
    88  H    0.301704
    89  C   -0.022080
    90  H    0.134206
    91  C    0.647678
    92  C   -0.168579
    93  H    0.116478
    94  H    0.096610
    95  O   -0.587566
    96  C   -0.096610
    97  H    0.127711
    98  C   -0.303552
    99  H    0.112106
   100  H    0.111579
   101  H    0.070999
   102  C   -0.330114
   103  H    0.093764
   104  H    0.098956
   105  H    0.128464
   106  N   -0.510449
   107  H    0.281885
   108  C    0.012371
   109  H    0.124503
   110  C    0.623232
   111  C   -0.353133
   112  H    0.138192
   113  H    0.145738
   114  H    0.126078
   115  O   -0.540051
   116  N   -0.528436
   117  H    0.283881
   118  C   -0.013936
   119  H    0.147008
   120  C    0.582901
   121  C   -0.260950
   122  H    0.167459
   123  H    0.138990
   124  O   -0.507023
   125  C    0.291995
   126  C    0.038548
   127  H    0.151904
   128  N   -0.540362
   129  H    0.344777
   130  C    0.341658
   131  H    0.194055
   132  N   -0.515153
   133  N   -0.537723
   134  H    0.276376
   135  C   -0.065550
   136  H    0.150334
   137  C    0.613997
   138  C    0.192488
   139  H    0.081362
   140  O   -0.562244
   141  C   -0.337420
   142  H    0.119650
   143  H    0.117861
   144  H    0.129919
   145  O   -0.537859
   146  H    0.312801
   147  N   -0.514418
   148  H    0.288418
   149  C   -0.013666
   150  H    0.134183
   151  C    0.600562
   152  C   -0.046877
   153  H    0.097250
   154  O   -0.567683
   155  C   -0.330681
   156  H    0.109669
   157  H    0.125865
   158  H    0.105301
   159  C   -0.313242
   160  H    0.114248
   161  H    0.100560
   162  H    0.102612
   163  N   -0.528424
   164  H    0.288752
   165  C   -0.011573
   166  H    0.112262
   167  C    0.588622
   168  C   -0.193607
   169  H    0.121668
   170  H    0.116559
   171  O   -0.633119
   172  C   -0.188209
   173  H    0.106810
   174  H    0.131295
   175  C   -0.074339
   176  H    0.139497
   177  H    0.090542
   178  N   -0.541751
   179  H    0.383497
   180  N   -0.618769
   181  H    0.294043
   182  H    0.295904
   183  N   -0.625681
   184  H    0.281988
   185  H    0.323152
   186  C    0.724750
   187  O   -0.533715
   188  H    0.389908
 Sum of Mulliken charges =   1.00000

 Dipole moment (field-independent basis, Debye):
    X=             -1.0171    Y=              3.3178    Z=              6.6496  Tot=              7.5007
 Quadrupole moment (field-independent basis, Debye-Ang):
   XX=           -141.0980   YY=           -482.3479   ZZ=           -481.9106
   XY=            100.5719   XZ=             52.1372   YZ=             18.3615

 Normal termination of Gaussian 16 at Fri Sep  9 20:48:11 2022.
