 Gaussian 16, Revision C.01,
 Gaussian 16:  ES64L-G16RevC.01  3-Jul-2019

 ----------------------------------------------------------------------
 # B3LYP/6-31G** empiricaldispersion=gd3bj guess=read geom=check nosymm
  integral(ultrafinegrid)
 ----------------------------------------------------------------------

 ------------------------------------------------------
 Candidate Structure: Conf:617 Charge calc in gas phase
 ------------------------------------------------------
 Structure from the checkpoint file:  "conf-617.chk"
 Charge =  1 Multiplicity = 1

                          Input orientation:
 ---------------------------------------------------------------------
 Center     Atomic      Atomic             Coordinates (Angstroms)
 Number     Number       Type             X           Y           Z
 ---------------------------------------------------------------------
      1          7           0      -11.918856   -1.894838   -0.762965
      2          1           0      -12.315521   -0.975696   -0.565983
      3          1           0      -12.088285   -2.192717   -1.819047
      4          1           0      -12.319461   -2.573344   -0.114350
      5          6           0      -10.413614   -1.902226   -0.796707
      6          1           0      -10.038500   -0.902218   -0.574037
      7          6           0      -10.147411   -2.257179   -2.289839
      8          6           0       -9.825257   -2.907887    0.198386
      9          1           0      -10.319214   -2.822888    1.173906
     10          1           0       -9.953911   -3.941208   -0.139911
     11          8           0      -11.166999   -2.489639   -2.979764
     12          6           0       -8.345885   -2.630203    0.421138
     13          8           0       -7.765052   -1.679169   -0.058062
     14          8           0       -7.793284   -3.545930    1.214263
     15          7           0       -8.904679   -2.308973   -2.708811
     16          1           0       -8.111095   -2.121810   -2.087973
     17          6           0       -8.519952   -2.692765   -4.064081
     18          1           0       -9.132380   -3.543791   -4.375629
     19          6           0       -7.040428   -3.094143   -3.938887
     20          6           0       -8.722098   -1.522642   -5.068486
     21          1           0       -7.947422   -0.772587   -4.888606
     22          1           0       -9.692800   -1.071984   -4.838657
     23          8           0       -6.443874   -2.919831   -2.875822
     24          6           0       -8.699257   -1.975308   -6.510033
     25          6           0       -7.616580   -1.674854   -7.351687
     26          1           0       -6.774303   -1.119202   -6.951882
     27          6           0       -9.759944   -2.726996   -7.031121
     28          1           0      -10.614734   -2.959880   -6.400415
     29          6           0       -7.592387   -2.117173   -8.670945
     30          1           0       -6.760595   -1.883854   -9.326553
     31          6           0       -9.746776   -3.174470   -8.349447
     32          1           0      -10.580623   -3.753446   -8.738348
     33          8           0       -8.577785   -3.275144  -10.471597
     34          1           0       -9.375976   -3.763963  -10.712319
     35          6           0       -8.658865   -2.869502   -9.176752
     36          7           0       -6.462250   -3.596270   -5.049051
     37          1           0       -6.979926   -3.505408   -5.915718
     38          6           0       -5.009375   -3.574285   -5.159408
     39          1           0       -4.585584   -4.237629   -4.399959
     40          6           0       -4.489863   -2.141416   -4.933514
     41          6           0       -4.595987   -4.061464   -6.570365
     42          1           0       -5.166129   -3.486308   -7.307902
     43          1           0       -4.893102   -5.110729   -6.669875
     44          8           0       -5.107728   -1.158379   -5.348896
     45          6           0       -3.117084   -3.882995   -6.809124
     46          6           0       -2.632607   -2.718482   -7.419605
     47          1           0       -3.337620   -1.986713   -7.803667
     48          6           0       -2.190360   -4.803027   -6.311033
     49          1           0       -2.539073   -5.717261   -5.837734
     50          6           0       -1.269203   -2.462995   -7.509434
     51          1           0       -0.893546   -1.558039   -7.973217
     52          6           0       -0.820722   -4.561381   -6.392204
     53          1           0       -0.114501   -5.279409   -5.983901
     54          8           0        0.968576   -3.066349   -7.060110
     55          1           0        1.492168   -3.788029   -6.687156
     56          6           0       -0.358337   -3.382083   -6.980508
     57          7           0       -3.293479   -2.064418   -4.326144
     58          1           0       -2.771286   -2.898171   -4.078690
     59          6           0       -2.503802   -0.851045   -4.348156
     60          1           0       -2.707299   -0.324119   -5.285116
     61          6           0       -1.036532   -1.289270   -4.307232
     62          6           0       -2.868395    0.089157   -3.167113
     63          1           0       -3.928049    0.332980   -3.289155
     64          1           0       -2.759114   -0.473670   -2.235270
     65          8           0       -0.724320   -2.385717   -3.822024
     66          6           0       -2.005358    1.325365   -3.145790
     67          6           0       -1.007554    1.476944   -2.178260
     68          1           0       -0.926128    0.741023   -1.385794
     69          6           0       -2.104867    2.281477   -4.167248
     70          1           0       -2.887229    2.188079   -4.916868
     71          6           0       -0.104795    2.538647   -2.232931
     72          1           0        0.681705    2.628647   -1.490641
     73          6           0       -1.204215    3.346876   -4.228249
     74          1           0       -1.288662    4.079283   -5.025528
     75          6           0       -0.198512    3.470829   -3.267184
     76          1           0        0.510808    4.290182   -3.321554
     77          7           0       -0.146315   -0.422999   -4.826165
     78          1           0       -0.462922    0.517381   -5.031064
     79          6           0        1.303889   -0.638733   -4.757726
     80          1           0        1.459406   -1.707346   -4.920986
     81          6           0        1.789154   -0.255246   -3.346933
     82          6           0        1.998503    0.172355   -5.838534
     83          1           0        3.077472    0.012383   -5.790145
     84          1           0        1.639633   -0.135018   -6.823025
     85          1           0        1.820746    1.240481   -5.688255
     86          8           0        2.358116    0.813517   -3.121029
     87          7           0        1.479720   -1.162311   -2.389844
     88          1           0        0.904660   -1.952516   -2.667857
     89          6           0        1.533688   -0.810695   -0.971676
     90          1           0        1.261149    0.245582   -0.902942
     91          6           0        2.962737   -0.928737   -0.400073
     92          6           0        0.551527   -1.660275   -0.171084
     93          1           0       -0.415384   -1.654189   -0.693589
     94          1           0        0.918400   -2.692208   -0.167129
     95          8           0        3.331839   -1.858556    0.305245
     96          6           0        0.358265   -1.194611    1.283723
     97          1           0        1.343775   -1.191442    1.759622
     98          6           0       -0.223694    0.221574    1.383740
     99          1           0       -1.213887    0.278264    0.913880
    100          1           0       -0.342223    0.512916    2.432370
    101          1           0        0.415838    0.971643    0.911003
    102          6           0       -0.532101   -2.194573    2.029641
    103          1           0       -1.530769   -2.244092    1.576341
    104          1           0       -0.656951   -1.905341    3.078051
    105          1           0       -0.102736   -3.201248    2.006835
    106          7           0        3.750170    0.137811   -0.712696
    107          1           0        3.354780    0.833518   -1.340107
    108          6           0        4.877720    0.492520    0.108410
    109          1           0        5.554243   -0.365143    0.196946
    110          6           0        4.372995    0.850004    1.527760
    111          6           0        5.591503    1.696710   -0.522723
    112          1           0        6.504820    1.964750    0.013444
    113          1           0        4.923607    2.564147   -0.523468
    114          1           0        5.862691    1.460739   -1.554207
    115          8           0        3.167494    0.832016    1.815158
    116          7           0        5.311948    1.244173    2.413278
    117          1           0        6.267553    1.330797    2.096127
    118          6           0        4.982355    1.901474    3.688002
    119          1           0        4.199932    1.314791    4.175619
    120          6           0        4.455210    3.311551    3.348708
    121          6           0        6.232676    1.963004    4.572504
    122          1           0        6.977166    2.586892    4.062457
    123          1           0        6.638533    0.949934    4.650709
    124          8           0        5.180145    4.309756    3.396265
    125          6           0        5.985052    2.475006    5.952901
    126          6           0        5.982667    1.826152    7.169198
    127          1           0        6.153816    0.773352    7.351312
    128          7           0        5.738387    3.799954    6.260907
    129          1           0        5.608471    4.570118    5.614197
    130          6           0        5.601166    3.881367    7.613440
    131          1           0        5.403185    4.821746    8.105513
    132          7           0        5.744007    2.706921    8.199594
    133          7           0        3.171467    3.345674    2.932968
    134          1           0        2.701855    2.450206    2.859781
    135          6           0        2.606587    4.491965    2.218101
    136          1           0        3.446439    5.022563    1.755674
    137          6           0        1.925468    5.429074    3.241796
    138          6           0        1.636303    4.012237    1.119176
    139          1           0        0.756016    3.576725    1.612109
    140          8           0        0.717573    5.661535    3.230139
    141          6           0        1.195650    5.165508    0.230644
    142          1           0        0.719417    5.942091    0.828828
    143          1           0        2.061722    5.582359   -0.294004
    144          1           0        0.482961    4.807008   -0.515211
    145          8           0        2.256410    3.042352    0.267077
    146          1           0        2.405362    2.215927    0.759128
    147          7           0        2.787095    5.922693    4.158295
    148          1           0        3.769953    5.659866    4.116121
    149          6           0        2.357579    6.638171    5.345788
    150          1           0        1.770123    7.514433    5.045405
    151          6           0        3.633732    7.092797    6.058615
    152          6           0        1.452182    5.758062    6.263370
    153          1           0        0.640646    5.441542    5.601621
    154          8           0        4.702981    6.484044    5.927728
    155          6           0        2.179614    4.513719    6.777361
    156          1           0        2.972452    4.768875    7.485276
    157          1           0        2.635246    3.948139    5.960503
    158          1           0        1.477320    3.852208    7.293511
    159          6           0        0.831208    6.563939    7.408851
    160          1           0        1.576912    6.871557    8.147890
    161          1           0        0.084777    5.957420    7.930283
    162          1           0        0.324004    7.463965    7.042380
    163          7           0        3.508463    8.167865    6.855800
    164          1           0        2.634120    8.672606    6.942954
    165          6           0        4.582719    8.658543    7.699398
    166          1           0        5.112037    7.812562    8.144060
    167          6           0        3.955816    9.504028    8.800994
    168          6           0        5.594647    9.509072    6.877723
    169          1           0        6.151137    8.807455    6.251875
    170          1           0        5.012617   10.144962    6.199306
    171          8           0        4.735811    9.584097    9.859937
    172          6           0        6.549765   10.379392    7.715807
    173          1           0        7.488642   10.519123    7.167289
    174          1           0        6.794661    9.874905    8.653273
    175          6           0        5.945068   11.763793    8.025256
    176          1           0        4.892887   11.694440    8.299917
    177          1           0        5.985342   12.380800    7.119148
    178          7           0        6.611545   12.490608    9.097138
    179          1           0        7.592104   12.697416    8.975604
    180          7           0        5.083460   11.952201   10.781630
    181          1           0        4.775793   12.259928   11.699083
    182          1           0        4.693137   10.527574   10.307524
    183          7           0        6.911302   13.422021   11.173901
    184          1           0        6.567012   13.571953   12.110667
    185          1           0        7.262701   14.262114   10.734485
    186          6           0        6.138784   12.590852   10.375187
    187          8           0        2.896238   10.089395    8.630864
    188          1           0       -6.849802   -3.326060    1.319003
 ---------------------------------------------------------------------

 SCF Done:  E(RB3LYP) =  -4649.10975080     A.U. after    2 cycles

 Alpha  occ. eigenvalues --  -19.32530 -19.28045 -19.27344 -19.24829 -19.24100
 Alpha  occ. eigenvalues --  -19.21452 -19.18991 -19.18525 -19.18460 -19.18211
 Alpha  occ. eigenvalues --  -19.18063 -19.16914 -19.16783 -19.15513 -19.15376
 Alpha  occ. eigenvalues --  -19.14846 -19.14469 -14.59221 -14.49561 -14.44481
 Alpha  occ. eigenvalues --  -14.42760 -14.42698 -14.42229 -14.40570 -14.40337
 Alpha  occ. eigenvalues --  -14.40222 -14.40070 -14.39416 -14.38920 -14.38493
 Alpha  occ. eigenvalues --  -14.38000 -14.34620 -14.31773 -10.46002 -10.44119
 Alpha  occ. eigenvalues --  -10.41481 -10.38201 -10.36353 -10.35600 -10.35349
 Alpha  occ. eigenvalues --  -10.34988 -10.34389 -10.34169 -10.33603 -10.33319
 Alpha  occ. eigenvalues --  -10.33267 -10.32396 -10.32377 -10.31674 -10.31564
 Alpha  occ. eigenvalues --  -10.31102 -10.31000 -10.29821 -10.28726 -10.28642
 Alpha  occ. eigenvalues --  -10.28531 -10.28407 -10.27657 -10.26991 -10.26916
 Alpha  occ. eigenvalues --  -10.26903 -10.26780 -10.26723 -10.26490 -10.26205
 Alpha  occ. eigenvalues --  -10.26182 -10.26008 -10.25701 -10.25689 -10.25500
 Alpha  occ. eigenvalues --  -10.25413 -10.25179 -10.25098 -10.25092 -10.24787
 Alpha  occ. eigenvalues --  -10.24624 -10.24258 -10.24050 -10.24022 -10.23963
 Alpha  occ. eigenvalues --  -10.23690 -10.23377 -10.23364 -10.23208 -10.22995
 Alpha  occ. eigenvalues --  -10.22854 -10.22375 -10.22297 -10.22177 -10.21913
 Alpha  occ. eigenvalues --  -10.21775 -10.21079 -10.21053 -10.20714 -10.20262
 Alpha  occ. eigenvalues --  -10.20091 -10.19286  -1.23927  -1.20416  -1.15130
 Alpha  occ. eigenvalues --   -1.13803  -1.13171  -1.13075  -1.12075  -1.10963
 Alpha  occ. eigenvalues --   -1.10521  -1.10507  -1.09979  -1.08647  -1.08408
 Alpha  occ. eigenvalues --   -1.07374  -1.06546  -1.06544  -1.06173  -1.05250
 Alpha  occ. eigenvalues --   -1.03350  -1.02121  -1.01646  -1.01534  -0.99363
 Alpha  occ. eigenvalues --   -0.99148  -0.99000  -0.97160  -0.97034  -0.96076
 Alpha  occ. eigenvalues --   -0.96034  -0.95044  -0.94929  -0.93960  -0.93185
 Alpha  occ. eigenvalues --   -0.91908  -0.90669  -0.89831  -0.88980  -0.87380
 Alpha  occ. eigenvalues --   -0.86394  -0.85325  -0.84864  -0.84621  -0.84462
 Alpha  occ. eigenvalues --   -0.83712  -0.82536  -0.82399  -0.82229  -0.81910
 Alpha  occ. eigenvalues --   -0.81374  -0.81055  -0.81007  -0.79882  -0.79172
 Alpha  occ. eigenvalues --   -0.78226  -0.77944  -0.77823  -0.76365  -0.75921
 Alpha  occ. eigenvalues --   -0.75627  -0.74962  -0.73994  -0.73065  -0.72781
 Alpha  occ. eigenvalues --   -0.72286  -0.72064  -0.71596  -0.71054  -0.70901
 Alpha  occ. eigenvalues --   -0.70647  -0.70459  -0.69845  -0.69636  -0.69038
 Alpha  occ. eigenvalues --   -0.68527  -0.68301  -0.67527  -0.66645  -0.66389
 Alpha  occ. eigenvalues --   -0.65885  -0.65614  -0.65534  -0.64940  -0.64855
 Alpha  occ. eigenvalues --   -0.64634  -0.64475  -0.64398  -0.63723  -0.63459
 Alpha  occ. eigenvalues --   -0.63266  -0.62642  -0.62499  -0.62238  -0.62018
 Alpha  occ. eigenvalues --   -0.61624  -0.61403  -0.61190  -0.61129  -0.61005
 Alpha  occ. eigenvalues --   -0.60544  -0.60336  -0.60276  -0.60002  -0.59645
 Alpha  occ. eigenvalues --   -0.59322  -0.59134  -0.58884  -0.58100  -0.57848
 Alpha  occ. eigenvalues --   -0.57662  -0.57567  -0.57388  -0.57068  -0.56627
 Alpha  occ. eigenvalues --   -0.56159  -0.55970  -0.55764  -0.55184  -0.54932
 Alpha  occ. eigenvalues --   -0.54814  -0.54747  -0.54656  -0.54271  -0.54075
 Alpha  occ. eigenvalues --   -0.53773  -0.53706  -0.53269  -0.53179  -0.53149
 Alpha  occ. eigenvalues --   -0.52831  -0.52549  -0.52279  -0.52180  -0.51955
 Alpha  occ. eigenvalues --   -0.51794  -0.51357  -0.51207  -0.51172  -0.51038
 Alpha  occ. eigenvalues --   -0.50988  -0.50872  -0.50390  -0.50116  -0.50051
 Alpha  occ. eigenvalues --   -0.49840  -0.49700  -0.49617  -0.49440  -0.49350
 Alpha  occ. eigenvalues --   -0.49282  -0.49078  -0.48639  -0.48471  -0.48223
 Alpha  occ. eigenvalues --   -0.48208  -0.47781  -0.47511  -0.47288  -0.47155
 Alpha  occ. eigenvalues --   -0.47049  -0.46939  -0.46796  -0.46703  -0.46545
 Alpha  occ. eigenvalues --   -0.46403  -0.46323  -0.46188  -0.46150  -0.45911
 Alpha  occ. eigenvalues --   -0.45433  -0.45377  -0.45205  -0.45158  -0.44992
 Alpha  occ. eigenvalues --   -0.44951  -0.44896  -0.44758  -0.44649  -0.44622
 Alpha  occ. eigenvalues --   -0.44286  -0.44246  -0.43933  -0.43881  -0.43597
 Alpha  occ. eigenvalues --   -0.43502  -0.43413  -0.43319  -0.43274  -0.43081
 Alpha  occ. eigenvalues --   -0.42973  -0.42734  -0.42605  -0.42568  -0.42496
 Alpha  occ. eigenvalues --   -0.42416  -0.42106  -0.42011  -0.41939  -0.41735
 Alpha  occ. eigenvalues --   -0.41459  -0.41405  -0.41225  -0.41139  -0.41076
 Alpha  occ. eigenvalues --   -0.40934  -0.40899  -0.40838  -0.40513  -0.40470
 Alpha  occ. eigenvalues --   -0.40358  -0.40228  -0.40081  -0.40037  -0.39957
 Alpha  occ. eigenvalues --   -0.39835  -0.39599  -0.39355  -0.39191  -0.39158
 Alpha  occ. eigenvalues --   -0.38886  -0.38794  -0.38527  -0.38304  -0.37595
 Alpha  occ. eigenvalues --   -0.37380  -0.36672  -0.36534  -0.36361  -0.36057
 Alpha  occ. eigenvalues --   -0.36023  -0.35944  -0.35781  -0.35660  -0.35117
 Alpha  occ. eigenvalues --   -0.34354  -0.33893  -0.33073  -0.32830  -0.32622
 Alpha  occ. eigenvalues --   -0.32589  -0.32336  -0.32001  -0.31837  -0.31811
 Alpha  occ. eigenvalues --   -0.31470  -0.31353  -0.31294  -0.30876  -0.30035
 Alpha  occ. eigenvalues --   -0.29892  -0.29757  -0.29551  -0.29366  -0.29282
 Alpha  occ. eigenvalues --   -0.29034  -0.28798  -0.28438  -0.28412  -0.27924
 Alpha  occ. eigenvalues --   -0.27892  -0.27479  -0.27404  -0.27341  -0.27013
 Alpha  occ. eigenvalues --   -0.23445
 Alpha virt. eigenvalues --   -0.13140  -0.12259  -0.11127  -0.08398  -0.07402
 Alpha virt. eigenvalues --   -0.06957  -0.06448  -0.06289  -0.05746  -0.05441
 Alpha virt. eigenvalues --   -0.05374  -0.05056  -0.04867  -0.04105  -0.03607

 Mulliken charges:
               1
     1  N   -0.580115
     2  H    0.351325
     3  H    0.388326
     4  H    0.342707
     5  C   -0.076780
     6  H    0.205940
     7  C    0.633112
     8  C   -0.289899
     9  H    0.175463
    10  H    0.184424
    11  O   -0.553439
    12  C    0.613641
    13  O   -0.447154
    14  O   -0.460082
    15  N   -0.523763
    16  H    0.337884
    17  C   -0.035343
    18  H    0.152774
    19  C    0.619422
    20  C   -0.237615
    21  H    0.147835
    22  H    0.126782
    23  O   -0.541907
    24  C    0.054610
    25  C   -0.159091
    26  H    0.143199
    27  C   -0.125859
    28  H    0.092813
    29  C   -0.105615
    30  H    0.113268
    31  C   -0.129801
    32  H    0.090442
    33  O   -0.544463
    34  H    0.324914
    35  C    0.333265
    36  N   -0.526373
    37  H    0.284351
    38  C    0.006309
    39  H    0.129086
    40  C    0.627492
    41  C   -0.277874
    42  H    0.122849
    43  H    0.125518
    44  O   -0.564789
    45  C    0.096567
    46  C   -0.123752
    47  H    0.096118
    48  C   -0.140111
    49  H    0.087754
    50  C   -0.110120
    51  H    0.104349
    52  C   -0.105257
    53  H    0.090082
    54  O   -0.559177
    55  H    0.324994
    56  C    0.338197
    57  N   -0.509447
    58  H    0.289353
    59  C    0.002330
    60  H    0.133136
    61  C    0.624786
    62  C   -0.225811
    63  H    0.135604
    64  H    0.111420
    65  O   -0.581136
    66  C    0.090516
    67  C   -0.134667
    68  H    0.087243
    69  C   -0.164902
    70  H    0.089160
    71  C   -0.075907
    72  H    0.139062
    73  C   -0.087644
    74  H    0.094017
    75  C   -0.095856
    76  H    0.101139
    77  N   -0.509122
    78  H    0.281149
    79  C   -0.022588
    80  H    0.130941
    81  C    0.623966
    82  C   -0.327330
    83  H    0.127586
    84  H    0.120887
    85  H    0.130767
    86  O   -0.541877
    87  N   -0.540515
    88  H    0.292906
    89  C   -0.021536
    90  H    0.122811
    91  C    0.638353
    92  C   -0.191076
    93  H    0.080170
    94  H    0.119176
    95  O   -0.531832
    96  C   -0.067962
    97  H    0.137823
    98  C   -0.318745
    99  H    0.088843
   100  H    0.101876
   101  H    0.102108
   102  C   -0.311461
   103  H    0.079989
   104  H    0.099945
   105  H    0.107129
   106  N   -0.535655
   107  H    0.302229
   108  C   -0.014767
   109  H    0.148948
   110  C    0.641841
   111  C   -0.352884
   112  H    0.106430
   113  H    0.146181
   114  H    0.140565
   115  O   -0.567503
   116  N   -0.515293
   117  H    0.276239
   118  C   -0.006099
   119  H    0.146835
   120  C    0.613844
   121  C   -0.261689
   122  H    0.128425
   123  H    0.122513
   124  O   -0.552196
   125  C    0.268376
   126  C   -0.019808
   127  H    0.078689
   128  N   -0.529273
   129  H    0.306425
   130  C    0.259178
   131  H    0.111005
   132  N   -0.453773
   133  N   -0.525854
   134  H    0.288509
   135  C   -0.028770
   136  H    0.139789
   137  C    0.630167
   138  C    0.152506
   139  H    0.102531
   140  O   -0.544567
   141  C   -0.333211
   142  H    0.141335
   143  H    0.105384
   144  H    0.109942
   145  O   -0.587559
   146  H    0.339532
   147  N   -0.562666
   148  H    0.308405
   149  C    0.027829
   150  H    0.117733
   151  C    0.607832
   152  C   -0.064754
   153  H    0.132088
   154  O   -0.570636
   155  C   -0.317587
   156  H    0.114104
   157  H    0.100793
   158  H    0.101487
   159  C   -0.330281
   160  H    0.112878
   161  H    0.108068
   162  H    0.100597
   163  N   -0.532817
   164  H    0.283460
   165  C    0.028795
   166  H    0.142040
   167  C    0.573404
   168  C   -0.190011
   169  H    0.133999
   170  H    0.103642
   171  O   -0.538143
   172  C   -0.194892
   173  H    0.091842
   174  H    0.134621
   175  C   -0.065032
   176  H    0.156907
   177  H    0.109168
   178  N   -0.535981
   179  H    0.264381
   180  N   -0.676896
   181  H    0.233887
   182  H    0.393322
   183  N   -0.629553
   184  H    0.272496
   185  H    0.272823
   186  C    0.681886
   187  O   -0.507818
   188  H    0.357846
 Sum of Mulliken charges =   1.00000

 Dipole moment (field-independent basis, Debye):
    X=            -38.2355    Y=             -2.5112    Z=             -8.2533  Tot=             39.1967
 Quadrupole moment (field-independent basis, Debye-Ang):
   XX=             11.8468   YY=           -341.8450   ZZ=           -456.8708
   XY=            221.3057   XZ=             95.4467   YZ=            152.4232

 Normal termination of Gaussian 16 at Fri Sep  9 20:46:29 2022.
