 Gaussian 16, Revision C.01,
 Gaussian 16:  ES64L-G16RevC.01  3-Jul-2019

 ----------------------------------------------------------------------
 # B3LYP/6-31G** empiricaldispersion=gd3bj guess=read geom=check nosymm
  integral(ultrafinegrid)
 ----------------------------------------------------------------------

 ------------------------------------------------------
 Candidate Structure: Conf:306 Charge calc in gas phase
 ------------------------------------------------------
 Structure from the checkpoint file:  "conf-306.chk"
 Charge =  1 Multiplicity = 1

                          Input orientation:
 ---------------------------------------------------------------------
 Center     Atomic      Atomic             Coordinates (Angstroms)
 Number     Number       Type             X           Y           Z
 ---------------------------------------------------------------------
      1          7           0       -9.029911   -3.798809   -9.220202
      2          1           0       -9.689926   -3.804098   -9.996841
      3          1           0       -8.822733   -2.820808   -8.878849
      4          1           0       -8.106508   -4.189855   -9.526590
      5          6           0       -9.571517   -4.446473   -7.972821
      6          1           0      -10.644055   -4.612063   -8.090973
      7          6           0       -9.298353   -3.372400   -6.880969
      8          6           0       -8.857638   -5.780767   -7.706761
      9          1           0       -8.842296   -6.386262   -8.620957
     10          1           0       -7.828161   -5.620032   -7.382161
     11          8           0       -8.692748   -2.351238   -7.230982
     12          6           0       -9.581876   -6.569765   -6.637569
     13          8           0      -10.693744   -6.278552   -6.230013
     14          8           0       -8.878413   -7.610559   -6.205795
     15          7           0       -9.699451   -3.623412   -5.628013
     16          1           0      -10.126415   -4.531232   -5.468598
     17          6           0       -8.904070   -3.085050   -4.527811
     18          1           0       -8.767014   -2.014602   -4.695827
     19          6           0       -7.541124   -3.813594   -4.579384
     20          6           0       -9.595445   -3.329713   -3.161726
     21          1           0      -10.620576   -2.953509   -3.232787
     22          1           0       -9.083958   -2.716614   -2.413754
     23          8           0       -7.404232   -4.844882   -5.232068
     24          6           0       -9.565696   -4.783548   -2.750121
     25          6           0      -10.535755   -5.686090   -3.201003
     26          1           0      -11.393918   -5.326301   -3.760675
     27          6           0       -8.505246   -5.283387   -1.982212
     28          1           0       -7.756250   -4.599278   -1.593368
     29          6           0      -10.432821   -7.050384   -2.943511
     30          1           0      -11.195528   -7.743423   -3.281888
     31          6           0       -8.392202   -6.643069   -1.708122
     32          1           0       -7.565313   -7.011495   -1.105973
     33          8           0       -9.288818   -8.881120   -1.998994
     34          1           0       -8.551504   -9.090587   -1.410347
     35          6           0       -9.350402   -7.536431   -2.202701
     36          7           0       -6.546119   -3.265081   -3.849420
     37          1           0       -6.737415   -2.534026   -3.171417
     38          6           0       -5.314357   -3.990896   -3.607088
     39          1           0       -5.526490   -5.057853   -3.733075
     40          6           0       -4.914318   -3.704873   -2.154158
     41          6           0       -4.189512   -3.584456   -4.602487
     42          1           0       -3.294770   -4.179631   -4.390790
     43          1           0       -3.928798   -2.536550   -4.423849
     44          8           0       -5.522357   -2.853791   -1.492675
     45          6           0       -4.629068   -3.786402   -6.031549
     46          6           0       -4.613389   -5.061334   -6.609071
     47          1           0       -4.194767   -5.897830   -6.057544
     48          6           0       -5.167045   -2.724462   -6.763113
     49          1           0       -5.186434   -1.729033   -6.332143
     50          6           0       -5.159614   -5.286057   -7.869653
     51          1           0       -5.163576   -6.273714   -8.317155
     52          6           0       -5.719338   -2.931611   -8.026054
     53          1           0       -6.160343   -2.105002   -8.572975
     54          8           0       -6.388198   -4.482511   -9.774004
     55          1           0       -5.947734   -4.006279  -10.492630
     56          6           0       -5.725410   -4.216428   -8.557838
     57          7           0       -3.883326   -4.418280   -1.664607
     58          1           0       -3.386186   -5.057579   -2.268589
     59          6           0       -3.359417   -4.219416   -0.305512
     60          1           0       -4.217849   -3.965455    0.321922
     61          6           0       -2.381581   -3.025687   -0.314379
     62          6           0       -2.694389   -5.500713    0.200483
     63          1           0       -3.381280   -6.332358    0.003705
     64          1           0       -1.779721   -5.671140   -0.374899
     65          8           0       -1.160546   -3.176352   -0.255319
     66          6           0       -2.367834   -5.438833    1.676420
     67          6           0       -1.043548   -5.345266    2.114533
     68          1           0       -0.244701   -5.289940    1.382768
     69          6           0       -3.395397   -5.475076    2.626816
     70          1           0       -4.429895   -5.554880    2.299884
     71          6           0       -0.750766   -5.305947    3.477256
     72          1           0        0.281230   -5.234567    3.804134
     73          6           0       -3.106280   -5.422367    3.989483
     74          1           0       -3.912296   -5.451357    4.715809
     75          6           0       -1.780346   -5.342927    4.417917
     76          1           0       -1.551602   -5.305719    5.477797
     77          7           0       -2.982265   -1.822966   -0.442737
     78          1           0       -3.994865   -1.790869   -0.495103
     79          6           0       -2.224519   -0.582951   -0.620546
     80          1           0       -1.301796   -0.855135   -1.144205
     81          6           0       -1.834408   -0.005527    0.755344
     82          6           0       -3.034197    0.416724   -1.433442
     83          1           0       -2.452063    1.324151   -1.601987
     84          1           0       -3.307799   -0.015196   -2.400394
     85          1           0       -3.938531    0.708118   -0.893713
     86          8           0       -2.325083    1.046222    1.176255
     87          7           0       -0.944178   -0.749473    1.443669
     88          1           0       -0.611356   -1.614427    1.026291
     89          6           0       -0.602234   -0.455201    2.838668
     90          1           0       -1.504377   -0.038351    3.298090
     91          6           0        0.488446    0.635774    2.879691
     92          6           0       -0.158417   -1.714193    3.574537
     93          1           0       -0.818037   -2.541452    3.291720
     94          1           0        0.854529   -1.962445    3.241550
     95          8           0        1.664653    0.386438    3.163623
     96          6           0       -0.179315   -1.528883    5.103090
     97          1           0        0.246215   -0.545459    5.331788
     98          6           0       -1.607315   -1.577711    5.659302
     99          1           0       -2.058302   -2.560406    5.476508
    100          1           0       -1.594547   -1.386075    6.734523
    101          1           0       -2.256910   -0.825533    5.196831
    102          6           0        0.706060   -2.565352    5.799575
    103          1           0        0.348027   -3.583251    5.608654
    104          1           0        0.699453   -2.402678    6.880664
    105          1           0        1.740812   -2.498307    5.448168
    106          7           0        0.046646    1.872359    2.561728
    107          1           0       -0.915100    1.951571    2.235530
    108          6           0        0.968074    2.982166    2.314652
    109          1           0        1.876432    2.555970    1.871921
    110          6           0        1.398401    3.644090    3.634891
    111          6           0        0.351752    4.002140    1.369419
    112          1           0        1.089887    4.773315    1.143206
    113          1           0       -0.512169    4.485735    1.831340
    114          1           0        0.040013    3.513176    0.442199
    115          8           0        1.093268    4.804437    3.926513
    116          7           0        2.167591    2.869257    4.433966
    117          1           0        2.356688    1.911322    4.137295
    118          6           0        2.776116    3.411922    5.644363
    119          1           0        2.118068    4.217384    5.988722
    120          6           0        4.117644    4.064924    5.263238
    121          6           0        2.934300    2.352238    6.729286
    122          1           0        3.394028    2.838235    7.597789
    123          1           0        3.655162    1.597509    6.401157
    124          8           0        5.207862    3.628794    5.644423
    125          6           0        1.642035    1.693439    7.104037
    126          6           0        1.368670    0.494108    7.720278
    127          1           0        2.077339   -0.259406    8.033527
    128          7           0        0.399030    2.278486    6.923647
    129          1           0        0.217312    3.149403    6.447149
    130          6           0       -0.541303    1.420721    7.422861
    131          1           0       -1.599342    1.637932    7.389039
    132          7           0        0.011967    0.333393    7.918021
    133          7           0        3.979359    5.117200    4.428257
    134          1           0        3.040800    5.372206    4.130598
    135          6           0        5.103115    5.622501    3.650744
    136          1           0        5.793118    4.782596    3.492985
    137          6           0        5.850933    6.703519    4.445450
    138          6           0        4.614065    6.141623    2.289026
    139          1           0        3.994643    7.025911    2.461072
    140          8           0        5.771877    7.900656    4.161432
    141          6           0        5.773031    6.498503    1.366378
    142          1           0        6.384644    7.302577    1.781148
    143          1           0        6.415244    5.622259    1.202033
    144          1           0        5.383492    6.821793    0.397890
    145          8           0        3.737500    5.175110    1.690505
    146          1           0        4.289273    4.435587    1.399768
    147          7           0        6.593499    6.221130    5.463941
    148          1           0        6.547073    5.223913    5.655837
    149          6           0        7.361525    7.107582    6.338883
    150          1           0        6.828401    8.065039    6.350677
    151          6           0        8.743838    7.323835    5.677492
    152          6           0        7.468741    6.552755    7.765328
    153          1           0        8.132132    5.679910    7.726171
    154          8           0        9.787809    6.865517    6.141198
    155          6           0        8.117155    7.596451    8.683417
    156          1           0        7.497290    8.499378    8.742694
    157          1           0        9.108830    7.872991    8.322170
    158          1           0        8.221676    7.198998    9.697622
    159          6           0        6.098540    6.125730    8.308300
    160          1           0        5.391861    6.963789    8.286152
    161          1           0        6.193882    5.798160    9.348213
    162          1           0        5.662374    5.301457    7.738176
    163          7           0        8.688833    8.005319    4.508486
    164          1           0        7.792865    8.302750    4.126581
    165          6           0        9.855495    8.115425    3.650506
    166          1           0       10.686189    8.526010    4.232335
    167          6           0        9.472148    9.066353    2.509242
    168          6           0       10.288471    6.722370    3.096616
    169          1           0        9.967103    5.986762    3.835238
    170          1           0        9.742992    6.510824    2.168633
    171          8           0       10.436603    9.816365    1.991377
    172          6           0       11.803044    6.566312    2.912737
    173          1           0       12.054006    5.499293    2.898030
    174          1           0       12.290031    6.983492    3.799883
    175          6           0       12.390744    7.238482    1.653313
    176          1           0       11.760783    8.054754    1.304725
    177          1           0       12.454529    6.524193    0.827382
    178          7           0       13.733931    7.783616    1.853559
    179          1           0       14.458905    7.090476    1.985580
    180          7           0       12.895066    9.635881    2.991736
    181          1           0       13.192234   10.485288    3.464577
    182          1           0       11.337183    9.702535    2.448676
    183          7           0       15.226448    9.158852    2.957364
    184          1           0       15.407480   10.074623    3.342700
    185          1           0       15.910261    8.888088    2.262867
    186          6           0       13.902903    8.911889    2.618196
    187          8           0        8.335013    9.093221    2.076557
    188          1           0       -9.373095   -8.015976   -5.469566
 ---------------------------------------------------------------------

 SCF Done:  E(RB3LYP) =  -4649.10459102     A.U. after    2 cycles

 Alpha  occ. eigenvalues --  -19.31259 -19.31237 -19.26748 -19.26548 -19.26112
 Alpha  occ. eigenvalues --  -19.23631 -19.22704 -19.20186 -19.18157 -19.18150
 Alpha  occ. eigenvalues --  -19.17418 -19.16710 -19.15883 -19.15872 -19.13833
 Alpha  occ. eigenvalues --  -19.13132 -19.12204 -14.57396 -14.48149 -14.47722
 Alpha  occ. eigenvalues --  -14.46732 -14.44016 -14.41824 -14.41685 -14.40140
 Alpha  occ. eigenvalues --  -14.39581 -14.39574 -14.39037 -14.38972 -14.37691
 Alpha  occ. eigenvalues --  -14.35770 -14.33976 -14.33913 -10.44720 -10.43107
 Alpha  occ. eigenvalues --  -10.40408 -10.39944 -10.39606 -10.37028 -10.35974
 Alpha  occ. eigenvalues --  -10.34846 -10.34815 -10.34725 -10.34062 -10.33744
 Alpha  occ. eigenvalues --  -10.33377 -10.33189 -10.32709 -10.32610 -10.32374
 Alpha  occ. eigenvalues --  -10.31588 -10.30756 -10.30651 -10.30574 -10.30327
 Alpha  occ. eigenvalues --  -10.30215 -10.30031 -10.29924 -10.29814 -10.29779
 Alpha  occ. eigenvalues --  -10.29056 -10.28450 -10.28300 -10.28214 -10.28063
 Alpha  occ. eigenvalues --  -10.27760 -10.27536 -10.27484 -10.27411 -10.27385
 Alpha  occ. eigenvalues --  -10.26670 -10.26514 -10.25932 -10.25883 -10.25209
 Alpha  occ. eigenvalues --  -10.24956 -10.24819 -10.24657 -10.24497 -10.24437
 Alpha  occ. eigenvalues --  -10.24354 -10.24299 -10.24163 -10.24103 -10.23498
 Alpha  occ. eigenvalues --  -10.21992 -10.21714 -10.21470 -10.21344 -10.20675
 Alpha  occ. eigenvalues --  -10.20489 -10.20454 -10.19622 -10.19480 -10.19458
 Alpha  occ. eigenvalues --  -10.18730 -10.18107  -1.22762  -1.19053  -1.17994
 Alpha  occ. eigenvalues --   -1.15682  -1.14748  -1.14661  -1.13775  -1.12027
 Alpha  occ. eigenvalues --   -1.11976  -1.09822  -1.08970  -1.08473  -1.07837
 Alpha  occ. eigenvalues --   -1.07110  -1.05806  -1.05637  -1.05176  -1.03996
 Alpha  occ. eigenvalues --   -1.03883  -1.03816  -1.03588  -1.02604  -1.00754
 Alpha  occ. eigenvalues --   -1.00588  -0.98211  -0.97051  -0.96645  -0.96556
 Alpha  occ. eigenvalues --   -0.95477  -0.94874  -0.94361  -0.93212  -0.93206
 Alpha  occ. eigenvalues --   -0.92549  -0.91860  -0.90667  -0.89539  -0.89114
 Alpha  occ. eigenvalues --   -0.88822  -0.87531  -0.85797  -0.85293  -0.84514
 Alpha  occ. eigenvalues --   -0.83935  -0.83889  -0.83774  -0.83466  -0.82113
 Alpha  occ. eigenvalues --   -0.81816  -0.81151  -0.81135  -0.80268  -0.80140
 Alpha  occ. eigenvalues --   -0.80052  -0.78241  -0.77387  -0.76671  -0.75841
 Alpha  occ. eigenvalues --   -0.75549  -0.74103  -0.73858  -0.73779  -0.73271
 Alpha  occ. eigenvalues --   -0.72714  -0.72401  -0.71599  -0.71523  -0.70962
 Alpha  occ. eigenvalues --   -0.70642  -0.70606  -0.70454  -0.70381  -0.69416
 Alpha  occ. eigenvalues --   -0.69254  -0.69082  -0.68740  -0.68623  -0.68063
 Alpha  occ. eigenvalues --   -0.67376  -0.66739  -0.66349  -0.66145  -0.65754
 Alpha  occ. eigenvalues --   -0.64734  -0.64601  -0.64284  -0.63943  -0.63837
 Alpha  occ. eigenvalues --   -0.63724  -0.63331  -0.62947  -0.62717  -0.61919
 Alpha  occ. eigenvalues --   -0.61836  -0.61687  -0.61393  -0.61321  -0.60937
 Alpha  occ. eigenvalues --   -0.60882  -0.60306  -0.60166  -0.59717  -0.59541
 Alpha  occ. eigenvalues --   -0.59226  -0.58910  -0.58753  -0.58688  -0.58511
 Alpha  occ. eigenvalues --   -0.58443  -0.58159  -0.58082  -0.57858  -0.57697
 Alpha  occ. eigenvalues --   -0.57314  -0.56781  -0.56697  -0.56597  -0.56367
 Alpha  occ. eigenvalues --   -0.56122  -0.55757  -0.55545  -0.55519  -0.55375
 Alpha  occ. eigenvalues --   -0.55337  -0.55000  -0.54741  -0.54056  -0.53663
 Alpha  occ. eigenvalues --   -0.53347  -0.53304  -0.53194  -0.52969  -0.52792
 Alpha  occ. eigenvalues --   -0.52514  -0.52254  -0.51906  -0.51754  -0.51565
 Alpha  occ. eigenvalues --   -0.51535  -0.51260  -0.51157  -0.50939  -0.50727
 Alpha  occ. eigenvalues --   -0.50581  -0.50401  -0.50286  -0.50018  -0.49559
 Alpha  occ. eigenvalues --   -0.49331  -0.49234  -0.49193  -0.48971  -0.48718
 Alpha  occ. eigenvalues --   -0.48463  -0.48416  -0.48336  -0.48199  -0.47977
 Alpha  occ. eigenvalues --   -0.47574  -0.47548  -0.47483  -0.47282  -0.47162
 Alpha  occ. eigenvalues --   -0.47141  -0.46773  -0.46681  -0.46492  -0.46325
 Alpha  occ. eigenvalues --   -0.46221  -0.46110  -0.45995  -0.45850  -0.45688
 Alpha  occ. eigenvalues --   -0.45489  -0.45347  -0.45241  -0.45189  -0.44875
 Alpha  occ. eigenvalues --   -0.44562  -0.44504  -0.44389  -0.44330  -0.44262
 Alpha  occ. eigenvalues --   -0.44035  -0.43808  -0.43648  -0.43556  -0.43487
 Alpha  occ. eigenvalues --   -0.43404  -0.43387  -0.43221  -0.43169  -0.42727
 Alpha  occ. eigenvalues --   -0.42707  -0.42668  -0.42294  -0.42146  -0.41860
 Alpha  occ. eigenvalues --   -0.41684  -0.41570  -0.41508  -0.41434  -0.41207
 Alpha  occ. eigenvalues --   -0.41155  -0.40879  -0.40621  -0.40461  -0.40200
 Alpha  occ. eigenvalues --   -0.40138  -0.40031  -0.39778  -0.39562  -0.39556
 Alpha  occ. eigenvalues --   -0.39406  -0.39287  -0.39125  -0.39092  -0.38791
 Alpha  occ. eigenvalues --   -0.38691  -0.38463  -0.38447  -0.37688  -0.37571
 Alpha  occ. eigenvalues --   -0.37042  -0.36882  -0.36463  -0.36455  -0.35778
 Alpha  occ. eigenvalues --   -0.35765  -0.35669  -0.35356  -0.35311  -0.35136
 Alpha  occ. eigenvalues --   -0.35107  -0.34912  -0.34457  -0.34412  -0.34285
 Alpha  occ. eigenvalues --   -0.33945  -0.33349  -0.33143  -0.32160  -0.31730
 Alpha  occ. eigenvalues --   -0.31685  -0.31016  -0.30984  -0.30934  -0.30626
 Alpha  occ. eigenvalues --   -0.30600  -0.30453  -0.30379  -0.30099  -0.29949
 Alpha  occ. eigenvalues --   -0.29405  -0.29329  -0.28895  -0.28326  -0.27949
 Alpha  occ. eigenvalues --   -0.27792  -0.26894  -0.26571  -0.25571  -0.24827
 Alpha  occ. eigenvalues --   -0.24816
 Alpha virt. eigenvalues --   -0.12786  -0.11677  -0.11316  -0.11069  -0.10079
 Alpha virt. eigenvalues --   -0.09128  -0.08835  -0.08374  -0.08249  -0.06952
 Alpha virt. eigenvalues --   -0.06285  -0.05625  -0.05340  -0.04253  -0.03606

 Mulliken charges:
               1
     1  N   -0.591443
     2  H    0.337955
     3  H    0.355888
     4  H    0.376828
     5  C   -0.081174
     6  H    0.192298
     7  C    0.636387
     8  C   -0.281093
     9  H    0.163285
    10  H    0.211750
    11  O   -0.537661
    12  C    0.625736
    13  O   -0.486765
    14  O   -0.461694
    15  N   -0.505053
    16  H    0.310877
    17  C   -0.044163
    18  H    0.156984
    19  C    0.645552
    20  C   -0.273528
    21  H    0.143063
    22  H    0.132066
    23  O   -0.551106
    24  C    0.102979
    25  C   -0.133304
    26  H    0.105715
    27  C   -0.132637
    28  H    0.099996
    29  C   -0.134267
    30  H    0.115660
    31  C   -0.126727
    32  H    0.086957
    33  O   -0.549797
    34  H    0.326584
    35  C    0.328862
    36  N   -0.529563
    37  H    0.289486
    38  C   -0.018309
    39  H    0.154553
    40  C    0.627039
    41  C   -0.247598
    42  H    0.115143
    43  H    0.126694
    44  O   -0.563317
    45  C    0.135787
    46  C   -0.093113
    47  H    0.097764
    48  C   -0.121291
    49  H    0.106745
    50  C   -0.089414
    51  H    0.116651
    52  C   -0.089526
    53  H    0.097492
    54  O   -0.611728
    55  H    0.347348
    56  C    0.249590
    57  N   -0.526192
    58  H    0.276748
    59  C   -0.023786
    60  H    0.150384
    61  C    0.629493
    62  C   -0.256840
    63  H    0.106876
    64  H    0.124758
    65  O   -0.539580
    66  C    0.107433
    67  C   -0.112842
    68  H    0.102174
    69  C   -0.120696
    70  H    0.071205
    71  C   -0.089204
    72  H    0.106215
    73  C   -0.086858
    74  H    0.098069
    75  C   -0.079018
    76  H    0.107964
    77  N   -0.521508
    78  H    0.294286
    79  C   -0.032602
    80  H    0.142031
    81  C    0.622185
    82  C   -0.319552
    83  H    0.138528
    84  H    0.090127
    85  H    0.136186
    86  O   -0.546701
    87  N   -0.536185
    88  H    0.297164
    89  C   -0.019909
    90  H    0.132715
    91  C    0.629142
    92  C   -0.187797
    93  H    0.099492
    94  H    0.113055
    95  O   -0.555738
    96  C   -0.055274
    97  H    0.113424
    98  C   -0.327711
    99  H    0.086772
   100  H    0.138620
   101  H    0.079357
   102  C   -0.326491
   103  H    0.083319
   104  H    0.123258
   105  H    0.101349
   106  N   -0.530226
   107  H    0.301550
   108  C   -0.021369
   109  H    0.129022
   110  C    0.626785
   111  C   -0.334087
   112  H    0.155929
   113  H    0.129099
   114  H    0.095178
   115  O   -0.557657
   116  N   -0.525429
   117  H    0.304728
   118  C   -0.061214
   119  H    0.139182
   120  C    0.634094
   121  C   -0.235429
   122  H    0.144082
   123  H    0.141427
   124  O   -0.556166
   125  C    0.292615
   126  C   -0.023561
   127  H    0.090630
   128  N   -0.536551
   129  H    0.276079
   130  C    0.256922
   131  H    0.111732
   132  N   -0.449234
   133  N   -0.524133
   134  H    0.305212
   135  C   -0.033934
   136  H    0.114452
   137  C    0.631989
   138  C    0.149920
   139  H    0.135196
   140  O   -0.545553
   141  C   -0.355536
   142  H    0.178306
   143  H    0.079345
   144  H    0.116806
   145  O   -0.553276
   146  H    0.299445
   147  N   -0.540204
   148  H    0.294164
   149  C    0.003335
   150  H    0.132486
   151  C    0.615003
   152  C   -0.070295
   153  H    0.109037
   154  O   -0.550284
   155  C   -0.322044
   156  H    0.094649
   157  H    0.132082
   158  H    0.097778
   159  C   -0.323912
   160  H    0.099924
   161  H    0.100329
   162  H    0.106035
   163  N   -0.562908
   164  H    0.311651
   165  C    0.023324
   166  H    0.129788
   167  C    0.566238
   168  C   -0.193318
   169  H    0.129817
   170  H    0.098758
   171  O   -0.528596
   172  C   -0.191068
   173  H    0.092037
   174  H    0.129829
   175  C   -0.075402
   176  H    0.140613
   177  H    0.107208
   178  N   -0.523447
   179  H    0.261151
   180  N   -0.666924
   181  H    0.232509
   182  H    0.391128
   183  N   -0.631315
   184  H    0.271328
   185  H    0.271942
   186  C    0.665205
   187  O   -0.475401
   188  H    0.348110
 Sum of Mulliken charges =   1.00000

 Dipole moment (field-independent basis, Debye):
    X=            -31.0714    Y=            -25.5751    Z=            -37.6914  Tot=             55.1377
 Quadrupole moment (field-independent basis, Debye-Ang):
   XX=            -85.8679   YY=           -472.4542   ZZ=           -294.4298
   XY=            221.8967   XZ=            273.0061   YZ=            135.4862

 Normal termination of Gaussian 16 at Fri Sep  9 20:45:54 2022.
