 Gaussian 16, Revision C.01,
 Gaussian 16:  ES64L-G16RevC.01  3-Jul-2019

 ----------------------------------------------------------------------
 # B3LYP/6-31G** empiricaldispersion=gd3bj guess=read geom=check nosymm
  integral(ultrafinegrid)
 ----------------------------------------------------------------------

 ------------------------------------------------------
 Candidate Structure: Conf:156 Charge calc in gas phase
 ------------------------------------------------------
 Structure from the checkpoint file:  "conf-156.chk"
 Charge =  1 Multiplicity = 1

                          Input orientation:
 ---------------------------------------------------------------------
 Center     Atomic      Atomic             Coordinates (Angstroms)
 Number     Number       Type             X           Y           Z
 ---------------------------------------------------------------------
      1          7           0        2.641509   -8.098446   -0.623863
      2          1           0        2.888465   -8.865911   -0.004927
      3          1           0        3.295269   -8.077489   -1.407673
      4          1           0        3.018180   -6.683885   -0.078250
      5          6           0        1.254204   -8.224275   -1.098220
      6          1           0        0.949984   -9.270830   -1.216220
      7          6           0        1.137266   -7.511505   -2.449606
      8          6           0        0.319450   -7.536183   -0.079293
      9          1           0        0.632974   -7.798484    0.937221
     10          1           0        0.403115   -6.448033   -0.161663
     11          8           0        1.986824   -6.693321   -2.810571
     12          6           0       -1.140956   -7.901738   -0.210212
     13          8           0       -1.618318   -8.662820   -1.033913
     14          8           0       -1.874692   -7.305834    0.736062
     15          7           0        0.024149   -7.799719   -3.154838
     16          1           0       -0.680850   -8.343846   -2.659432
     17          6           0       -0.460162   -6.811633   -4.101442
     18          1           0        0.277543   -6.696248   -4.901028
     19          6           0       -0.636731   -5.471369   -3.359527
     20          6           0       -1.822508   -7.221470   -4.708547
     21          1           0       -2.491244   -7.504781   -3.889159
     22          1           0       -1.678226   -8.099799   -5.345288
     23          8           0       -1.132422   -5.432505   -2.232531
     24          6           0       -2.398456   -6.050411   -5.472314
     25          6           0       -3.294635   -5.173281   -4.846451
     26          1           0       -3.685813   -5.424563   -3.865483
     27          6           0       -1.895821   -5.694377   -6.727837
     28          1           0       -1.206709   -6.359754   -7.241597
     29          6           0       -3.649651   -3.962099   -5.430308
     30          1           0       -4.339854   -3.281757   -4.943692
     31          6           0       -2.235641   -4.479868   -7.324143
     32          1           0       -1.825064   -4.215142   -8.295251
     33          8           0       -3.446394   -2.379356   -7.169769
     34          1           0       -3.070027   -2.274964   -8.053760
     35          6           0       -3.101723   -3.601735   -6.665235
     36          7           0       -0.247271   -4.398723   -4.074815
     37          1           0        0.090125   -4.554354   -5.015498
     38          6           0       -0.558222   -3.019382   -3.766420
     39          1           0       -1.642168   -2.868074   -3.826611
     40          6           0        0.147980   -2.176447   -4.822414
     41          6           0       -0.072512   -2.567690   -2.355474
     42          1           0        0.988202   -2.315015   -2.409969
     43          1           0       -0.184316   -3.429234   -1.696293
     44          8           0        1.098042   -2.632400   -5.478048
     45          6           0       -0.888295   -1.408761   -1.836202
     46          6           0       -0.394757   -0.097556   -1.804422
     47          1           0        0.620363    0.089424   -2.129974
     48          6           0       -2.200698   -1.630036   -1.399117
     49          1           0       -2.597891   -2.641944   -1.405408
     50          6           0       -1.173695    0.962818   -1.353195
     51          1           0       -0.783553    1.972323   -1.309389
     52          6           0       -2.996557   -0.578761   -0.953844
     53          1           0       -4.014586   -0.766253   -0.621174
     54          8           0       -3.216250    1.795138   -0.523161
     55          1           0       -4.051610    1.497234   -0.140385
     56          6           0       -2.484349    0.723949   -0.930580
     57          7           0       -0.313883   -0.924634   -4.947743
     58          1           0       -1.060257   -0.632981   -4.325927
     59          6           0        0.418731    0.147158   -5.607118
     60          1           0        1.015194   -0.321474   -6.394815
     61          6           0        1.451493    0.680224   -4.588082
     62          6           0       -0.581780    1.147071   -6.244036
     63          1           0       -0.038327    2.041529   -6.564272
     64          1           0       -0.946890    0.672522   -7.159426
     65          8           0        2.255089   -0.108170   -4.065100
     66          6           0       -1.769223    1.512134   -5.371337
     67          6           0       -2.847931    0.618071   -5.266852
     68          1           0       -2.852505   -0.296081   -5.854496
     69          6           0       -1.825146    2.712818   -4.651547
     70          1           0       -1.037463    3.455900   -4.733006
     71          6           0       -3.927209    0.896959   -4.428590
     72          1           0       -4.748614    0.190344   -4.361352
     73          6           0       -2.910393    2.994584   -3.821947
     74          1           0       -2.933756    3.928398   -3.272368
     75          6           0       -3.958836    2.084723   -3.699687
     76          1           0       -4.792427    2.305332   -3.042086
     77          7           0        1.439297    1.986483   -4.308430
     78          1           0        0.731511    2.603064   -4.684297
     79          6           0        2.310278    2.606236   -3.318954
     80          1           0        2.488822    1.875115   -2.527621
     81          6           0        1.510640    3.800280   -2.779023
     82          6           0        3.645164    3.066730   -3.914065
     83          1           0        4.267923    3.525245   -3.140482
     84          1           0        4.177000    2.207796   -4.329615
     85          1           0        3.472656    3.799437   -4.706312
     86          8           0        0.790201    4.448212   -3.541560
     87          7           0        1.686257    4.054136   -1.470893
     88          1           0        2.430404    3.575347   -0.967659
     89          6           0        1.274737    5.282955   -0.802311
     90          1           0        1.279841    6.096104   -1.536537
     91          6           0        2.371949    5.548699    0.244558
     92          6           0       -0.111134    5.172146   -0.139255
     93          1           0       -0.104320    4.306980    0.528898
     94          1           0       -0.265663    6.048888    0.504524
     95          8           0        3.314581    4.759779    0.386827
     96          6           0       -1.314403    5.077993   -1.089815
     97          1           0       -1.189701    4.179419   -1.706416
     98          6           0       -2.589073    4.916710   -0.251380
     99          1           0       -2.788948    5.835821    0.313894
    100          1           0       -3.455627    4.728286   -0.893180
    101          1           0       -2.498001    4.090514    0.456798
    102          6           0       -1.419393    6.287212   -2.025685
    103          1           0       -1.467646    7.220148   -1.449562
    104          1           0       -2.335042    6.232967   -2.624109
    105          1           0       -0.579572    6.339925   -2.721341
    106          7           0        2.247284    6.670646    0.978069
    107          1           0        1.407701    7.225683    0.898625
    108          6           0        3.213868    7.070140    2.006598
    109          1           0        4.194667    6.753557    1.636546
    110          6           0        2.951422    6.328273    3.338985
    111          6           0        3.170762    8.578221    2.203122
    112          1           0        3.914270    8.879103    2.942316
    113          1           0        2.195659    8.889401    2.587934
    114          1           0        3.374899    9.091420    1.260071
    115          8           0        2.630894    6.928225    4.361577
    116          7           0        3.120228    4.986271    3.284072
    117          1           0        3.421618    4.528664    2.425409
    118          6           0        3.011810    4.167059    4.468199
    119          1           0        3.591879    4.629622    5.278380
    120          6           0        3.612517    2.805998    4.128234
    121          6           0        1.547947    4.032438    4.982457
    122          1           0        1.219239    5.043952    5.227938
    123          1           0        1.555414    3.461197    5.918321
    124          8           0        3.991268    2.522252    2.991977
    125          6           0        0.596345    3.440267    4.000365
    126          6           0       -0.359296    4.034255    3.207879
    127          1           0       -0.619601    5.082915    3.169929
    128          7           0        0.528983    2.092403    3.682347
    129          1           0        1.116130    1.335829    4.030152
    130          6           0       -0.437507    1.947239    2.730623
    131          1           0       -0.687678    0.987395    2.303519
    132          7           0       -0.999472    3.100081    2.419389
    133          7           0        3.645617    1.898998    5.135576
    134          1           0        3.532115    2.170268    6.104475
    135          6           0        4.181295    0.571702    4.911594
    136          1           0        5.253133    0.628174    4.670082
    137          6           0        3.421588   -0.103616    3.759992
    138          6           0        3.977710   -0.250621    6.204934
    139          1           0        2.902376   -0.425899    6.300592
    140          8           0        2.202374   -0.283235    3.836087
    141          6           0        4.724407   -1.576216    6.165840
    142          1           0        4.400700   -2.186433    5.318126
    143          1           0        5.804869   -1.413652    6.067300
    144          1           0        4.541281   -2.134786    7.086209
    145          8           0        4.326770    0.533750    7.343691
    146          1           0        5.292425    0.568700    7.403592
    147          7           0        4.181171   -0.540380    2.737642
    148          1           0        5.126905   -0.193920    2.644299
    149          6           0        3.636982   -1.173205    1.551245
    150          1           0        2.749676   -1.737326    1.852737
    151          6           0        4.723476   -2.056613    0.939056
    152          6           0        3.259664   -0.149767    0.432453
    153          1           0        4.146222    0.483201    0.307871
    154          8           0        5.824707   -1.564203    0.704648
    155          6           0        2.994519   -0.873869   -0.892072
    156          1           0        2.183655   -1.601670   -0.785174
    157          1           0        3.878208   -1.395275   -1.267203
    158          1           0        2.704823   -0.171303   -1.672876
    159          6           0        2.072800    0.731297    0.818594
    160          1           0        1.181418    0.130139    1.016587
    161          1           0        1.827962    1.410419   -0.004913
    162          1           0        2.290075    1.342706    1.692052
    163          7           0        4.346763   -3.320963    0.590020
    164          1           0        3.413647   -3.609048    0.853217
    165          6           0        4.841005   -3.992529   -0.610319
    166          1           0        4.369546   -3.485370   -1.461366
    167          6           0        4.299223   -5.414780   -0.726620
    168          6           0        6.374748   -3.946837   -0.820745
    169          1           0        6.834406   -3.554417    0.083050
    170          1           0        6.738998   -4.966731   -0.972806
    171          8           0        4.721371   -6.165255   -1.607703
    172          6           0        6.794611   -3.069608   -2.009469
    173          1           0        7.866029   -2.852743   -1.939735
    174          1           0        6.284468   -2.103258   -1.930016
    175          6           0        6.562335   -3.702980   -3.392246
    176          1           0        7.237851   -4.552731   -3.521188
    177          1           0        6.815639   -2.997318   -4.190619
    178          7           0        5.219056   -4.240284   -3.633702
    179          1           0        5.041528   -5.141341   -3.186109
    180          7           0        4.215633   -2.244578   -4.334634
    181          1           0        3.385407   -1.653541   -4.399477
    182          1           0        5.104658   -1.775857   -4.314353
    183          7           0        2.917904   -4.086798   -3.861876
    184          1           0        2.160556   -3.651032   -4.393428
    185          1           0        2.787328   -5.052809   -3.569921
    186          6           0        4.127125   -3.523387   -3.942375
    187          8           0        3.347402   -5.725933    0.119846
    188          1           0       -2.800116   -7.572258    0.597673
 ---------------------------------------------------------------------

 SCF Done:  E(RB3LYP) =  -4649.21292782     A.U. after    1 cycles

 Alpha  occ. eigenvalues --  -19.28435 -19.25943 -19.25928 -19.23951 -19.23396
 Alpha  occ. eigenvalues --  -19.22691 -19.22190 -19.21888 -19.21699 -19.20841
 Alpha  occ. eigenvalues --  -19.20138 -19.19597 -19.19399 -19.19376 -19.19236
 Alpha  occ. eigenvalues --  -19.19024 -19.16406 -14.45905 -14.45630 -14.45181
 Alpha  occ. eigenvalues --  -14.44887 -14.44395 -14.44226 -14.44154 -14.44066
 Alpha  occ. eigenvalues --  -14.44029 -14.43526 -14.43476 -14.43159 -14.43104
 Alpha  occ. eigenvalues --  -14.42049 -14.40140 -14.35228 -10.42075 -10.41654
 Alpha  occ. eigenvalues --  -10.40543 -10.38349 -10.38315 -10.37933 -10.36999
 Alpha  occ. eigenvalues --  -10.36669 -10.36396 -10.36309 -10.36141 -10.35745
 Alpha  occ. eigenvalues --  -10.33417 -10.33213 -10.32922 -10.32541 -10.32289
 Alpha  occ. eigenvalues --  -10.32011 -10.31952 -10.31877 -10.31617 -10.31454
 Alpha  occ. eigenvalues --  -10.31305 -10.30691 -10.30446 -10.29988 -10.29725
 Alpha  occ. eigenvalues --  -10.29415 -10.29318 -10.27897 -10.27896 -10.27610
 Alpha  occ. eigenvalues --  -10.27158 -10.27106 -10.27079 -10.27024 -10.26783
 Alpha  occ. eigenvalues --  -10.26645 -10.26521 -10.26500 -10.26400 -10.26068
 Alpha  occ. eigenvalues --  -10.25926 -10.25870 -10.25813 -10.25750 -10.25529
 Alpha  occ. eigenvalues --  -10.25459 -10.25277 -10.25215 -10.25151 -10.25127
 Alpha  occ. eigenvalues --  -10.25082 -10.24946 -10.24822 -10.24777 -10.24324
 Alpha  occ. eigenvalues --  -10.23577 -10.23508 -10.23451 -10.23037 -10.22508
 Alpha  occ. eigenvalues --  -10.21178 -10.20102  -1.19817  -1.18176  -1.13902
 Alpha  occ. eigenvalues --   -1.13874  -1.13654  -1.12513  -1.12184  -1.11983
 Alpha  occ. eigenvalues --   -1.11662  -1.11589  -1.11490  -1.10813  -1.10772
 Alpha  occ. eigenvalues --   -1.10733  -1.10462  -1.10009  -1.09065  -1.08212
 Alpha  occ. eigenvalues --   -1.04670  -1.02426  -1.01749  -1.01436  -1.01385
 Alpha  occ. eigenvalues --   -1.00986  -1.00467  -1.00262  -1.00170  -1.00085
 Alpha  occ. eigenvalues --   -0.99665  -0.99615  -0.98260  -0.97244  -0.93564
 Alpha  occ. eigenvalues --   -0.92281  -0.92088  -0.90447  -0.88758  -0.88628
 Alpha  occ. eigenvalues --   -0.87973  -0.87396  -0.87010  -0.86583  -0.85820
 Alpha  occ. eigenvalues --   -0.85566  -0.84429  -0.84167  -0.83561  -0.82894
 Alpha  occ. eigenvalues --   -0.82741  -0.81777  -0.81386  -0.81179  -0.80652
 Alpha  occ. eigenvalues --   -0.79832  -0.79715  -0.79479  -0.78511  -0.77488
 Alpha  occ. eigenvalues --   -0.77118  -0.75899  -0.74917  -0.74644  -0.74419
 Alpha  occ. eigenvalues --   -0.73631  -0.73196  -0.72335  -0.72255  -0.71815
 Alpha  occ. eigenvalues --   -0.70932  -0.70200  -0.69957  -0.69913  -0.69798
 Alpha  occ. eigenvalues --   -0.69482  -0.68896  -0.68714  -0.68158  -0.67799
 Alpha  occ. eigenvalues --   -0.67606  -0.67271  -0.66999  -0.66584  -0.66304
 Alpha  occ. eigenvalues --   -0.66121  -0.65674  -0.65607  -0.65565  -0.64928
 Alpha  occ. eigenvalues --   -0.64788  -0.64475  -0.64308  -0.64149  -0.63962
 Alpha  occ. eigenvalues --   -0.63441  -0.63332  -0.63013  -0.62370  -0.62251
 Alpha  occ. eigenvalues --   -0.62170  -0.61897  -0.61062  -0.60813  -0.60368
 Alpha  occ. eigenvalues --   -0.60190  -0.59544  -0.58889  -0.58858  -0.58807
 Alpha  occ. eigenvalues --   -0.58726  -0.58108  -0.58097  -0.57769  -0.57458
 Alpha  occ. eigenvalues --   -0.57242  -0.57118  -0.56965  -0.56670  -0.56479
 Alpha  occ. eigenvalues --   -0.56055  -0.55966  -0.55729  -0.55445  -0.55356
 Alpha  occ. eigenvalues --   -0.55096  -0.55023  -0.54603  -0.54386  -0.54166
 Alpha  occ. eigenvalues --   -0.54005  -0.53861  -0.53778  -0.53456  -0.53222
 Alpha  occ. eigenvalues --   -0.53067  -0.52887  -0.52851  -0.52662  -0.52528
 Alpha  occ. eigenvalues --   -0.52254  -0.52036  -0.52002  -0.51857  -0.51799
 Alpha  occ. eigenvalues --   -0.51636  -0.51492  -0.51408  -0.51347  -0.50866
 Alpha  occ. eigenvalues --   -0.50705  -0.50606  -0.50235  -0.50141  -0.50073
 Alpha  occ. eigenvalues --   -0.49819  -0.49758  -0.49570  -0.49529  -0.49399
 Alpha  occ. eigenvalues --   -0.49145  -0.48971  -0.48862  -0.48859  -0.48606
 Alpha  occ. eigenvalues --   -0.48424  -0.48328  -0.48153  -0.48016  -0.47798
 Alpha  occ. eigenvalues --   -0.47738  -0.47515  -0.47460  -0.47283  -0.47137
 Alpha  occ. eigenvalues --   -0.46889  -0.46851  -0.46662  -0.46550  -0.46299
 Alpha  occ. eigenvalues --   -0.46280  -0.46177  -0.46044  -0.45996  -0.45790
 Alpha  occ. eigenvalues --   -0.45749  -0.45618  -0.45398  -0.45289  -0.45163
 Alpha  occ. eigenvalues --   -0.44893  -0.44827  -0.44697  -0.44498  -0.44359
 Alpha  occ. eigenvalues --   -0.44229  -0.44205  -0.43995  -0.43904  -0.43737
 Alpha  occ. eigenvalues --   -0.43513  -0.43486  -0.43402  -0.43244  -0.43123
 Alpha  occ. eigenvalues --   -0.43077  -0.42975  -0.42908  -0.42513  -0.42356
 Alpha  occ. eigenvalues --   -0.42207  -0.41992  -0.41847  -0.41579  -0.41534
 Alpha  occ. eigenvalues --   -0.41018  -0.40941  -0.40633  -0.40534  -0.40180
 Alpha  occ. eigenvalues --   -0.40066  -0.39976  -0.39970  -0.39904  -0.39754
 Alpha  occ. eigenvalues --   -0.39468  -0.39367  -0.38989  -0.37726  -0.37622
 Alpha  occ. eigenvalues --   -0.37242  -0.37231  -0.36828  -0.36784  -0.36504
 Alpha  occ. eigenvalues --   -0.36321  -0.36098  -0.36045  -0.35743  -0.35465
 Alpha  occ. eigenvalues --   -0.35140  -0.35004  -0.34412  -0.34317  -0.34151
 Alpha  occ. eigenvalues --   -0.33670  -0.33594  -0.33419  -0.33282  -0.33233
 Alpha  occ. eigenvalues --   -0.32989  -0.32884  -0.32765  -0.32618  -0.32346
 Alpha  occ. eigenvalues --   -0.32005  -0.31630  -0.31333  -0.31011  -0.30770
 Alpha  occ. eigenvalues --   -0.30718  -0.30038  -0.29724  -0.29311  -0.28220
 Alpha  occ. eigenvalues --   -0.26292
 Alpha virt. eigenvalues --   -0.09164  -0.08753  -0.08273  -0.08097  -0.07708
 Alpha virt. eigenvalues --   -0.07311  -0.07179  -0.06878  -0.06737  -0.06672
 Alpha virt. eigenvalues --   -0.06621  -0.06409  -0.05768  -0.05692  -0.05495

 Mulliken charges:
               1
     1  N   -0.677620
     2  H    0.279122
     3  H    0.307191
     4  H    0.407566
     5  C   -0.031232
     6  H    0.141531
     7  C    0.603803
     8  C   -0.261102
     9  H    0.155538
    10  H    0.181229
    11  O   -0.548317
    12  C    0.620985
    13  O   -0.494152
    14  O   -0.465396
    15  N   -0.520075
    16  H    0.310172
    17  C    0.007705
    18  H    0.119191
    19  C    0.619121
    20  C   -0.267051
    21  H    0.131446
    22  H    0.132488
    23  O   -0.570429
    24  C    0.090169
    25  C   -0.114352
    26  H    0.105355
    27  C   -0.143407
    28  H    0.096555
    29  C   -0.113215
    30  H    0.108798
    31  C   -0.123684
    32  H    0.093389
    33  O   -0.551262
    34  H    0.325402
    35  C    0.324283
    36  N   -0.537764
    37  H    0.278992
    38  C    0.016852
    39  H    0.140790
    40  C    0.608483
    41  C   -0.257381
    42  H    0.118264
    43  H    0.154220
    44  O   -0.571952
    45  C    0.068240
    46  C   -0.150082
    47  H    0.087028
    48  C   -0.132044
    49  H    0.101168
    50  C   -0.092997
    51  H    0.115988
    52  C   -0.125787
    53  H    0.084340
    54  O   -0.547330
    55  H    0.321903
    56  C    0.338898
    57  N   -0.509660
    58  H    0.296840
    59  C   -0.019067
    60  H    0.160354
    61  C    0.630940
    62  C   -0.285524
    63  H    0.122581
    64  H    0.127880
    65  O   -0.572136
    66  C    0.101235
    67  C   -0.161799
    68  H    0.108745
    69  C   -0.149529
    70  H    0.120679
    71  C   -0.080160
    72  H    0.091987
    73  C   -0.084009
    74  H    0.113285
    75  C   -0.077656
    76  H    0.090683
    77  N   -0.522977
    78  H    0.295896
    79  C   -0.010284
    80  H    0.135005
    81  C    0.600941
    82  C   -0.308397
    83  H    0.131008
    84  H    0.122164
    85  H    0.134199
    86  O   -0.539285
    87  N   -0.525359
    88  H    0.296943
    89  C   -0.035053
    90  H    0.143332
    91  C    0.618306
    92  C   -0.169821
    93  H    0.149527
    94  H    0.076410
    95  O   -0.558713
    96  C   -0.064611
    97  H    0.096510
    98  C   -0.320601
    99  H    0.084907
   100  H    0.081749
   101  H    0.154986
   102  C   -0.325193
   103  H    0.086149
   104  H    0.098575
   105  H    0.123798
   106  N   -0.518078
   107  H    0.275188
   108  C   -0.033463
   109  H    0.146035
   110  C    0.611978
   111  C   -0.321958
   112  H    0.140515
   113  H    0.128115
   114  H    0.110174
   115  O   -0.527813
   116  N   -0.551809
   117  H    0.318564
   118  C    0.013809
   119  H    0.137524
   120  C    0.598128
   121  C   -0.261072
   122  H    0.161625
   123  H    0.106397
   124  O   -0.536191
   125  C    0.300566
   126  C   -0.023628
   127  H    0.085690
   128  N   -0.546970
   129  H    0.296627
   130  C    0.258505
   131  H    0.111984
   132  N   -0.456927
   133  N   -0.544167
   134  H    0.285305
   135  C    0.014096
   136  H    0.096279
   137  C    0.649160
   138  C    0.146946
   139  H    0.138472
   140  O   -0.571299
   141  C   -0.341743
   142  H    0.123921
   143  H    0.104273
   144  H    0.138223
   145  O   -0.545226
   146  H    0.311684
   147  N   -0.512646
   148  H    0.286492
   149  C    0.011077
   150  H    0.117590
   151  C    0.580210
   152  C   -0.054078
   153  H    0.117976
   154  O   -0.537447
   155  C   -0.350568
   156  H    0.101998
   157  H    0.095765
   158  H    0.133418
   159  C   -0.320109
   160  H    0.106041
   161  H    0.082390
   162  H    0.146911
   163  N   -0.538234
   164  H    0.279258
   165  C    0.012164
   166  H    0.141676
   167  C    0.610925
   168  C   -0.189024
   169  H    0.158751
   170  H    0.120661
   171  O   -0.533429
   172  C   -0.201221
   173  H    0.124127
   174  H    0.121195
   175  C   -0.085136
   176  H    0.144275
   177  H    0.120011
   178  N   -0.525624
   179  H    0.314921
   180  N   -0.632791
   181  H    0.344799
   182  H    0.289821
   183  N   -0.669692
   184  H    0.332031
   185  H    0.328807
   186  C    0.723428
   187  O   -0.539881
   188  H    0.338362
 Sum of Mulliken charges =   1.00000

 Dipole moment (field-independent basis, Debye):
    X=              9.9278    Y=            -15.6386    Z=            -10.4273  Tot=             21.2569
 Quadrupole moment (field-independent basis, Debye-Ang):
   XX=           -470.1567   YY=           -413.8029   ZZ=           -454.0274
   XY=            -13.4372   XZ=             12.0452   YZ=             23.1099

 Normal termination of Gaussian 16 at Fri Sep  9 20:46:35 2022.
