 Gaussian 16, Revision C.01,
 Gaussian 16:  ES64L-G16RevC.01  3-Jul-2019

 ----------------------------------------------------------------------
 # B3LYP/6-31G** empiricaldispersion=gd3bj guess=read geom=check nosymm
  integral(ultrafinegrid)
 ----------------------------------------------------------------------

 ------------------------------------------------------
 Candidate Structure: Conf:839 Charge calc in gas phase
 ------------------------------------------------------
 Structure from the checkpoint file:  "conf-839.chk"
 Charge =  1 Multiplicity = 1

                          Input orientation:
 ---------------------------------------------------------------------
 Center     Atomic      Atomic             Coordinates (Angstroms)
 Number     Number       Type             X           Y           Z
 ---------------------------------------------------------------------
      1          7           0        4.961455   -6.388280    2.214275
      2          1           0        5.056912   -7.390099    1.993073
      3          1           0        5.629979   -5.896808    1.615004
      4          1           0        5.238316   -6.118192    3.194850
      5          6           0        3.556049   -6.008027    1.830709
      6          1           0        2.902881   -6.454441    2.585149
      7          6           0        3.282216   -6.757114    0.516774
      8          6           0        3.403858   -4.502022    1.843747
      9          1           0        4.112161   -4.026258    1.159530
     10          1           0        2.413766   -4.187246    1.484797
     11          8           0        3.918868   -7.797352    0.304539
     12          6           0        3.617491   -3.901199    3.216087
     13          8           0        4.048147   -2.783777    3.391082
     14          8           0        3.308148   -4.760430    4.204252
     15          7           0        2.318060   -6.259677   -0.256119
     16          1           0        1.832836   -5.387810   -0.035140
     17          6           0        1.692018   -6.990856   -1.347474
     18          1           0        2.433833   -7.208831   -2.124264
     19          6           0        0.642637   -6.018121   -1.901382
     20          6           0        1.056027   -8.335994   -0.872352
     21          1           0        1.876762   -9.032675   -0.690888
     22          1           0        0.459722   -8.740146   -1.697434
     23          8           0        0.357274   -4.989261   -1.287865
     24          6           0        0.221821   -8.160815    0.370161
     25          6           0        0.791242   -8.355908    1.636070
     26          1           0        1.799253   -8.755628    1.705842
     27          6           0       -1.097199   -7.699259    0.300062
     28          1           0       -1.579069   -7.559926   -0.663770
     29          6           0        0.098527   -8.035670    2.800274
     30          1           0        0.543358   -8.169278    3.780813
     31          6           0       -1.806838   -7.397452    1.458359
     32          1           0       -2.825349   -7.030426    1.392849
     33          8           0       -1.822833   -7.162472    3.868053
     34          1           0       -2.579759   -6.597697    3.652718
     35          6           0       -1.198826   -7.520660    2.710888
     36          7           0        0.061390   -6.322194   -3.080796
     37          1           0        0.201245   -7.224325   -3.511129
     38          6           0       -0.969320   -5.432210   -3.598444
     39          1           0       -0.547295   -4.423181   -3.628907
     40          6           0       -2.207888   -5.449607   -2.685913
     41          6           0       -1.409245   -5.846760   -5.013875
     42          1           0       -1.779739   -6.876303   -4.968385
     43          1           0       -0.537295   -5.824467   -5.676303
     44          8           0       -2.779692   -6.511527   -2.434969
     45          6           0       -2.495394   -4.920342   -5.509943
     46          6           0       -3.847577   -5.225478   -5.300211
     47          1           0       -4.113545   -6.174898   -4.846241
     48          6           0       -2.176437   -3.684359   -6.078764
     49          1           0       -1.135524   -3.424775   -6.254046
     50          6           0       -4.850746   -4.323555   -5.636901
     51          1           0       -5.897789   -4.561521   -5.484241
     52          6           0       -3.170330   -2.770614   -6.424150
     53          1           0       -2.902894   -1.814956   -6.868236
     54          8           0       -5.535389   -2.236551   -6.500198
     55          1           0       -5.178604   -1.441344   -6.917419
     56          6           0       -4.513464   -3.086605   -6.197947
     57          7           0       -2.617186   -4.236916   -2.266666
     58          1           0       -2.090425   -3.405663   -2.509508
     59          6           0       -3.904964   -3.962866   -1.663140
     60          1           0       -4.688805   -4.201443   -2.396887
     61          6           0       -3.947751   -2.448026   -1.415089
     62          6           0       -4.208248   -4.784626   -0.388936
     63          1           0       -5.284422   -4.719725   -0.191687
     64          1           0       -4.015574   -5.827390   -0.656302
     65          8           0       -3.002355   -1.716149   -1.735767
     66          6           0       -3.449623   -4.413336    0.863817
     67          6           0       -2.054442   -4.277376    0.871732
     68          1           0       -1.489950   -4.400370   -0.042891
     69          6           0       -4.139753   -4.298399    2.076983
     70          1           0       -5.222704   -4.390350    2.088202
     71          6           0       -1.369503   -4.055032    2.064549
     72          1           0       -0.290380   -3.952990    2.040867
     73          6           0       -3.455386   -4.090777    3.276560
     74          1           0       -4.009108   -4.008899    4.207022
     75          6           0       -2.063284   -3.977819    3.272846
     76          1           0       -1.526948   -3.833770    4.204552
     77          7           0       -5.085367   -1.982505   -0.866700
     78          1           0       -5.787224   -2.638637   -0.557332
     79          6           0       -5.366320   -0.555235   -0.682411
     80          1           0       -4.922866   -0.041626   -1.541292
     81          6           0       -4.686237   -0.027209    0.601782
     82          6           0       -6.869935   -0.327545   -0.634094
     83          1           0       -7.084213    0.740320   -0.564505
     84          1           0       -7.346450   -0.724602   -1.534104
     85          1           0       -7.297758   -0.799253    0.254249
     86          8           0       -5.313408    0.193466    1.631044
     87          7           0       -3.352082    0.181285    0.461173
     88          1           0       -2.897020   -0.137309   -0.389015
     89          6           0       -2.535723    0.674185    1.552284
     90          1           0       -3.231787    1.088794    2.284878
     91          6           0       -1.617805    1.768921    1.014426
     92          6           0       -1.700294   -0.455347    2.197571
     93          1           0       -2.401831   -1.146775    2.676000
     94          1           0       -1.219504   -1.012468    1.391555
     95          8           0       -0.960986    1.624964   -0.027897
     96          6           0       -0.626527    0.002767    3.199514
     97          1           0       -0.005376    0.764305    2.712624
     98          6           0       -1.228397    0.624335    4.465011
     99          1           0       -1.789424   -0.126957    5.032241
    100          1           0       -0.443789    1.029088    5.109674
    101          1           0       -1.921227    1.444093    4.249192
    102          6           0        0.304315   -1.159990    3.564522
    103          1           0       -0.247861   -1.948215    4.085462
    104          1           0        1.103854   -0.819945    4.226815
    105          1           0        0.765933   -1.597811    2.676411
    106          7           0       -1.542108    2.885108    1.772143
    107          1           0       -2.032675    2.890714    2.655262
    108          6           0       -0.509527    3.910041    1.588592
    109          1           0       -0.469987    4.143880    0.521242
    110          6           0        0.824080    3.287429    2.043443
    111          6           0       -0.845158    5.148545    2.405992
    112          1           0       -0.106330    5.931549    2.221510
    113          1           0       -0.813415    4.911487    3.472505
    114          1           0       -1.833746    5.529118    2.137999
    115          8           0        1.145370    3.249167    3.232252
    116          7           0        1.560484    2.745141    1.046086
    117          1           0        1.085363    2.667554    0.155823
    118          6           0        2.631701    1.775484    1.278913
    119          1           0        2.337393    1.149923    2.133527
    120          6           0        3.991146    2.374843    1.712187
    121          6           0        2.812696    0.882527    0.037167
    122          1           0        3.881418    0.670929   -0.030975
    123          1           0        2.554113    1.450721   -0.864726
    124          8           0        5.044809    1.889037    1.291231
    125          6           0        2.086196   -0.419301    0.078497
    126          6           0        2.529053   -1.648058    0.505217
    127          1           0        3.490283   -1.867051    0.946526
    128          7           0        0.793848   -0.641421   -0.363582
    129          1           0        0.111494    0.083233   -0.582549
    130          6           0        0.516318   -1.964811   -0.188051
    131          1           0       -0.431045   -2.400699   -0.463787
    132          7           0        1.546878   -2.606648    0.339819
    133          7           0        3.955996    3.331249    2.661549
    134          1           0        3.068639    3.571469    3.103469
    135          6           0        5.167881    3.678496    3.402608
    136          1           0        6.014429    3.571514    2.719103
    137          6           0        5.315188    2.672020    4.570489
    138          6           0        5.065461    5.115846    3.933507
    139          1           0        5.973220    5.305611    4.524283
    140          8           0        5.246628    3.028937    5.750990
    141          6           0        4.962777    6.139778    2.814411
    142          1           0        5.848689    6.107084    2.173031
    143          1           0        4.081097    5.945441    2.197937
    144          1           0        4.873150    7.141443    3.240837
    145          8           0        3.907566    5.239231    4.749429
    146          1           0        4.079860    4.648723    5.503589
    147          7           0        5.429919    1.382593    4.185174
    148          1           0        5.582873    1.155422    3.205147
    149          6           0        5.263799    0.258645    5.088353
    150          1           0        5.638541    0.554355    6.074521
    151          6           0        6.121862   -0.876482    4.504903
    152          6           0        3.761814   -0.158463    5.227884
    153          1           0        3.463512   -0.580388    4.261447
    154          8           0        6.433946   -0.894584    3.321099
    155          6           0        3.558081   -1.234865    6.301975
    156          1           0        3.914791   -0.882814    7.279065
    157          1           0        4.052873   -2.174769    6.060287
    158          1           0        2.490326   -1.448863    6.411240
    159          6           0        2.865369    1.047666    5.541649
    160          1           0        3.212091    1.580095    6.430585
    161          1           0        1.843703    0.703428    5.728111
    162          1           0        2.815231    1.759307    4.717611
    163          7           0        6.533388   -1.839850    5.389033
    164          1           0        6.084524   -1.878293    6.292854
    165          6           0        7.130202   -3.072204    4.912512
    166          1           0        7.383995   -2.910310    3.864199
    167          6           0        6.158124   -4.252315    4.997953
    168          6           0        8.416576   -3.380636    5.721360
    169          1           0        9.030133   -2.478355    5.664982
    170          1           0        8.139121   -3.496244    6.777813
    171          8           0        6.341543   -5.215645    4.182167
    172          6           0        9.235633   -4.603058    5.246196
    173          1           0       10.291551   -4.330718    5.156362
    174          1           0        8.908764   -4.910988    4.248053
    175          6           0        9.176902   -5.817614    6.183284
    176          1           0        9.527461   -5.535898    7.181213
    177          1           0        9.829654   -6.613852    5.808480
    178          7           0        7.800488   -6.315858    6.300794
    179          1           0        7.212514   -6.182252    5.469791
    180          7           0        7.840369   -6.959159    8.532854
    181          1           0        7.398325   -6.984007    9.437422
    182          1           0        8.784051   -7.303016    8.457530
    183          7           0        5.823945   -6.476392    7.463886
    184          1           0        5.309743   -6.810959    8.263974
    185          1           0        5.394116   -5.763237    6.845764
    186          6           0        7.156852   -6.579527    7.436440
    187          8           0        5.302316   -4.257026    5.931674
    188          1           0        3.755615   -4.447581    5.029629
 ---------------------------------------------------------------------

 SCF Done:  E(RB3LYP) =  -4649.18662015     A.U. after    3 cycles

 Alpha  occ. eigenvalues --  -19.26453 -19.23492 -19.22678 -19.21776 -19.21562
 Alpha  occ. eigenvalues --  -19.21355 -19.21274 -19.20585 -19.20483 -19.20118
 Alpha  occ. eigenvalues --  -19.18840 -19.18281 -19.17204 -19.17085 -19.16911
 Alpha  occ. eigenvalues --  -19.16573 -19.16274 -14.54021 -14.50282 -14.48292
 Alpha  occ. eigenvalues --  -14.47888 -14.45032 -14.44704 -14.44343 -14.44221
 Alpha  occ. eigenvalues --  -14.43618 -14.42966 -14.42614 -14.41857 -14.41263
 Alpha  occ. eigenvalues --  -14.40306 -14.39582 -14.37503 -10.45378 -10.39991
 Alpha  occ. eigenvalues --  -10.38944 -10.38586 -10.37354 -10.37103 -10.36557
 Alpha  occ. eigenvalues --  -10.35479 -10.35464 -10.35366 -10.34321 -10.34209
 Alpha  occ. eigenvalues --  -10.33881 -10.33797 -10.33039 -10.32209 -10.31089
 Alpha  occ. eigenvalues --  -10.30795 -10.30775 -10.30606 -10.30248 -10.30128
 Alpha  occ. eigenvalues --  -10.30064 -10.29744 -10.29289 -10.29128 -10.29018
 Alpha  occ. eigenvalues --  -10.28484 -10.28006 -10.27672 -10.27168 -10.27134
 Alpha  occ. eigenvalues --  -10.26941 -10.26699 -10.26533 -10.26120 -10.25906
 Alpha  occ. eigenvalues --  -10.25389 -10.25276 -10.25249 -10.25206 -10.25187
 Alpha  occ. eigenvalues --  -10.24990 -10.24947 -10.24891 -10.24872 -10.24800
 Alpha  occ. eigenvalues --  -10.24786 -10.24601 -10.24476 -10.24373 -10.24325
 Alpha  occ. eigenvalues --  -10.24309 -10.24307 -10.24259 -10.24142 -10.24053
 Alpha  occ. eigenvalues --  -10.24038 -10.23764 -10.22720 -10.22374 -10.21979
 Alpha  occ. eigenvalues --  -10.20965 -10.20829  -1.17978  -1.14699  -1.14165
 Alpha  occ. eigenvalues --   -1.13693  -1.12853  -1.12218  -1.11791  -1.11643
 Alpha  occ. eigenvalues --   -1.10885  -1.10550  -1.10042  -1.09512  -1.09130
 Alpha  occ. eigenvalues --   -1.08949  -1.08909  -1.08699  -1.07811  -1.06332
 Alpha  occ. eigenvalues --   -1.05373  -1.04294  -1.03292  -1.02121  -1.01917
 Alpha  occ. eigenvalues --   -1.00951  -1.00754  -1.00578  -0.99603  -0.99569
 Alpha  occ. eigenvalues --   -0.98640  -0.98145  -0.97354  -0.96077  -0.92110
 Alpha  occ. eigenvalues --   -0.91847  -0.91585  -0.91255  -0.89637  -0.89100
 Alpha  occ. eigenvalues --   -0.87429  -0.87050  -0.86098  -0.85846  -0.85199
 Alpha  occ. eigenvalues --   -0.84872  -0.83989  -0.83509  -0.83159  -0.81425
 Alpha  occ. eigenvalues --   -0.80937  -0.80685  -0.80503  -0.80464  -0.80214
 Alpha  occ. eigenvalues --   -0.79926  -0.78981  -0.78752  -0.77902  -0.77608
 Alpha  occ. eigenvalues --   -0.76458  -0.75362  -0.73914  -0.73743  -0.73570
 Alpha  occ. eigenvalues --   -0.73540  -0.72875  -0.72741  -0.72501  -0.71610
 Alpha  occ. eigenvalues --   -0.71210  -0.70885  -0.69774  -0.69612  -0.69461
 Alpha  occ. eigenvalues --   -0.68966  -0.68603  -0.68111  -0.67876  -0.67442
 Alpha  occ. eigenvalues --   -0.67396  -0.66947  -0.66603  -0.66442  -0.66075
 Alpha  occ. eigenvalues --   -0.65793  -0.65620  -0.65255  -0.65137  -0.64721
 Alpha  occ. eigenvalues --   -0.64282  -0.64046  -0.64014  -0.63670  -0.63550
 Alpha  occ. eigenvalues --   -0.63199  -0.63143  -0.62937  -0.62742  -0.62346
 Alpha  occ. eigenvalues --   -0.62090  -0.62034  -0.61481  -0.61253  -0.60385
 Alpha  occ. eigenvalues --   -0.60103  -0.59821  -0.59562  -0.58838  -0.58686
 Alpha  occ. eigenvalues --   -0.58264  -0.58041  -0.57857  -0.57610  -0.57279
 Alpha  occ. eigenvalues --   -0.56830  -0.56762  -0.56351  -0.56086  -0.55930
 Alpha  occ. eigenvalues --   -0.55736  -0.55459  -0.55191  -0.54997  -0.54665
 Alpha  occ. eigenvalues --   -0.54409  -0.54374  -0.54181  -0.54116  -0.53724
 Alpha  occ. eigenvalues --   -0.53661  -0.53615  -0.53331  -0.53276  -0.53142
 Alpha  occ. eigenvalues --   -0.52794  -0.52446  -0.52372  -0.52195  -0.52007
 Alpha  occ. eigenvalues --   -0.51801  -0.51719  -0.51434  -0.51396  -0.51218
 Alpha  occ. eigenvalues --   -0.50756  -0.50441  -0.50401  -0.50032  -0.49805
 Alpha  occ. eigenvalues --   -0.49770  -0.49654  -0.49486  -0.49320  -0.49183
 Alpha  occ. eigenvalues --   -0.48731  -0.48705  -0.48513  -0.48346  -0.48296
 Alpha  occ. eigenvalues --   -0.48138  -0.48115  -0.48036  -0.47738  -0.47619
 Alpha  occ. eigenvalues --   -0.47520  -0.47448  -0.47312  -0.47220  -0.47015
 Alpha  occ. eigenvalues --   -0.46809  -0.46582  -0.46570  -0.46328  -0.46284
 Alpha  occ. eigenvalues --   -0.46156  -0.46089  -0.45946  -0.45871  -0.45622
 Alpha  occ. eigenvalues --   -0.45613  -0.45508  -0.45447  -0.45233  -0.45106
 Alpha  occ. eigenvalues --   -0.44867  -0.44757  -0.44712  -0.44570  -0.44451
 Alpha  occ. eigenvalues --   -0.44427  -0.44268  -0.44216  -0.44040  -0.43644
 Alpha  occ. eigenvalues --   -0.43564  -0.43380  -0.43258  -0.43162  -0.43066
 Alpha  occ. eigenvalues --   -0.42941  -0.42931  -0.42601  -0.42458  -0.42361
 Alpha  occ. eigenvalues --   -0.42174  -0.42003  -0.41897  -0.41633  -0.41539
 Alpha  occ. eigenvalues --   -0.41476  -0.41247  -0.41042  -0.40998  -0.40637
 Alpha  occ. eigenvalues --   -0.40478  -0.39979  -0.39927  -0.39791  -0.39581
 Alpha  occ. eigenvalues --   -0.39427  -0.39309  -0.39061  -0.38583  -0.38574
 Alpha  occ. eigenvalues --   -0.38396  -0.38066  -0.37952  -0.37797  -0.37639
 Alpha  occ. eigenvalues --   -0.37368  -0.37207  -0.36840  -0.36224  -0.36193
 Alpha  occ. eigenvalues --   -0.35778  -0.35676  -0.35339  -0.35180  -0.34844
 Alpha  occ. eigenvalues --   -0.34700  -0.34438  -0.34374  -0.34185  -0.33662
 Alpha  occ. eigenvalues --   -0.33344  -0.32996  -0.32672  -0.32319  -0.31799
 Alpha  occ. eigenvalues --   -0.31641  -0.31636  -0.31486  -0.31062  -0.30755
 Alpha  occ. eigenvalues --   -0.30613  -0.30396  -0.30264  -0.30093  -0.29940
 Alpha  occ. eigenvalues --   -0.29790  -0.29231  -0.28196  -0.27683  -0.27431
 Alpha  occ. eigenvalues --   -0.27279
 Alpha virt. eigenvalues --   -0.10232  -0.08838  -0.07718  -0.07323  -0.07076
 Alpha virt. eigenvalues --   -0.06750  -0.06611  -0.06486  -0.06314  -0.05916
 Alpha virt. eigenvalues --   -0.05627  -0.05531  -0.05152  -0.04964  -0.04690

 Mulliken charges:
               1
     1  N   -0.542007
     2  H    0.337490
     3  H    0.333186
     4  H    0.367740
     5  C   -0.092677
     6  H    0.202186
     7  C    0.650260
     8  C   -0.300470
     9  H    0.147145
    10  H    0.220843
    11  O   -0.564705
    12  C    0.595638
    13  O   -0.453350
    14  O   -0.519467
    15  N   -0.557681
    16  H    0.330908
    17  C    0.016236
    18  H    0.142394
    19  C    0.625618
    20  C   -0.276261
    21  H    0.145046
    22  H    0.112733
    23  O   -0.533745
    24  C    0.113123
    25  C   -0.150043
    26  H    0.080802
    27  C   -0.141448
    28  H    0.120989
    29  C   -0.111782
    30  H    0.086459
    31  C   -0.122779
    32  H    0.089909
    33  O   -0.567424
    34  H    0.321059
    35  C    0.335904
    36  N   -0.537982
    37  H    0.275292
    38  C    0.026098
    39  H    0.122315
    40  C    0.635915
    41  C   -0.280073
    42  H    0.128182
    43  H    0.118170
    44  O   -0.556617
    45  C    0.090204
    46  C   -0.123534
    47  H    0.110591
    48  C   -0.128601
    49  H    0.087400
    50  C   -0.112499
    51  H    0.104105
    52  C   -0.127973
    53  H    0.086071
    54  O   -0.552744
    55  H    0.322152
    56  C    0.328760
    57  N   -0.525310
    58  H    0.295932
    59  C    0.006587
    60  H    0.147561
    61  C    0.622777
    62  C   -0.265669
    63  H    0.089727
    64  H    0.176711
    65  O   -0.566131
    66  C    0.102857
    67  C   -0.127481
    68  H    0.136661
    69  C   -0.133976
    70  H    0.085346
    71  C   -0.082394
    72  H    0.102861
    73  C   -0.120338
    74  H    0.101320
    75  C   -0.100282
    76  H    0.098508
    77  N   -0.517571
    78  H    0.275177
    79  C   -0.027506
    80  H    0.139346
    81  C    0.612345
    82  C   -0.331637
    83  H    0.138376
    84  H    0.113108
    85  H    0.135777
    86  O   -0.520777
    87  N   -0.533172
    88  H    0.293392
    89  C   -0.032580
    90  H    0.136608
    91  C    0.624152
    92  C   -0.155374
    93  H    0.122719
    94  H    0.098662
    95  O   -0.579246
    96  C   -0.085889
    97  H    0.097203
    98  C   -0.309885
    99  H    0.106173
   100  H    0.128508
   101  H    0.071718
   102  C   -0.340028
   103  H    0.092351
   104  H    0.112884
   105  H    0.123313
   106  N   -0.499085
   107  H    0.283460
   108  C   -0.018970
   109  H    0.133018
   110  C    0.618381
   111  C   -0.339608
   112  H    0.139557
   113  H    0.145680
   114  H    0.122503
   115  O   -0.543690
   116  N   -0.516042
   117  H    0.284261
   118  C   -0.013879
   119  H    0.164123
   120  C    0.612116
   121  C   -0.299592
   122  H    0.179407
   123  H    0.114492
   124  O   -0.538450
   125  C    0.277125
   126  C   -0.010332
   127  H    0.111417
   128  N   -0.544938
   129  H    0.297693
   130  C    0.273082
   131  H    0.127952
   132  N   -0.509471
   133  N   -0.525837
   134  H    0.313796
   135  C   -0.043253
   136  H    0.144004
   137  C    0.616518
   138  C    0.165799
   139  H    0.094847
   140  O   -0.556645
   141  C   -0.312001
   142  H    0.101530
   143  H    0.108727
   144  H    0.120755
   145  O   -0.562711
   146  H    0.325084
   147  N   -0.543883
   148  H    0.307908
   149  C   -0.017156
   150  H    0.126132
   151  C    0.628865
   152  C   -0.044681
   153  H    0.117589
   154  O   -0.526439
   155  C   -0.352602
   156  H    0.093827
   157  H    0.119186
   158  H    0.101327
   159  C   -0.327186
   160  H    0.123822
   161  H    0.093936
   162  H    0.116973
   163  N   -0.526761
   164  H    0.266451
   165  C    0.002450
   166  H    0.155444
   167  C    0.628481
   168  C   -0.193965
   169  H    0.142160
   170  H    0.094353
   171  O   -0.647111
   172  C   -0.220396
   173  H    0.131280
   174  H    0.135567
   175  C   -0.074200
   176  H    0.126524
   177  H    0.136437
   178  N   -0.526909
   179  H    0.314646
   180  N   -0.612274
   181  H    0.307148
   182  H    0.311734
   183  N   -0.623170
   184  H    0.290083
   185  H    0.336241
   186  C    0.750813
   187  O   -0.612246
   188  H    0.358298
 Sum of Mulliken charges =   1.00000

 Dipole moment (field-independent basis, Debye):
    X=             17.0207    Y=            -27.1872    Z=             14.4773  Tot=             35.1915
 Quadrupole moment (field-independent basis, Debye-Ang):
   XX=           -353.8977   YY=           -384.5450   ZZ=           -361.2452
   XY=           -179.7805   XZ=            174.0628   YZ=           -151.2532

 Normal termination of Gaussian 16 at Fri Sep  9 20:55:29 2022.
