 Gaussian 16, Revision C.01,
 Gaussian 16:  ES64L-G16RevC.01  3-Jul-2019

 ----------------------------------------------------------------------
 # B3LYP/6-31G** empiricaldispersion=gd3bj guess=read geom=check nosymm
  integral(ultrafinegrid)
 ----------------------------------------------------------------------

 ------------------------------------------------------
 Candidate Structure: Conf:535 Charge calc in gas phase
 ------------------------------------------------------
 Structure from the checkpoint file:  "conf-535.chk"
 Charge =  1 Multiplicity = 1

                          Input orientation:
 ---------------------------------------------------------------------
 Center     Atomic      Atomic             Coordinates (Angstroms)
 Number     Number       Type             X           Y           Z
 ---------------------------------------------------------------------
      1          7           0       -8.400648   -4.517247    2.316751
      2          1           0       -8.883168   -4.770779    3.179063
      3          1           0       -9.103925   -4.198179    1.541106
      4          1           0       -7.849382   -5.314549    1.997111
      5          6           0       -7.596670   -3.246410    2.426607
      6          1           0       -7.686850   -2.844567    3.436816
      7          6           0       -8.323358   -2.336971    1.396220
      8          6           0       -6.116816   -3.473228    2.076652
      9          1           0       -5.764303   -4.442789    2.446294
     10          1           0       -5.969785   -3.439253    0.991532
     11          8           0       -9.259937   -2.858171    0.765533
     12          6           0       -5.261683   -2.389653    2.712208
     13          8           0       -5.748079   -1.455596    3.323843
     14          8           0       -3.967038   -2.591687    2.510966
     15          7           0       -7.885268   -1.094180    1.223357
     16          1           0       -7.079684   -0.800288    1.772408
     17          6           0       -8.089974   -0.438181   -0.064861
     18          1           0       -9.162462   -0.326087   -0.248107
     19          6           0       -7.486513   -1.349893   -1.163489
     20          6           0       -7.407458    0.963567   -0.072231
     21          1           0       -8.015443    1.640847    0.533572
     22          1           0       -7.416875    1.344013   -1.097984
     23          8           0       -6.757870   -2.299454   -0.887319
     24          6           0       -5.999152    0.902500    0.472705
     25          6           0       -5.724449    1.347895    1.771634
     26          1           0       -6.492042    1.874814    2.331256
     27          6           0       -4.973713    0.265162   -0.240105
     28          1           0       -5.126537   -0.049856   -1.263285
     29          6           0       -4.502389    1.080755    2.383578
     30          1           0       -4.308931    1.373889    3.408447
     31          6           0       -3.755896   -0.027534    0.364174
     32          1           0       -2.999152   -0.585392   -0.178009
     33          8           0       -2.474437   -0.138650    2.425399
     34          1           0       -1.733255   -0.339938    1.832856
     35          6           0       -3.547076    0.337158    1.696186
     36          7           0       -7.791288   -0.978166   -2.433693
     37          1           0       -8.247892   -0.078914   -2.550148
     38          6           0       -6.841892   -1.245314   -3.511386
     39          1           0       -6.218146   -2.081380   -3.192137
     40          6           0       -6.008150    0.032469   -3.681255
     41          6           0       -7.527091   -1.584511   -4.857089
     42          1           0       -8.275900   -0.815099   -5.070357
     43          1           0       -8.050191   -2.539312   -4.748364
     44          8           0       -6.551813    1.138439   -3.621605
     45          6           0       -6.485405   -1.624092   -5.951960
     46          6           0       -6.220048   -0.484237   -6.723002
     47          1           0       -6.866356    0.383682   -6.629797
     48          6           0       -5.631695   -2.723955   -6.086367
     49          1           0       -5.817718   -3.624158   -5.506081
     50          6           0       -5.118433   -0.423868   -7.570461
     51          1           0       -4.907303    0.461766   -8.159331
     52          6           0       -4.524699   -2.679680   -6.931296
     53          1           0       -3.860663   -3.536677   -7.006381
     54          8           0       -3.156214   -1.388523   -8.463149
     55          1           0       -2.670893   -2.224059   -8.479600
     56          6           0       -4.253548   -1.518509   -7.660055
     57          7           0       -4.693377   -0.150133   -3.900592
     58          1           0       -4.317309   -1.081410   -4.052478
     59          6           0       -3.852187    0.913007   -4.414425
     60          1           0       -4.438584    1.515095   -5.115399
     61          6           0       -2.707955    0.218221   -5.158587
     62          6           0       -3.340683    1.844869   -3.281034
     63          1           0       -4.231958    2.244494   -2.788870
     64          1           0       -2.798898    1.239640   -2.547962
     65          8           0       -2.427881   -0.963229   -4.902351
     66          6           0       -2.463134    2.944656   -3.823374
     67          6           0       -1.080225    2.924907   -3.616611
     68          1           0       -0.651442    2.165740   -2.972004
     69          6           0       -3.005245    3.931697   -4.659360
     70          1           0       -4.080424    3.971791   -4.815385
     71          6           0       -0.246658    3.844150   -4.252085
     72          1           0        0.826125    3.792287   -4.103520
     73          6           0       -2.174659    4.855433   -5.296123
     74          1           0       -2.606429    5.612574   -5.943238
     75          6           0       -0.792336    4.806463   -5.102098
     76          1           0       -0.145737    5.516311   -5.607186
     77          7           0       -2.046743    0.956135   -6.065053
     78          1           0       -2.245389    1.948082   -6.113520
     79          6           0       -0.838845    0.479760   -6.749808
     80          1           0       -1.010497   -0.577972   -6.965982
     81          6           0        0.361877    0.610025   -5.788087
     82          6           0       -0.631014    1.263995   -8.034261
     83          1           0        0.272991    0.920766   -8.540384
     84          1           0       -1.487734    1.121539   -8.696333
     85          1           0       -0.497630    2.327157   -7.816430
     86          8           0        1.247147    1.451761   -5.946648
     87          7           0        0.321990   -0.244177   -4.737964
     88          1           0       -0.476915   -0.869416   -4.671954
     89          6           0        1.142155   -0.034539   -3.547802
     90          1           0        1.334876    1.042031   -3.493866
     91          6           0        2.525848   -0.695175   -3.667101
     92          6           0        0.375415   -0.487393   -2.304965
     93          1           0       -0.607322    0.002704   -2.338988
     94          1           0        0.194951   -1.566431   -2.372791
     95          8           0        2.908741   -1.576210   -2.899330
     96          6           0        1.050977   -0.182239   -0.952720
     97          1           0        1.869498   -0.896425   -0.836468
     98          6           0        1.632533    1.234424   -0.860914
     99          1           0        0.867089    1.995958   -1.057563
    100          1           0        2.020605    1.414927    0.147211
    101          1           0        2.459930    1.386716   -1.559810
    102          6           0        0.043209   -0.418308    0.181799
    103          1           0       -0.757327    0.332568    0.121226
    104          1           0        0.532215   -0.324489    1.157746
    105          1           0       -0.404023   -1.417928    0.113093
    106          7           0        3.314651   -0.168710   -4.638664
    107          1           0        2.949793    0.640546   -5.135964
    108          6           0        4.758429   -0.327337   -4.525742
    109          1           0        5.011322   -1.386815   -4.637463
    110          6           0        5.160955    0.152828   -3.117806
    111          6           0        5.459825    0.506132   -5.596351
    112          1           0        6.541972    0.365516   -5.540572
    113          1           0        5.242685    1.567167   -5.442914
    114          1           0        5.121477    0.212981   -6.593682
    115          8           0        4.701749    1.197452   -2.653026
    116          7           0        6.027011   -0.626493   -2.429977
    117          1           0        6.276505   -1.553184   -2.752589
    118          6           0        6.208877   -0.385795   -1.016475
    119          1           0        6.377842    0.684125   -0.871240
    120          6           0        7.386101   -1.197505   -0.505409
    121          6           0        4.924343   -0.811972   -0.227262
    122          1           0        4.851915   -1.902423   -0.257679
    123          1           0        4.076121   -0.422172   -0.792181
    124          8           0        7.721405   -2.260087   -1.042644
    125          6           0        4.878562   -0.346824    1.185666
    126          6           0        4.961044   -0.997427    2.394389
    127          1           0        5.072911   -2.059805    2.561518
    128          7           0        4.754374    0.993491    1.525895
    129          1           0        4.645321    1.753719    0.870399
    130          6           0        4.764548    1.088586    2.890087
    131          1           0        4.695736    2.018990    3.437593
    132          7           0        4.886572   -0.102236    3.443674
    133          7           0        7.939424   -0.713283    0.619153
    134          1           0        7.611964    0.165089    1.010985
    135          6           0        8.623927   -1.533848    1.612552
    136          1           0        8.221568   -2.553093    1.563215
    137          6           0        8.239975   -0.874987    2.946580
    138          6           0       10.140513   -1.638735    1.334380
    139          1           0       10.493086   -0.615671    1.125315
    140          8           0        8.015828    0.335140    2.986347
    141          6           0       10.925494   -2.208503    2.509063
    142          1           0       10.886737   -1.550719    3.381147
    143          1           0       10.540169   -3.196351    2.786347
    144          1           0       11.967800   -2.337279    2.208749
    145          8           0       10.357938   -2.489452    0.223336
    146          1           0        9.591555   -2.443760   -0.376592
    147          7           0        8.119386   -1.702156    4.002482
    148          1           0        8.294944   -2.683590    3.850870
    149          6           0        7.467666   -1.325997    5.257860
    150          1           0        6.387139   -1.304984    5.076853
    151          6           0        7.889534    0.086308    5.695909
    152          6           0        7.755330   -2.377074    6.354924
    153          1           0        7.335892   -1.950360    7.274906
    154          8           0        9.044557    0.372001    6.004684
    155          6           0        7.000621   -3.683238    6.066490
    156          1           0        7.373158   -4.181794    5.162358
    157          1           0        5.928081   -3.508341    5.934257
    158          1           0        7.132299   -4.390744    6.890462
    159          6           0        9.250657   -2.632626    6.580070
    160          1           0        9.707595   -3.114930    5.708512
    161          1           0        9.391775   -3.301927    7.434424
    162          1           0        9.779642   -1.696896    6.760062
    163          7           0        6.846586    0.947009    5.784489
    164          1           0        6.000121    0.722977    5.266406
    165          6           0        7.091750    2.354298    6.066886
    166          1           0        7.689861    2.401209    6.976697
    167          6           0        5.733586    3.027648    6.279474
    168          6           0        7.849699    3.071597    4.896674
    169          1           0        7.869897    2.364774    4.066523
    170          1           0        7.268893    3.937221    4.551351
    171          8           0        5.630173    3.897231    7.272924
    172          6           0        9.287580    3.504567    5.230518
    173          1           0        9.895489    3.471898    4.318161
    174          1           0        9.727851    2.778392    5.919323
    175          6           0        9.399032    4.924564    5.798924
    176          1           0        9.081391    5.657344    5.049951
    177          1           0       10.443077    5.157185    6.030379
    178          7           0        8.571642    5.177403    6.985830
    179          1           0        7.582903    5.270937    6.786946
    180          7           0       10.078222    4.336645    8.544926
    181          1           0       10.247795    3.932484    9.452546
    182          1           0       10.740987    5.041815    8.258946
    183          7           0        7.732485    4.065966    8.819703
    184          1           0        7.948739    3.710867    9.746267
    185          1           0        6.421753    3.884648    7.937175
    186          6           0        8.768028    4.506837    8.170460
    187          8           0        4.809072    2.818151    5.510090
    188          1           0       -3.446764   -1.810902    2.813695
 ---------------------------------------------------------------------

 SCF Done:  E(RB3LYP) =  -4649.11030622     A.U. after    2 cycles

 Alpha  occ. eigenvalues --  -19.30137 -19.27525 -19.27171 -19.25632 -19.25186
 Alpha  occ. eigenvalues --  -19.22551 -19.20755 -19.20387 -19.18677 -19.18619
 Alpha  occ. eigenvalues --  -19.17391 -19.16954 -19.16534 -19.16316 -19.15662
 Alpha  occ. eigenvalues --  -19.14749 -19.13703 -14.58606 -14.48709 -14.45632
 Alpha  occ. eigenvalues --  -14.44472 -14.44230 -14.43154 -14.42071 -14.40887
 Alpha  occ. eigenvalues --  -14.40772 -14.40572 -14.40474 -14.39936 -14.39088
 Alpha  occ. eigenvalues --  -14.37393 -14.35481 -14.34753 -10.44193 -10.43330
 Alpha  occ. eigenvalues --  -10.40208 -10.39237 -10.37402 -10.37066 -10.35194
 Alpha  occ. eigenvalues --  -10.34838 -10.34135 -10.34026 -10.33999 -10.33785
 Alpha  occ. eigenvalues --  -10.33544 -10.33487 -10.33275 -10.33181 -10.32144
 Alpha  occ. eigenvalues --  -10.32128 -10.31657 -10.30831 -10.30444 -10.29673
 Alpha  occ. eigenvalues --  -10.28999 -10.28630 -10.28553 -10.28303 -10.28057
 Alpha  occ. eigenvalues --  -10.28018 -10.27998 -10.27635 -10.27586 -10.27407
 Alpha  occ. eigenvalues --  -10.27388 -10.27095 -10.26919 -10.26623 -10.26573
 Alpha  occ. eigenvalues --  -10.26519 -10.26338 -10.26271 -10.26235 -10.26181
 Alpha  occ. eigenvalues --  -10.26010 -10.25752 -10.25750 -10.25665 -10.25401
 Alpha  occ. eigenvalues --  -10.25342 -10.25291 -10.25277 -10.25070 -10.25061
 Alpha  occ. eigenvalues --  -10.25033 -10.24625 -10.24247 -10.23874 -10.23448
 Alpha  occ. eigenvalues --  -10.23427 -10.22776 -10.21924 -10.21123 -10.20925
 Alpha  occ. eigenvalues --  -10.20531 -10.19991  -1.21769  -1.19712  -1.15044
 Alpha  occ. eigenvalues --   -1.14435  -1.13166  -1.13161  -1.12861  -1.12626
 Alpha  occ. eigenvalues --   -1.11938  -1.10285  -1.10254  -1.09523  -1.09046
 Alpha  occ. eigenvalues --   -1.08453  -1.07726  -1.06046  -1.05453  -1.05122
 Alpha  occ. eigenvalues --   -1.03612  -1.03359  -1.02546  -1.01981  -1.01283
 Alpha  occ. eigenvalues --   -1.00969  -0.98931  -0.97612  -0.97455  -0.97226
 Alpha  occ. eigenvalues --   -0.96930  -0.94945  -0.94369  -0.93772  -0.93357
 Alpha  occ. eigenvalues --   -0.93017  -0.92533  -0.90916  -0.90012  -0.89491
 Alpha  occ. eigenvalues --   -0.87888  -0.87519  -0.86289  -0.84938  -0.84382
 Alpha  occ. eigenvalues --   -0.84113  -0.84107  -0.83870  -0.82490  -0.82352
 Alpha  occ. eigenvalues --   -0.82106  -0.81750  -0.81160  -0.81115  -0.81000
 Alpha  occ. eigenvalues --   -0.80217  -0.79429  -0.77754  -0.77307  -0.75774
 Alpha  occ. eigenvalues --   -0.75193  -0.74890  -0.74458  -0.74244  -0.73628
 Alpha  occ. eigenvalues --   -0.73406  -0.73298  -0.72851  -0.71986  -0.71918
 Alpha  occ. eigenvalues --   -0.71511  -0.71133  -0.70686  -0.70025  -0.69554
 Alpha  occ. eigenvalues --   -0.69419  -0.68863  -0.68104  -0.67992  -0.67470
 Alpha  occ. eigenvalues --   -0.67405  -0.66352  -0.66160  -0.66147  -0.65589
 Alpha  occ. eigenvalues --   -0.65333  -0.65325  -0.64848  -0.64569  -0.64458
 Alpha  occ. eigenvalues --   -0.63821  -0.63476  -0.63407  -0.62951  -0.62866
 Alpha  occ. eigenvalues --   -0.62643  -0.62607  -0.62101  -0.62008  -0.61757
 Alpha  occ. eigenvalues --   -0.61581  -0.61224  -0.60981  -0.60345  -0.59860
 Alpha  occ. eigenvalues --   -0.59742  -0.59336  -0.59273  -0.58715  -0.58513
 Alpha  occ. eigenvalues --   -0.58350  -0.58054  -0.57526  -0.57248  -0.57133
 Alpha  occ. eigenvalues --   -0.56909  -0.56738  -0.56230  -0.56075  -0.55856
 Alpha  occ. eigenvalues --   -0.55794  -0.55677  -0.55155  -0.54806  -0.54689
 Alpha  occ. eigenvalues --   -0.54490  -0.54113  -0.54024  -0.53827  -0.53457
 Alpha  occ. eigenvalues --   -0.53210  -0.53200  -0.52992  -0.52699  -0.52569
 Alpha  occ. eigenvalues --   -0.52512  -0.52257  -0.52152  -0.51945  -0.51664
 Alpha  occ. eigenvalues --   -0.51608  -0.51496  -0.51154  -0.51099  -0.50953
 Alpha  occ. eigenvalues --   -0.50766  -0.50651  -0.50461  -0.50422  -0.50058
 Alpha  occ. eigenvalues --   -0.49799  -0.49563  -0.49522  -0.49303  -0.49225
 Alpha  occ. eigenvalues --   -0.48790  -0.48632  -0.48528  -0.48487  -0.48177
 Alpha  occ. eigenvalues --   -0.48129  -0.48063  -0.47976  -0.47885  -0.47877
 Alpha  occ. eigenvalues --   -0.47689  -0.47417  -0.47291  -0.47113  -0.46986
 Alpha  occ. eigenvalues --   -0.46929  -0.46700  -0.46487  -0.46224  -0.46026
 Alpha  occ. eigenvalues --   -0.45935  -0.45827  -0.45733  -0.45689  -0.45597
 Alpha  occ. eigenvalues --   -0.45459  -0.45099  -0.44889  -0.44791  -0.44714
 Alpha  occ. eigenvalues --   -0.44462  -0.44323  -0.44250  -0.44207  -0.43975
 Alpha  occ. eigenvalues --   -0.43915  -0.43732  -0.43596  -0.43483  -0.43178
 Alpha  occ. eigenvalues --   -0.43110  -0.43016  -0.42961  -0.42805  -0.42619
 Alpha  occ. eigenvalues --   -0.42611  -0.42499  -0.42354  -0.42124  -0.41960
 Alpha  occ. eigenvalues --   -0.41938  -0.41890  -0.41795  -0.41448  -0.41339
 Alpha  occ. eigenvalues --   -0.41049  -0.40930  -0.40900  -0.40733  -0.40681
 Alpha  occ. eigenvalues --   -0.40498  -0.40028  -0.39765  -0.39689  -0.39629
 Alpha  occ. eigenvalues --   -0.39515  -0.39312  -0.39253  -0.38900  -0.38676
 Alpha  occ. eigenvalues --   -0.38232  -0.37795  -0.37532  -0.37248  -0.37131
 Alpha  occ. eigenvalues --   -0.36858  -0.36697  -0.36278  -0.36157  -0.36118
 Alpha  occ. eigenvalues --   -0.35986  -0.34757  -0.34312  -0.34006  -0.33633
 Alpha  occ. eigenvalues --   -0.33548  -0.32655  -0.32598  -0.32381  -0.32141
 Alpha  occ. eigenvalues --   -0.32088  -0.31845  -0.31647  -0.31608  -0.31420
 Alpha  occ. eigenvalues --   -0.31337  -0.31154  -0.30869  -0.30642  -0.30461
 Alpha  occ. eigenvalues --   -0.30281  -0.29885  -0.29703  -0.29098  -0.29028
 Alpha  occ. eigenvalues --   -0.29017  -0.28264  -0.27941  -0.27394  -0.26519
 Alpha  occ. eigenvalues --   -0.26053
 Alpha virt. eigenvalues --   -0.12345  -0.10782  -0.10130  -0.09962  -0.08966
 Alpha virt. eigenvalues --   -0.08586  -0.08110  -0.07457  -0.07111  -0.06713
 Alpha virt. eigenvalues --   -0.06442  -0.06210  -0.05664  -0.04715  -0.04289

 Mulliken charges:
               1
     1  N   -0.572211
     2  H    0.349237
     3  H    0.382810
     4  H    0.344707
     5  C   -0.085619
     6  H    0.200143
     7  C    0.648661
     8  C   -0.301874
     9  H    0.156087
    10  H    0.221862
    11  O   -0.539136
    12  C    0.623051
    13  O   -0.470915
    14  O   -0.489204
    15  N   -0.511517
    16  H    0.317153
    17  C   -0.031954
    18  H    0.160320
    19  C    0.632954
    20  C   -0.284693
    21  H    0.134015
    22  H    0.157285
    23  O   -0.546673
    24  C    0.064215
    25  C   -0.142252
    26  H    0.104375
    27  C   -0.102097
    28  H    0.097611
    29  C   -0.054799
    30  H    0.121929
    31  C   -0.127019
    32  H    0.104001
    33  O   -0.583116
    34  H    0.349288
    35  C    0.263384
    36  N   -0.503568
    37  H    0.280538
    38  C   -0.029326
    39  H    0.138289
    40  C    0.597129
    41  C   -0.238291
    42  H    0.120444
    43  H    0.125552
    44  O   -0.557636
    45  C    0.087136
    46  C   -0.125386
    47  H    0.103771
    48  C   -0.143863
    49  H    0.089447
    50  C   -0.112271
    51  H    0.106472
    52  C   -0.107071
    53  H    0.090802
    54  O   -0.559542
    55  H    0.325228
    56  C    0.336576
    57  N   -0.512431
    58  H    0.294260
    59  C    0.005341
    60  H    0.139463
    61  C    0.626159
    62  C   -0.236408
    63  H    0.146059
    64  H    0.108168
    65  O   -0.587880
    66  C    0.086149
    67  C   -0.121666
    68  H    0.083618
    69  C   -0.157542
    70  H    0.099173
    71  C   -0.070561
    72  H    0.114567
    73  C   -0.086501
    74  H    0.103341
    75  C   -0.092014
    76  H    0.106405
    77  N   -0.506723
    78  H    0.284338
    79  C   -0.023351
    80  H    0.133867
    81  C    0.623661
    82  C   -0.330413
    83  H    0.132778
    84  H    0.127040
    85  H    0.130935
    86  O   -0.543489
    87  N   -0.540294
    88  H    0.296708
    89  C   -0.038363
    90  H    0.142367
    91  C    0.634355
    92  C   -0.187474
    93  H    0.082955
    94  H    0.112195
    95  O   -0.541726
    96  C   -0.075942
    97  H    0.141661
    98  C   -0.352721
    99  H    0.095410
   100  H    0.102186
   101  H    0.149658
   102  C   -0.359322
   103  H    0.093474
   104  H    0.125548
   105  H    0.101593
   106  N   -0.522045
   107  H    0.296151
   108  C    0.008936
   109  H    0.116915
   110  C    0.627030
   111  C   -0.341748
   112  H    0.127893
   113  H    0.135116
   114  H    0.125160
   115  O   -0.561713
   116  N   -0.523643
   117  H    0.283203
   118  C   -0.005625
   119  H    0.130320
   120  C    0.601242
   121  C   -0.248222
   122  H    0.129076
   123  H    0.156271
   124  O   -0.559770
   125  C    0.270056
   126  C   -0.016074
   127  H    0.083917
   128  N   -0.546325
   129  H    0.276348
   130  C    0.279796
   131  H    0.162493
   132  N   -0.487090
   133  N   -0.516571
   134  H    0.291147
   135  C   -0.058463
   136  H    0.119543
   137  C    0.631688
   138  C    0.228452
   139  H    0.086052
   140  O   -0.548756
   141  C   -0.337140
   142  H    0.128046
   143  H    0.094009
   144  H    0.129513
   145  O   -0.567712
   146  H    0.326577
   147  N   -0.533482
   148  H    0.266484
   149  C    0.021267
   150  H    0.135834
   151  C    0.624654
   152  C   -0.099056
   153  H    0.110094
   154  O   -0.544940
   155  C   -0.317835
   156  H    0.086895
   157  H    0.108808
   158  H    0.114383
   159  C   -0.314031
   160  H    0.087841
   161  H    0.097389
   162  H    0.153097
   163  N   -0.558912
   164  H    0.310209
   165  C    0.018525
   166  H    0.127272
   167  C    0.555420
   168  C   -0.216353
   169  H    0.162860
   170  H    0.088344
   171  O   -0.532098
   172  C   -0.186408
   173  H    0.098040
   174  H    0.147714
   175  C   -0.071650
   176  H    0.114636
   177  H    0.101572
   178  N   -0.518440
   179  H    0.269001
   180  N   -0.608660
   181  H    0.275208
   182  H    0.281316
   183  N   -0.678430
   184  H    0.227678
   185  H    0.389092
   186  C    0.660793
   187  O   -0.489653
   188  H    0.358410
 Sum of Mulliken charges =   1.00000

 Dipole moment (field-independent basis, Debye):
    X=            -26.0577    Y=             -9.9487    Z=              2.2598  Tot=             27.9837
 Quadrupole moment (field-independent basis, Debye-Ang):
   XX=           -283.9823   YY=           -472.0741   ZZ=           -433.9574
   XY=            146.9371   XZ=             24.7614   YZ=            -28.4955

 Normal termination of Gaussian 16 at Fri Sep  9 20:46:36 2022.
