 Gaussian 16, Revision C.01,
 Gaussian 16:  ES64L-G16RevC.01  3-Jul-2019

 ----------------------------------------------------------------------
 # B3LYP/6-31G** empiricaldispersion=gd3bj guess=read geom=check nosymm
  integral(ultrafinegrid)
 ----------------------------------------------------------------------

 ------------------------------------------------------
 Candidate Structure: Conf:997 Charge calc in gas phase
 ------------------------------------------------------
 Structure from the checkpoint file:  "conf-997.chk"
 Charge =  1 Multiplicity = 1

                          Input orientation:
 ---------------------------------------------------------------------
 Center     Atomic      Atomic             Coordinates (Angstroms)
 Number     Number       Type             X           Y           Z
 ---------------------------------------------------------------------
      1          7           0      -10.424938   -6.723234   -6.409512
      2          1           0      -10.905557   -7.280004   -5.699081
      3          1           0      -10.853452   -5.742147   -6.431301
      4          1           0      -10.504818   -7.196479   -7.311352
      5          6           0       -9.004783   -6.377285   -6.028527
      6          1           0       -8.628533   -7.100519   -5.305060
      7          6           0       -9.173637   -4.954396   -5.428529
      8          6           0       -8.126102   -6.340712   -7.298894
      9          1           0       -7.885878   -7.362566   -7.609221
     10          1           0       -8.651232   -5.822972   -8.105238
     11          8           0      -10.189476   -4.328898   -5.766688
     12          6           0       -6.843671   -5.555189   -7.033275
     13          8           0       -6.577971   -4.515266   -7.583841
     14          8           0       -6.125054   -6.126150   -6.053627
     15          7           0       -8.187901   -4.524690   -4.653209
     16          1           0       -7.378609   -5.123317   -4.497646
     17          6           0       -7.896062   -3.118367   -4.373169
     18          1           0       -8.496003   -2.505987   -5.049359
     19          6           0       -6.395038   -2.963324   -4.686461
     20          6           0       -8.215269   -2.741236   -2.904331
     21          1           0       -7.684627   -3.437595   -2.247447
     22          1           0       -9.288852   -2.896491   -2.754304
     23          8           0       -5.640724   -3.949335   -4.570975
     24          6           0       -7.809532   -1.319296   -2.607561
     25          6           0       -6.628829   -1.041518   -1.906734
     26          1           0       -6.046194   -1.860624   -1.494334
     27          6           0       -8.537736   -0.246485   -3.133857
     28          1           0       -9.464003   -0.432579   -3.672165
     29          6           0       -6.177543    0.262052   -1.741273
     30          1           0       -5.263614    0.477628   -1.199920
     31          6           0       -8.094137    1.065002   -2.983888
     32          1           0       -8.666778    1.887066   -3.404523
     33          8           0       -6.410132    2.576302   -2.119036
     34          1           0       -6.955663    3.213307   -2.599142
     35          6           0       -6.905787    1.320580   -2.293358
     36          7           0       -5.987005   -1.751067   -5.039312
     37          1           0       -6.614556   -0.950575   -5.034938
     38          6           0       -4.590546   -1.417088   -5.268592
     39          1           0       -3.971613   -2.043562   -4.621737
     40          6           0       -4.442255    0.066246   -4.921687
     41          6           0       -4.203080   -1.659023   -6.754813
     42          1           0       -4.917750   -1.108090   -7.373359
     43          1           0       -4.346015   -2.723968   -6.961100
     44          8           0       -5.368790    0.848045   -5.146417
     45          6           0       -2.794616   -1.208842   -7.047524
     46          6           0       -2.551288    0.044528   -7.625230
     47          1           0       -3.392031    0.657114   -7.939038
     48          6           0       -1.695325   -1.975771   -6.648006
     49          1           0       -1.854571   -2.955170   -6.203870
     50          6           0       -1.258274    0.529128   -7.785551
     51          1           0       -1.070837    1.502210   -8.225300
     52          6           0       -0.393808   -1.501778   -6.795608
     53          1           0        0.447844   -2.103483   -6.462846
     54          8           0        1.071898    0.303178   -7.485416
     55          1           0        1.726680   -0.305133   -7.117100
     56          6           0       -0.174883   -0.239092   -7.350991
     57          7           0       -3.245577    0.420848   -4.422194
     58          1           0       -2.484790   -0.251001   -4.380326
     59          6           0       -2.804295    1.802246   -4.375572
     60          1           0       -3.333051    2.358715   -5.154526
     61          6           0       -1.299714    1.776070   -4.667738
     62          6           0       -3.101426    2.464057   -3.002084
     63          1           0       -4.185162    2.447886   -2.862387
     64          1           0       -2.648123    1.847811   -2.219583
     65          8           0       -0.639538    0.758800   -4.412438
     66          6           0       -2.560461    3.870593   -2.948546
     67          6           0       -1.412420    4.167680   -2.207046
     68          1           0       -0.973297    3.403287   -1.575441
     69          6           0       -3.121538    4.872236   -3.753700
     70          1           0       -4.024369    4.659750   -4.321626
     71          6           0       -0.816224    5.425145   -2.288622
     72          1           0        0.085268    5.631728   -1.722400
     73          6           0       -2.524764    6.131454   -3.840647
     74          1           0       -2.966175    6.896726   -4.471883
     75          6           0       -1.363371    6.406619   -3.115699
     76          1           0       -0.892032    7.381012   -3.190599
     77          7           0       -0.774112    2.899227   -5.187908
     78          1           0       -1.350487    3.732089   -5.190880
     79          6           0        0.659757    3.082997   -5.446216
     80          1           0        1.022321    2.140328   -5.866963
     81          6           0        1.413004    3.358073   -4.127127
     82          6           0        0.851781    4.217994   -6.440065
     83          1           0        1.913033    4.353681   -6.653350
     84          1           0        0.328267    3.995206   -7.373036
     85          1           0        0.479821    5.158300   -6.023787
     86          8           0        1.938512    4.447705   -3.882549
     87          7           0        1.429652    2.314226   -3.269884
     88          1           0        0.938949    1.463210   -3.533765
     89          6           0        1.923171    2.466714   -1.906202
     90          1           0        1.670703    3.483158   -1.588798
     91          6           0        3.457236    2.340233   -1.905843
     92          6           0        1.307801    1.449573   -0.948454
     93          1           0        0.239677    1.341317   -1.177105
     94          1           0        1.783683    0.481276   -1.129895
     95          8           0        4.029477    1.270139   -1.675346
     96          6           0        1.495019    1.877019    0.522010
     97          1           0        2.482698    2.347159    0.616560
     98          6           0        0.468040    2.932071    0.946993
     99          1           0       -0.547368    2.514936    0.927885
    100          1           0        0.699744    3.270999    1.958138
    101          1           0        0.480787    3.809865    0.288806
    102          6           0        1.472295    0.678552    1.474449
    103          1           0        0.489169    0.190842    1.465194
    104          1           0        1.693850    1.008386    2.492996
    105          1           0        2.219468   -0.069472    1.186929
    106          7           0        4.117409    3.491920   -2.165266
    107          1           0        3.565388    4.262378   -2.533901
    108          6           0        5.580907    3.562020   -2.218286
    109          1           0        5.942556    2.629801   -2.667647
    110          6           0        6.102258    3.624382   -0.765913
    111          6           0        6.025661    4.764755   -3.034786
    112          1           0        7.114842    4.793808   -3.103195
    113          1           0        5.698536    5.692862   -2.559985
    114          1           0        5.609447    4.708803   -4.043675
    115          8           0        6.581628    4.667035   -0.283384
    116          7           0        5.927391    2.488433   -0.079892
    117          1           0        5.507347    1.700991   -0.574619
    118          6           0        6.051354    2.409745    1.354457
    119          1           0        5.756995    3.377103    1.767533
    120          6           0        7.487735    2.124142    1.776304
    121          6           0        5.094899    1.327633    1.932757
    122          1           0        4.107821    1.516885    1.512875
    123          1           0        4.967505    1.476746    3.008054
    124          8           0        8.379282    1.775757    1.005771
    125          6           0        5.523249   -0.072820    1.654640
    126          6           0        5.337063   -0.905096    0.572345
    127          1           0        4.769094   -0.693198   -0.323082
    128          7           0        6.316125   -0.799135    2.530066
    129          1           0        6.591210   -0.525682    3.472368
    130          6           0        6.550806   -2.011877    1.946355
    131          1           0        7.132135   -2.781389    2.435125
    132          7           0        5.981804   -2.110144    0.761554
    133          7           0        7.694502    2.266774    3.118784
    134          1           0        6.870968    2.472944    3.671234
    135          6           0        8.756524    1.506076    3.797262
    136          1           0        8.908615    0.572764    3.244645
    137          6           0        8.091740    1.144000    5.133014
    138          6           0       10.093380    2.261373    3.831700
    139          1           0        9.987595    3.162892    4.451703
    140          8           0        7.366019    0.155318    5.207432
    141          6           0       11.209498    1.391131    4.397039
    142          1           0       10.998947    1.105373    5.432599
    143          1           0       11.322062    0.480824    3.800146
    144          1           0       12.155157    1.936330    4.369894
    145          8           0       10.423608    2.734605    2.523952
    146          1           0        9.952902    2.177259    1.864351
    147          7           0        8.193979    2.081296    6.113420
    148          1           0        8.707355    2.922216    5.877364
    149          6           0        7.029217    2.400374    6.957844
    150          1           0        6.390952    1.514645    6.967270
    151          6           0        6.363584    3.574181    6.208230
    152          6           0        7.435715    2.782520    8.386468
    153          1           0        8.102154    3.651369    8.305205
    154          8           0        7.051379    4.602679    6.024824
    155          6           0        6.198261    3.200495    9.189444
    156          1           0        5.474944    2.379236    9.248502
    157          1           0        5.695607    4.062239    8.740976
    158          1           0        6.479249    3.471090   10.211042
    159          6           0        8.185760    1.632673    9.063588
    160          1           0        7.537099    0.756248    9.173189
    161          1           0        8.521393    1.927973   10.062035
    162          1           0        9.061421    1.330393    8.483078
    163          7           0        5.141006    3.333683    5.745166
    164          1           0        4.704298    2.400801    5.837914
    165          6           0        4.257034    4.111989    4.871235
    166          1           0        3.614217    4.755975    5.485820
    167          6           0        3.326281    3.016605    4.182233
    168          6           0        4.953577    4.932657    3.792107
    169          1           0        5.836006    4.373622    3.470906
    170          1           0        4.255568    4.947495    2.949153
    171          8           0        2.690230    3.406913    3.183935
    172          6           0        5.380059    6.354702    4.139492
    173          1           0        6.004101    6.349898    5.034520
    174          1           0        4.500538    6.965637    4.372762
    175          6           0        6.114345    7.023178    2.959089
    176          1           0        6.740353    7.849519    3.309929
    177          1           0        5.390225    7.435565    2.252998
    178          7           0        6.947245    6.120477    2.154126
    179          1           0        6.593420    5.787569    1.257059
    180          7           0        8.539916    5.697145    3.801178
    181          1           0        9.465469    5.337506    3.981698
    182          1           0        7.874786    5.554549    4.566287
    183          7           0        8.884846    4.993917    1.607278
    184          1           0        9.532478    4.263838    1.923132
    185          1           0        8.479452    4.879794    0.682969
    186          6           0        8.109458    5.586637    2.524744
    187          8           0        3.382845    1.873685    4.709515
    188          1           0       -5.522033   -5.432463   -5.688853
 ---------------------------------------------------------------------

 SCF Done:  E(RB3LYP) =  -4649.12658277     A.U. after    1 cycles

 Alpha  occ. eigenvalues --  -19.30569 -19.28154 -19.25933 -19.25196 -19.24182
 Alpha  occ. eigenvalues --  -19.22881 -19.20415 -19.19420 -19.19311 -19.18678
 Alpha  occ. eigenvalues --  -19.18510 -19.17998 -19.17296 -19.16956 -19.16312
 Alpha  occ. eigenvalues --  -19.09624 -19.09061 -14.61323 -14.50406 -14.46083
 Alpha  occ. eigenvalues --  -14.43185 -14.43011 -14.42685 -14.42493 -14.42301
 Alpha  occ. eigenvalues --  -14.41857 -14.41385 -14.40865 -14.40656 -14.40519
 Alpha  occ. eigenvalues --  -14.39434 -14.39345 -14.31977 -10.44723 -10.44474
 Alpha  occ. eigenvalues --  -10.42447 -10.39754 -10.38640 -10.36242 -10.36041
 Alpha  occ. eigenvalues --  -10.35797 -10.35463 -10.35169 -10.34857 -10.34334
 Alpha  occ. eigenvalues --  -10.33874 -10.33434 -10.33121 -10.32429 -10.31626
 Alpha  occ. eigenvalues --  -10.31077 -10.30630 -10.30335 -10.29665 -10.29345
 Alpha  occ. eigenvalues --  -10.29086 -10.28526 -10.28133 -10.27949 -10.27480
 Alpha  occ. eigenvalues --  -10.27473 -10.27370 -10.27237 -10.27120 -10.26781
 Alpha  occ. eigenvalues --  -10.26600 -10.26589 -10.25910 -10.25577 -10.25523
 Alpha  occ. eigenvalues --  -10.25327 -10.25293 -10.25185 -10.25102 -10.24739
 Alpha  occ. eigenvalues --  -10.24723 -10.24700 -10.24595 -10.24350 -10.24237
 Alpha  occ. eigenvalues --  -10.24175 -10.23956 -10.23492 -10.23316 -10.23034
 Alpha  occ. eigenvalues --  -10.22994 -10.22979 -10.22675 -10.22227 -10.21507
 Alpha  occ. eigenvalues --  -10.21428 -10.21077 -10.20897 -10.20585 -10.20415
 Alpha  occ. eigenvalues --  -10.18373 -10.17515  -1.22125  -1.20621  -1.15209
 Alpha  occ. eigenvalues --   -1.14500  -1.13404  -1.13333  -1.12162  -1.11619
 Alpha  occ. eigenvalues --   -1.11033  -1.10830  -1.10122  -1.09402  -1.08866
 Alpha  occ. eigenvalues --   -1.08198  -1.07747  -1.07501  -1.07397  -1.07262
 Alpha  occ. eigenvalues --   -1.02861  -1.02788  -1.01789  -1.00042  -0.99715
 Alpha  occ. eigenvalues --   -0.99446  -0.98272  -0.98092  -0.97604  -0.96994
 Alpha  occ. eigenvalues --   -0.96912  -0.96064  -0.95352  -0.95232  -0.93806
 Alpha  occ. eigenvalues --   -0.93617  -0.92005  -0.91309  -0.89625  -0.87583
 Alpha  occ. eigenvalues --   -0.86875  -0.85734  -0.85356  -0.84685  -0.84542
 Alpha  occ. eigenvalues --   -0.84025  -0.83399  -0.82782  -0.82544  -0.82513
 Alpha  occ. eigenvalues --   -0.82130  -0.81446  -0.81112  -0.80512  -0.79885
 Alpha  occ. eigenvalues --   -0.78604  -0.78370  -0.77739  -0.77546  -0.76210
 Alpha  occ. eigenvalues --   -0.75660  -0.75631  -0.74995  -0.74226  -0.73979
 Alpha  occ. eigenvalues --   -0.72821  -0.72067  -0.71884  -0.71552  -0.71407
 Alpha  occ. eigenvalues --   -0.70812  -0.70596  -0.70007  -0.69271  -0.69111
 Alpha  occ. eigenvalues --   -0.68882  -0.68640  -0.68534  -0.68035  -0.67941
 Alpha  occ. eigenvalues --   -0.67100  -0.66904  -0.66637  -0.66248  -0.65631
 Alpha  occ. eigenvalues --   -0.65100  -0.65029  -0.64749  -0.64369  -0.64148
 Alpha  occ. eigenvalues --   -0.63879  -0.63759  -0.63400  -0.63284  -0.62965
 Alpha  occ. eigenvalues --   -0.62358  -0.61954  -0.61849  -0.61530  -0.61170
 Alpha  occ. eigenvalues --   -0.60629  -0.60598  -0.60580  -0.59827  -0.59762
 Alpha  occ. eigenvalues --   -0.59515  -0.59310  -0.59114  -0.58796  -0.58187
 Alpha  occ. eigenvalues --   -0.57835  -0.57509  -0.57416  -0.57300  -0.57141
 Alpha  occ. eigenvalues --   -0.56867  -0.56691  -0.56028  -0.55934  -0.55883
 Alpha  occ. eigenvalues --   -0.55789  -0.55543  -0.55099  -0.54943  -0.54647
 Alpha  occ. eigenvalues --   -0.54463  -0.54130  -0.54073  -0.53949  -0.53780
 Alpha  occ. eigenvalues --   -0.53130  -0.52980  -0.52896  -0.52815  -0.52654
 Alpha  occ. eigenvalues --   -0.52449  -0.52291  -0.52182  -0.51865  -0.51650
 Alpha  occ. eigenvalues --   -0.51430  -0.51357  -0.51062  -0.50983  -0.50929
 Alpha  occ. eigenvalues --   -0.50617  -0.50534  -0.50147  -0.49907  -0.49875
 Alpha  occ. eigenvalues --   -0.49807  -0.49548  -0.49390  -0.48656  -0.48461
 Alpha  occ. eigenvalues --   -0.48413  -0.48382  -0.48198  -0.48027  -0.47702
 Alpha  occ. eigenvalues --   -0.47582  -0.47503  -0.47415  -0.47179  -0.47057
 Alpha  occ. eigenvalues --   -0.46965  -0.46937  -0.46665  -0.46611  -0.46428
 Alpha  occ. eigenvalues --   -0.46337  -0.45720  -0.45690  -0.45647  -0.45418
 Alpha  occ. eigenvalues --   -0.45318  -0.45055  -0.45001  -0.44818  -0.44531
 Alpha  occ. eigenvalues --   -0.44461  -0.44212  -0.44161  -0.44017  -0.43869
 Alpha  occ. eigenvalues --   -0.43799  -0.43742  -0.43662  -0.43636  -0.43563
 Alpha  occ. eigenvalues --   -0.43393  -0.43187  -0.43146  -0.42805  -0.42758
 Alpha  occ. eigenvalues --   -0.42753  -0.42493  -0.42370  -0.42204  -0.42065
 Alpha  occ. eigenvalues --   -0.42050  -0.41902  -0.41687  -0.41512  -0.41398
 Alpha  occ. eigenvalues --   -0.41242  -0.41154  -0.41130  -0.41051  -0.40900
 Alpha  occ. eigenvalues --   -0.40675  -0.40450  -0.40249  -0.40150  -0.39931
 Alpha  occ. eigenvalues --   -0.39888  -0.39711  -0.39481  -0.39417  -0.39230
 Alpha  occ. eigenvalues --   -0.39009  -0.38847  -0.38743  -0.38341  -0.37825
 Alpha  occ. eigenvalues --   -0.37509  -0.37193  -0.37014  -0.36815  -0.36778
 Alpha  occ. eigenvalues --   -0.36168  -0.35968  -0.34911  -0.34628  -0.34473
 Alpha  occ. eigenvalues --   -0.34066  -0.33904  -0.33680  -0.33673  -0.33466
 Alpha  occ. eigenvalues --   -0.33267  -0.33195  -0.33006  -0.32963  -0.32716
 Alpha  occ. eigenvalues --   -0.32563  -0.32370  -0.32072  -0.31534  -0.31014
 Alpha  occ. eigenvalues --   -0.30747  -0.30629  -0.30241  -0.30002  -0.29808
 Alpha  occ. eigenvalues --   -0.29423  -0.29339  -0.29277  -0.28916  -0.28732
 Alpha  occ. eigenvalues --   -0.27954  -0.27388  -0.24933  -0.24259  -0.23461
 Alpha  occ. eigenvalues --   -0.23176
 Alpha virt. eigenvalues --   -0.13867  -0.12092  -0.11882  -0.08998  -0.08270
 Alpha virt. eigenvalues --   -0.07092  -0.06977  -0.06727  -0.06630  -0.06305
 Alpha virt. eigenvalues --   -0.06002  -0.05514  -0.05268  -0.04718  -0.04569

 Mulliken charges:
               1
     1  N   -0.551125
     2  H    0.357557
     3  H    0.373647
     4  H    0.352246
     5  C   -0.091028
     6  H    0.192408
     7  C    0.618685
     8  C   -0.255038
     9  H    0.176064
    10  H    0.165557
    11  O   -0.534145
    12  C    0.569808
    13  O   -0.422111
    14  O   -0.495674
    15  N   -0.498190
    16  H    0.301538
    17  C   -0.035118
    18  H    0.157080
    19  C    0.640605
    20  C   -0.230950
    21  H    0.121511
    22  H    0.131154
    23  O   -0.608981
    24  C    0.091414
    25  C   -0.126878
    26  H    0.096920
    27  C   -0.154810
    28  H    0.090727
    29  C   -0.103475
    30  H    0.115939
    31  C   -0.106768
    32  H    0.094169
    33  O   -0.547753
    34  H    0.327442
    35  C    0.352086
    36  N   -0.500743
    37  H    0.300895
    38  C   -0.010729
    39  H    0.137339
    40  C    0.610339
    41  C   -0.235168
    42  H    0.118952
    43  H    0.129193
    44  O   -0.561824
    45  C    0.097933
    46  C   -0.129306
    47  H    0.094366
    48  C   -0.145178
    49  H    0.086899
    50  C   -0.110824
    51  H    0.102880
    52  C   -0.105812
    53  H    0.091958
    54  O   -0.559828
    55  H    0.326658
    56  C    0.346908
    57  N   -0.519195
    58  H    0.294037
    59  C   -0.005285
    60  H    0.133934
    61  C    0.629364
    62  C   -0.248283
    63  H    0.159357
    64  H    0.113004
    65  O   -0.580416
    66  C    0.092070
    67  C   -0.120083
    68  H    0.103225
    69  C   -0.160891
    70  H    0.084870
    71  C   -0.072518
    72  H    0.106552
    73  C   -0.088423
    74  H    0.096028
    75  C   -0.089274
    76  H    0.100556
    77  N   -0.511283
    78  H    0.280741
    79  C   -0.040988
    80  H    0.156265
    81  C    0.625185
    82  C   -0.324716
    83  H    0.133075
    84  H    0.110712
    85  H    0.130230
    86  O   -0.554376
    87  N   -0.541682
    88  H    0.300566
    89  C   -0.008980
    90  H    0.122405
    91  C    0.627873
    92  C   -0.189796
    93  H    0.077937
    94  H    0.123916
    95  O   -0.550978
    96  C   -0.057800
    97  H    0.098661
    98  C   -0.321501
    99  H    0.075674
   100  H    0.161928
   101  H    0.069516
   102  C   -0.335533
   103  H    0.073048
   104  H    0.160979
   105  H    0.101754
   106  N   -0.524427
   107  H    0.296371
   108  C   -0.025778
   109  H    0.145517
   110  C    0.625199
   111  C   -0.327515
   112  H    0.127476
   113  H    0.128704
   114  H    0.118740
   115  O   -0.590159
   116  N   -0.494532
   117  H    0.321559
   118  C   -0.041328
   119  H    0.132516
   120  C    0.637516
   121  C   -0.301332
   122  H    0.173500
   123  H    0.144044
   124  O   -0.544015
   125  C    0.271936
   126  C   -0.030782
   127  H    0.110713
   128  N   -0.550282
   129  H    0.294874
   130  C    0.254249
   131  H    0.106813
   132  N   -0.455294
   133  N   -0.553116
   134  H    0.294828
   135  C   -0.034408
   136  H    0.150554
   137  C    0.542102
   138  C    0.200900
   139  H    0.054017
   140  O   -0.500980
   141  C   -0.319968
   142  H    0.115574
   143  H    0.125062
   144  H    0.130806
   145  O   -0.581289
   146  H    0.343549
   147  N   -0.501889
   148  H    0.271377
   149  C   -0.006234
   150  H    0.143622
   151  C    0.583850
   152  C   -0.059406
   153  H    0.100362
   154  O   -0.604901
   155  C   -0.325266
   156  H    0.111584
   157  H    0.117931
   158  H    0.111818
   159  C   -0.314170
   160  H    0.111752
   161  H    0.108573
   162  H    0.109123
   163  N   -0.526883
   164  H    0.299730
   165  C   -0.024352
   166  H    0.121576
   167  C    0.604062
   168  C   -0.165418
   169  H    0.052612
   170  H    0.140903
   171  O   -0.583168
   172  C   -0.223796
   173  H    0.131867
   174  H    0.110811
   175  C   -0.066793
   176  H    0.134781
   177  H    0.128722
   178  N   -0.527698
   179  H    0.324680
   180  N   -0.636324
   181  H    0.286399
   182  H    0.345975
   183  N   -0.631158
   184  H    0.316604
   185  H    0.307526
   186  C    0.709902
   187  O   -0.604648
   188  H    0.373173
 Sum of Mulliken charges =   1.00000

 Dipole moment (field-independent basis, Debye):
    X=            -32.2969    Y=            -13.8865    Z=            -26.4970  Tot=             44.0230
 Quadrupole moment (field-independent basis, Debye-Ang):
   XX=            -81.7616   YY=           -333.9160   ZZ=           -372.4904
   XY=            303.5052   XZ=            287.2895   YZ=            156.0830

 Normal termination of Gaussian 16 at Fri Sep  9 20:46:13 2022.
