 Gaussian 16, Revision C.01,
 Gaussian 16:  ES64L-G16RevC.01  3-Jul-2019

 ----------------------------------------------------------------------
 # B3LYP/6-31G* empiricaldispersion=gd3 guess=read geom=check nosymm in
 tegral(ultrafinegrid)
 ----------------------------------------------------------------------

 ------------------------------------------------------
 Candidate Structure: Conf:950 Charge calc in gas phase
 ------------------------------------------------------
 Structure from the checkpoint file:  "conf-950.chk"
 Charge =  1 Multiplicity = 1

                          Input orientation:
 ---------------------------------------------------------------------
 Center     Atomic      Atomic             Coordinates (Angstroms)
 Number     Number       Type             X           Y           Z
 ---------------------------------------------------------------------
      1          7           0       -2.791369   -3.114081    2.903239
      2          1           0       -3.095484   -3.365278    3.842004
      3          1           0       -3.445559   -2.417054    2.553642
      4          6           0       -1.431283   -2.589416    2.930164
      5          1           0       -1.293452   -1.715538    3.598058
      6          6           0       -1.017335   -2.197783    1.489971
      7          6           0       -0.478109   -3.717688    3.402222
      8          1           0       -0.751999   -4.019359    4.420063
      9          1           0       -0.640021   -4.567194    2.735653
     10          8           0       -0.771704   -3.050208    0.651214
     11          6           0        0.949945   -3.270091    3.349236
     12          6           0        1.773245   -3.440325    2.304397
     13          1           0        1.599712   -3.884438    1.336515
     14          6           0        1.629144   -2.429819    4.346816
     15          6           0        2.884101   -2.071516    3.849528
     16          6           0        1.252328   -1.977451    5.612184
     17          1           0        0.283826   -2.234909    6.029109
     18          7           0        3.006195   -2.634866    2.489905
     19          1           0        3.876854   -3.159353    2.347114
     20          6           0        3.421320   -0.877534    5.817785
     21          1           0        4.113935   -0.289237    6.411437
     22          6           0        3.813396   -1.319546    4.544620
     23          1           0        4.777923   -1.066191    4.120224
     24          6           0        2.158894   -1.197358    6.336355
     25          1           0        1.886338   -0.842963    7.325570
     26          7           0       -0.962253   -0.845714    1.270952
     27          1           0       -1.117436   -0.255371    2.076998
     28          6           0       -0.363781   -0.171597    0.115094
     29          1           0       -0.769508    0.848683    0.122932
     30          6           0        1.152509   -0.098087    0.335165
     31          6           0       -0.726706   -0.790569   -1.265615
     32          1           0       -0.343753   -1.813272   -1.272865
     33          8           0        1.799956   -1.094740    0.686974
     34          6           0       -0.065786    0.003511   -2.421236
     35          1           0       -0.735497   -0.034533   -3.287794
     36          1           0        0.003339    1.070887   -2.160582
     37          6           0       -2.252566   -0.842236   -1.417839
     38          1           0       -2.689177    0.165003   -1.403347
     39          1           0       -2.513588   -1.305068   -2.374746
     40          1           0       -2.717925   -1.434700   -0.626242
     41          6           0        1.306683   -0.528119   -2.856666
     42          1           0        1.729380    0.088588   -3.657085
     43          1           0        1.214290   -1.551395   -3.237118
     44          1           0        2.031314   -0.554915   -2.036295
     45          7           0        1.763006    1.085771    0.133321
     46          1           0        1.228536    1.902174   -0.128002
     47          6           0        3.210355    1.193325    0.280899
     48          1           0        3.682336    0.472536   -0.394409
     49          6           0        3.639131    0.739891    1.677846
     50          6           0        3.718960    2.603330   -0.068043
     51          1           0        4.809115    2.595386    0.041942
     52          1           0        3.508679    2.768472   -1.133889
     53          8           0        4.592933    0.016009    1.882957
     54          6           0        3.151922    3.763825    0.759146
     55          1           0        3.315398    3.578214    1.826739
     56          1           0        2.064304    3.853403    0.625000
     57          6           0        3.795614    5.102563    0.363403
     58          1           0        3.644034    5.296398   -0.701788
     59          1           0        3.300132    5.916650    0.910076
     60          7           0        5.238589    5.112916    0.621715
     61          1           0        5.479762    5.406986    1.560585
     62          7           0        5.856195    5.196009   -1.636572
     63          1           0        6.594221    5.492891   -2.266405
     64          1           0        5.656667    4.206252   -1.741585
     65          7           0        7.219100    6.271577   -0.099967
     66          1           0        7.249077    6.616997    0.861221
     67          6           0        6.166596    5.578870   -0.325873
     68          8           0        2.847574    1.223358    2.654892
     69          1           0        2.954490   -1.872544    1.767947
     70          1           0        3.180679    0.876561    3.506086
 ---------------------------------------------------------------------

 SCF Done:  E(RB3LYP) =  -1582.17556729     A.U. after    1 cycles

 Alpha  occ. eigenvalues --  -19.31955 -19.26327 -19.25437 -19.21783 -14.58823
 Alpha  occ. eigenvalues --  -14.49587 -14.47510 -14.42309 -14.41977 -14.40458
 Alpha  occ. eigenvalues --  -14.34801 -10.44501 -10.41901 -10.39217 -10.37651
 Alpha  occ. eigenvalues --  -10.36263 -10.36055 -10.35290 -10.34418 -10.34310
 Alpha  occ. eigenvalues --  -10.34169 -10.33930 -10.33675 -10.32960 -10.32855
 Alpha  occ. eigenvalues --  -10.32609 -10.30916 -10.30556 -10.30464 -10.28865
 Alpha  occ. eigenvalues --  -10.28815 -10.27620 -10.26237 -10.25902  -1.22972
 Alpha  occ. eigenvalues --   -1.17288  -1.15262  -1.13887  -1.13849  -1.05871
 Alpha  occ. eigenvalues --   -1.04008  -1.03639  -0.99906  -0.99319  -0.95652
 Alpha  occ. eigenvalues --   -0.95095  -0.92075  -0.90811  -0.89947  -0.88623
 Alpha  occ. eigenvalues --   -0.87752  -0.85410  -0.84834  -0.83295  -0.80626
 Alpha  occ. eigenvalues --   -0.77820  -0.76938  -0.75850  -0.74106  -0.73571
 Alpha  occ. eigenvalues --   -0.73041  -0.72117  -0.71203  -0.70138  -0.69268
 Alpha  occ. eigenvalues --   -0.69187  -0.67546  -0.66960  -0.65940  -0.64063
 Alpha  occ. eigenvalues --   -0.63088  -0.62572  -0.61650  -0.61193  -0.60916
 Alpha  occ. eigenvalues --   -0.60820  -0.59983  -0.59282  -0.58179  -0.58021
 Alpha  occ. eigenvalues --   -0.57379  -0.57295  -0.57011  -0.56791  -0.55715
 Alpha  occ. eigenvalues --   -0.54663  -0.54323  -0.53909  -0.53460  -0.52841
 Alpha  occ. eigenvalues --   -0.52284  -0.51846  -0.51745  -0.51560  -0.51061
 Alpha  occ. eigenvalues --   -0.50833  -0.50466  -0.50435  -0.49850  -0.49149
 Alpha  occ. eigenvalues --   -0.48677  -0.48385  -0.47990  -0.47399  -0.47063
 Alpha  occ. eigenvalues --   -0.46623  -0.45978  -0.45653  -0.44730  -0.44391
 Alpha  occ. eigenvalues --   -0.43824  -0.43127  -0.42612  -0.42312  -0.42169
 Alpha  occ. eigenvalues --   -0.41504  -0.41023  -0.40074  -0.39377  -0.38308
 Alpha  occ. eigenvalues --   -0.36673  -0.36223  -0.34985  -0.33711  -0.33226
 Alpha  occ. eigenvalues --   -0.32005  -0.29276
 Alpha virt. eigenvalues --   -0.16881  -0.14783  -0.12360  -0.11173  -0.09173
 Alpha virt. eigenvalues --   -0.08187  -0.06685  -0.05620  -0.03860  -0.03415
 Alpha virt. eigenvalues --   -0.02855  -0.01981  -0.01269  -0.00567  -0.00190

 Mulliken charges:
               1
     1  N   -0.700209
     2  H    0.315746
     3  H    0.316931
     4  C   -0.058643
     5  H    0.107488
     6  C    0.644077
     7  C   -0.348624
     8  H    0.164208
     9  H    0.216850
    10  O   -0.507557
    11  C    0.130732
    12  C   -0.056728
    13  H    0.239330
    14  C    0.149847
    15  C    0.177284
    16  C   -0.205643
    17  H    0.169749
    18  N   -0.745168
    19  H    0.414507
    20  C   -0.156270
    21  H    0.180683
    22  C   -0.206189
    23  H    0.204680
    24  C   -0.115297
    25  H    0.177996
    26  N   -0.615927
    27  H    0.335555
    28  C   -0.059768
    29  H    0.148019
    30  C    0.671144
    31  C   -0.080665
    32  H    0.193340
    33  O   -0.588262
    34  C   -0.279826
    35  H    0.166878
    36  H    0.112929
    37  C   -0.460369
    38  H    0.141285
    39  H    0.169767
    40  H    0.164794
    41  C   -0.462551
    42  H    0.158241
    43  H    0.167360
    44  H    0.143042
    45  N   -0.598212
    46  H    0.353535
    47  C   -0.003688
    48  H    0.198133
    49  C    0.595032
    50  C   -0.335061
    51  H    0.194270
    52  H    0.165895
    53  O   -0.491849
    54  C   -0.264920
    55  H    0.156024
    56  H    0.126253
    57  C   -0.154391
    58  H    0.189134
    59  H    0.157514
    60  N   -0.597106
    61  H    0.315484
    62  N   -0.737411
    63  H    0.347470
    64  H    0.315827
    65  N   -0.614877
    66  H    0.269170
    67  C    0.548109
    68  O   -0.561193
    69  H    0.467351
    70  H    0.424739
 Sum of Mulliken charges =   1.00000

 Dipole moment (field-independent basis, Debye):
    X=              6.4971    Y=             -2.4312    Z=             13.9459  Tot=             15.5760
 Quadrupole moment (field-independent basis, Debye-Ang):
   XX=           -177.9867   YY=           -184.7702   ZZ=           -118.9415
   XY=            -21.5494   XZ=             23.1154   YZ=            -15.3262

 Normal termination of Gaussian 16 at Fri Jun  3 04:56:07 2022.
