 Gaussian 16, Revision C.01,
 Gaussian 16:  ES64L-G16RevC.01  3-Jul-2019

 ----------------------------------------------------------------------
 # B3LYP/6-31G* empiricaldispersion=gd3 guess=read geom=check nosymm in
 tegral(ultrafinegrid)
 ----------------------------------------------------------------------

 ------------------------------------------------------
 Candidate Structure: Conf:448 Charge calc in gas phase
 ------------------------------------------------------
 Structure from the checkpoint file:  "conf-448.chk"
 Charge =  1 Multiplicity = 1

                          Input orientation:
 ---------------------------------------------------------------------
 Center     Atomic      Atomic             Coordinates (Angstroms)
 Number     Number       Type             X           Y           Z
 ---------------------------------------------------------------------
      1          7           0       -3.367648   -2.008115    1.358457
      2          1           0       -3.823607   -2.767155    0.854011
      3          1           0       -3.957294   -1.776216    2.154716
      4          6           0       -2.024832   -2.395288    1.784336
      5          1           0       -1.633795   -1.559179    2.380415
      6          6           0       -1.129398   -2.503196    0.528206
      7          6           0       -1.921573   -3.691157    2.636564
      8          1           0       -2.709564   -3.666067    3.397977
      9          1           0       -2.096023   -4.558743    1.994823
     10          8           0       -0.412094   -3.472264    0.302147
     11          6           0       -0.580149   -3.791364    3.298673
     12          6           0        0.495443   -4.432073    2.819321
     13          1           0        0.644606   -4.973335    1.899123
     14          6           0       -0.188481   -3.063324    4.515702
     15          6           0        1.176975   -3.261309    4.734083
     16          6           0       -0.901444   -2.265610    5.410205
     17          1           0       -1.964274   -2.090155    5.276840
     18          7           0        1.690357   -4.107836    3.638003
     19          1           0        2.181252   -4.943070    3.977401
     20          6           0        1.154212   -1.926325    6.681774
     21          1           0        1.660163   -1.479678    7.531366
     22          6           0        1.885670   -2.721613    5.788128
     23          1           0        2.948281   -2.895736    5.926907
     24          6           0       -0.214993   -1.703623    6.491796
     25          1           0       -0.754587   -1.084281    7.201413
     26          7           0       -1.171898   -1.405416   -0.275994
     27          1           0       -2.001126   -0.829837   -0.172798
     28          6           0       -0.469299   -1.402044   -1.567599
     29          1           0       -0.602416   -0.385994   -1.962547
     30          6           0        1.049216   -1.571961   -1.314979
     31          6           0       -1.000483   -2.409151   -2.619421
     32          1           0       -0.540935   -3.378439   -2.400428
     33          8           0        1.779697   -2.249258   -2.018789
     34          6           0       -0.554116   -1.960089   -4.029167
     35          1           0       -1.136430   -1.071456   -4.317109
     36          1           0        0.495650   -1.655536   -3.990746
     37          6           0       -2.526865   -2.546894   -2.536362
     38          1           0       -3.024181   -1.576613   -2.668033
     39          1           0       -2.895025   -3.213785   -3.320531
     40          1           0       -2.852143   -2.965938   -1.578414
     41          6           0       -0.702109   -3.047705   -5.097993
     42          1           0       -0.343851   -2.686635   -6.067829
     43          1           0       -1.742552   -3.363741   -5.231081
     44          1           0       -0.111540   -3.932285   -4.832350
     45          7           0        1.540464   -0.815375   -0.277464
     46          1           0        0.890377   -0.405853    0.378648
     47          6           0        2.952182   -0.793417    0.015852
     48          1           0        3.488097   -0.932300   -0.926436
     49          6           0        3.364517   -1.935722    0.936911
     50          6           0        3.380958    0.540532    0.666136
     51          1           0        2.837844    0.667200    1.614554
     52          1           0        4.446113    0.469723    0.919557
     53          8           0        2.667119   -2.380071    1.841597
     54          6           0        3.148548    1.740966   -0.257006
     55          1           0        2.080909    1.833981   -0.492462
     56          1           0        3.673421    1.580897   -1.205825
     57          6           0        3.654898    3.054481    0.359773
     58          1           0        3.140001    3.258946    1.306550
     59          1           0        4.718315    2.956570    0.600859
     60          7           0        3.466054    4.225538   -0.497411
     61          1           0        2.506518    4.551240   -0.519320
     62          7           0        5.356984    3.752822   -1.793324
     63          1           0        5.778590    3.924599   -2.700395
     64          1           0        5.951408    4.096581   -1.044825
     65          7           0        3.546538    4.747931   -2.845977
     66          1           0        2.557352    4.974287   -2.725038
     67          6           0        4.060592    4.282162   -1.769081
     68          8           0        4.609930   -2.345287    0.695369
     69          1           0        2.335890   -3.549214    3.016634
     70          1           0        4.859314   -3.034826    1.338531
 ---------------------------------------------------------------------

 SCF Done:  E(RB3LYP) =  -1582.17732796     A.U. after    1 cycles

 Alpha  occ. eigenvalues --  -19.32603 -19.28012 -19.22484 -19.20393 -14.59309
 Alpha  occ. eigenvalues --  -14.45877 -14.45265 -14.43846 -14.41282 -14.39593
 Alpha  occ. eigenvalues --  -14.34121 -10.45122 -10.39082 -10.37727 -10.37719
 Alpha  occ. eigenvalues --  -10.36459 -10.34678 -10.34550 -10.34166 -10.34149
 Alpha  occ. eigenvalues --  -10.33955 -10.33529 -10.32900 -10.32623 -10.32408
 Alpha  occ. eigenvalues --  -10.32220 -10.31634 -10.29825 -10.29627 -10.26979
 Alpha  occ. eigenvalues --  -10.26144 -10.24861 -10.24055 -10.22855  -1.23802
 Alpha  occ. eigenvalues --   -1.15969  -1.14690  -1.14380  -1.12467  -1.03263
 Alpha  occ. eigenvalues --   -1.03147  -1.01907  -1.00502  -0.99561  -0.95317
 Alpha  occ. eigenvalues --   -0.94684  -0.90189  -0.89408  -0.88632  -0.88195
 Alpha  occ. eigenvalues --   -0.87776  -0.85357  -0.83855  -0.81362  -0.78281
 Alpha  occ. eigenvalues --   -0.77140  -0.76595  -0.76096  -0.74151  -0.73264
 Alpha  occ. eigenvalues --   -0.72473  -0.70802  -0.69700  -0.69150  -0.68518
 Alpha  occ. eigenvalues --   -0.67739  -0.66708  -0.65771  -0.64475  -0.63475
 Alpha  occ. eigenvalues --   -0.62840  -0.62344  -0.61564  -0.61122  -0.60178
 Alpha  occ. eigenvalues --   -0.59658  -0.58903  -0.58473  -0.58152  -0.57373
 Alpha  occ. eigenvalues --   -0.57270  -0.56611  -0.55792  -0.54774  -0.54348
 Alpha  occ. eigenvalues --   -0.53539  -0.53419  -0.53409  -0.52803  -0.52196
 Alpha  occ. eigenvalues --   -0.51929  -0.51473  -0.51038  -0.50418  -0.50260
 Alpha  occ. eigenvalues --   -0.49674  -0.49166  -0.48797  -0.48686  -0.48374
 Alpha  occ. eigenvalues --   -0.47401  -0.47352  -0.46992  -0.46578  -0.45929
 Alpha  occ. eigenvalues --   -0.45071  -0.44653  -0.44515  -0.44045  -0.43535
 Alpha  occ. eigenvalues --   -0.42783  -0.42318  -0.42097  -0.41282  -0.40949
 Alpha  occ. eigenvalues --   -0.39213  -0.39093  -0.38717  -0.37443  -0.36752
 Alpha  occ. eigenvalues --   -0.36187  -0.34847  -0.34518  -0.33300  -0.32300
 Alpha  occ. eigenvalues --   -0.31323  -0.28474
 Alpha virt. eigenvalues --   -0.16884  -0.14513  -0.12015  -0.09927  -0.08701
 Alpha virt. eigenvalues --   -0.07882  -0.06844  -0.04893  -0.03692  -0.02836
 Alpha virt. eigenvalues --   -0.01723  -0.00711  -0.00389   0.00117   0.00388

 Mulliken charges:
               1
     1  N   -0.726210
     2  H    0.328143
     3  H    0.323164
     4  C   -0.084310
     5  H    0.165746
     6  C    0.625223
     7  C   -0.355145
     8  H    0.162378
     9  H    0.189438
    10  O   -0.523485
    11  C    0.147762
    12  C   -0.062490
    13  H    0.237184
    14  C    0.151729
    15  C    0.178395
    16  C   -0.207603
    17  H    0.164224
    18  N   -0.745803
    19  H    0.408572
    20  C   -0.142182
    21  H    0.179563
    22  C   -0.152572
    23  H    0.172406
    24  C   -0.116037
    25  H    0.177188
    26  N   -0.629571
    27  H    0.361434
    28  C   -0.055378
    29  H    0.170942
    30  C    0.635842
    31  C   -0.062393
    32  H    0.165905
    33  O   -0.506128
    34  C   -0.269696
    35  H    0.125329
    36  H    0.165455
    37  C   -0.466593
    38  H    0.139176
    39  H    0.169932
    40  H    0.126699
    41  C   -0.453234
    42  H    0.156519
    43  H    0.146103
    44  H    0.154912
    45  N   -0.599336
    46  H    0.332453
    47  C   -0.033139
    48  H    0.218977
    49  C    0.619917
    50  C   -0.305309
    51  H    0.139949
    52  H    0.170152
    53  O   -0.517190
    54  C   -0.260763
    55  H    0.133932
    56  H    0.187032
    57  C   -0.138287
    58  H    0.143315
    59  H    0.156206
    60  N   -0.577861
    61  H    0.310458
    62  N   -0.740431
    63  H    0.344424
    64  H    0.325342
    65  N   -0.617852
    66  H    0.265026
    67  C    0.540210
    68  O   -0.517681
    69  H    0.433653
    70  H    0.416269
 Sum of Mulliken charges =   1.00000

 Dipole moment (field-independent basis, Debye):
    X=              3.3895    Y=            -11.7971    Z=             18.7785  Tot=             22.4341
 Quadrupole moment (field-independent basis, Debye-Ang):
   XX=           -141.7550   YY=           -150.5130   ZZ=           -128.9249
   XY=            -13.2773   XZ=             29.7235   YZ=            -43.0135

 Normal termination of Gaussian 16 at Fri Jun  3 04:56:11 2022.
