 Gaussian 16, Revision C.01,
 Gaussian 16:  ES64L-G16RevC.01  3-Jul-2019

 ----------------------------------------------------------------------
 # B3LYP/6-31G* empiricaldispersion=gd3 guess=read geom=check nosymm in
 tegral(ultrafinegrid)
 ----------------------------------------------------------------------

 ------------------------------------------------------
 Candidate Structure: Conf:102 Charge calc in gas phase
 ------------------------------------------------------
 Structure from the checkpoint file:  "conf-102.chk"
 Charge =  1 Multiplicity = 1

                          Input orientation:
 ---------------------------------------------------------------------
 Center     Atomic      Atomic             Coordinates (Angstroms)
 Number     Number       Type             X           Y           Z
 ---------------------------------------------------------------------
      1          7           0       -1.724399   -3.268805    2.773604
      2          1           0       -2.652983   -2.872193    2.904636
      3          1           0       -1.768845   -3.825451    1.919673
      4          6           0       -0.752252   -2.199456    2.545383
      5          1           0       -1.020916   -1.341489    3.170920
      6          6           0       -0.693263   -1.809588    1.053386
      7          6           0        0.660866   -2.663542    3.008891
      8          1           0        1.383765   -1.854811    2.866307
      9          1           0        0.587434   -2.869692    4.080303
     10          8           0       -0.680890   -2.698069    0.205375
     11          6           0        1.110210   -3.901133    2.293242
     12          6           0        0.672506   -5.145107    2.549654
     13          1           0       -0.053261   -5.525699    3.251548
     14          6           0        2.071635   -3.947669    1.182415
     15          6           0        2.205510   -5.268637    0.756380
     16          6           0        2.813811   -2.960761    0.539448
     17          1           0        2.712080   -1.919218    0.818369
     18          7           0        1.293564   -6.105246    1.584641
     19          1           0        1.796099   -6.860453    2.068257
     20          6           0        3.780271   -4.679866   -0.890846
     21          1           0        4.450497   -4.947052   -1.701652
     22          6           0        3.031900   -5.688107   -0.265158
     23          1           0        3.106079   -6.726635   -0.574061
     24          6           0        3.672695   -3.339786   -0.498298
     25          1           0        4.257390   -2.574412   -1.008267
     26          7           0       -0.689177   -0.473428    0.795044
     27          1           0       -0.551297    0.124456    1.599721
     28          6           0       -0.446090    0.174810   -0.510587
     29          1           0       -0.831428    1.197597   -0.397470
     30          6           0        1.085089    0.230678   -0.683703
     31          6           0       -1.152332   -0.464262   -1.719260
     32          1           0       -0.679300   -1.433435   -1.895637
     33          8           0        1.715872   -0.635354   -1.278466
     34          6           0       -0.914665    0.432377   -2.954544
     35          1           0       -1.436835    1.390689   -2.812657
     36          1           0        0.154935    0.665254   -3.030603
     37          6           0       -2.645395   -0.671526   -1.437178
     38          1           0       -3.141285    0.279838   -1.203724
     39          1           0       -3.145670   -1.101119   -2.309384
     40          1           0       -2.802902   -1.358427   -0.602295
     41          6           0       -1.357772   -0.206703   -4.275108
     42          1           0       -1.103110    0.439273   -5.122033
     43          1           0       -2.438461   -0.378274   -4.308045
     44          1           0       -0.858246   -1.170821   -4.426510
     45          7           0        1.684331    1.293655   -0.063649
     46          1           0        1.097126    1.903747    0.490624
     47          6           0        3.094736    1.284624    0.277125
     48          1           0        3.565731    0.505050   -0.332442
     49          6           0        3.251029    0.799012    1.715906
     50          6           0        3.790228    2.626637   -0.017131
     51          1           0        3.443599    3.390488    0.691226
     52          1           0        4.859948    2.491295    0.163473
     53          8           0        2.361585    0.282153    2.367378
     54          6           0        3.556909    3.123223   -1.451958
     55          1           0        4.152809    4.032937   -1.597545
     56          1           0        2.506586    3.410878   -1.584229
     57          6           0        3.905235    2.100350   -2.548384
     58          1           0        3.207876    1.259276   -2.505297
     59          1           0        3.760245    2.563194   -3.531870
     60          7           0        5.265702    1.594578   -2.445667
     61          1           0        5.982348    2.132303   -2.914454
     62          7           0        6.990288    0.112460   -2.081862
     63          1           0        7.237858   -0.822524   -1.782658
     64          1           0        7.502626    0.831894   -1.584436
     65          7           0        4.834251   -0.723825   -1.942693
     66          1           0        3.860789   -0.543237   -2.182543
     67          6           0        5.610555    0.286646   -2.146754
     68          8           0        4.502201    0.961782    2.175039
     69          1           0        0.573209   -6.550589    1.000299
     70          1           0        4.531822    0.601150    3.082026
 ---------------------------------------------------------------------

 SCF Done:  E(RB3LYP) =  -1582.18363874     A.U. after    3 cycles

 Alpha  occ. eigenvalues --  -19.30033 -19.24640 -19.21349 -19.21059 -14.60525
 Alpha  occ. eigenvalues --  -14.46320 -14.45918 -14.42588 -14.41422 -14.41057
 Alpha  occ. eigenvalues --  -14.35385 -10.42423 -10.38278 -10.38063 -10.36068
 Alpha  occ. eigenvalues --  -10.35685 -10.35613 -10.34055 -10.32953 -10.32937
 Alpha  occ. eigenvalues --  -10.32665 -10.32022 -10.31960 -10.30112 -10.30111
 Alpha  occ. eigenvalues --  -10.29966 -10.29956 -10.28607 -10.27895 -10.26856
 Alpha  occ. eigenvalues --  -10.26262 -10.25117 -10.24171 -10.23636  -1.21045
 Alpha  occ. eigenvalues --   -1.15769  -1.13552  -1.12741  -1.11920  -1.04772
 Alpha  occ. eigenvalues --   -1.02912  -1.01893  -0.99128  -0.97708  -0.95980
 Alpha  occ. eigenvalues --   -0.93803  -0.90963  -0.89493  -0.88207  -0.86365
 Alpha  occ. eigenvalues --   -0.86021  -0.84330  -0.83398  -0.81314  -0.78254
 Alpha  occ. eigenvalues --   -0.76486  -0.75661  -0.74302  -0.72818  -0.72406
 Alpha  occ. eigenvalues --   -0.71963  -0.70578  -0.69090  -0.68363  -0.68026
 Alpha  occ. eigenvalues --   -0.67275  -0.66332  -0.65257  -0.63208  -0.62415
 Alpha  occ. eigenvalues --   -0.62196  -0.61481  -0.61222  -0.59966  -0.59085
 Alpha  occ. eigenvalues --   -0.59002  -0.58777  -0.58566  -0.57431  -0.57004
 Alpha  occ. eigenvalues --   -0.55693  -0.55182  -0.54677  -0.54151  -0.53888
 Alpha  occ. eigenvalues --   -0.53570  -0.53353  -0.52593  -0.52050  -0.51911
 Alpha  occ. eigenvalues --   -0.51427  -0.50831  -0.50135  -0.49667  -0.49024
 Alpha  occ. eigenvalues --   -0.48921  -0.48172  -0.47885  -0.47810  -0.47386
 Alpha  occ. eigenvalues --   -0.47017  -0.46459  -0.46149  -0.45839  -0.45344
 Alpha  occ. eigenvalues --   -0.44335  -0.44244  -0.43391  -0.42699  -0.42603
 Alpha  occ. eigenvalues --   -0.42418  -0.41838  -0.41710  -0.40327  -0.39689
 Alpha  occ. eigenvalues --   -0.39331  -0.38220  -0.37495  -0.36645  -0.35847
 Alpha  occ. eigenvalues --   -0.35538  -0.34644  -0.33611  -0.33160  -0.32991
 Alpha  occ. eigenvalues --   -0.32677  -0.29913
 Alpha virt. eigenvalues --   -0.15650  -0.12254  -0.09600  -0.09502  -0.08710
 Alpha virt. eigenvalues --   -0.07292  -0.06340  -0.04019  -0.03251  -0.02360
 Alpha virt. eigenvalues --   -0.01925  -0.01528  -0.00705  -0.00101   0.00593

 Mulliken charges:
               1
     1  N   -0.717377
     2  H    0.322536
     3  H    0.318171
     4  C   -0.081122
     5  H    0.152404
     6  C    0.629238
     7  C   -0.362168
     8  H    0.207189
     9  H    0.187351
    10  O   -0.530721
    11  C    0.174172
    12  C   -0.113282
    13  H    0.221663
    14  C    0.165993
    15  C    0.153478
    16  C   -0.191704
    17  H    0.165764
    18  N   -0.727614
    19  H    0.418238
    20  C   -0.152147
    21  H    0.173140
    22  C   -0.156227
    23  H    0.166095
    24  C   -0.131817
    25  H    0.233320
    26  N   -0.616011
    27  H    0.336651
    28  C   -0.059271
    29  H    0.147857
    30  C    0.648145
    31  C   -0.075032
    32  H    0.184391
    33  O   -0.523367
    34  C   -0.270538
    35  H    0.128633
    36  H    0.142590
    37  C   -0.461111
    38  H    0.136557
    39  H    0.162355
    40  H    0.151809
    41  C   -0.451341
    42  H    0.153462
    43  H    0.154584
    44  H    0.153365
    45  N   -0.583353
    46  H    0.326401
    47  C   -0.102564
    48  H    0.232268
    49  C    0.603285
    50  C   -0.271494
    51  H    0.145331
    52  H    0.177098
    53  O   -0.494695
    54  C   -0.254020
    55  H    0.151200
    56  H    0.145049
    57  C   -0.166537
    58  H    0.174003
    59  H    0.164309
    60  N   -0.605167
    61  H    0.333441
    62  N   -0.740483
    63  H    0.338418
    64  H    0.324091
    65  N   -0.687484
    66  H    0.319835
    67  C    0.600231
    68  O   -0.545197
    69  H    0.424049
    70  H    0.423689
 Sum of Mulliken charges =   1.00000

 Dipole moment (field-independent basis, Debye):
    X=              9.2064    Y=            -11.9432    Z=              6.2575  Tot=             16.3265
 Quadrupole moment (field-independent basis, Debye-Ang):
   XX=           -141.7217   YY=            -65.3022   ZZ=           -176.1566
   XY=             -7.9248   XZ=              4.0605   YZ=            -33.2483

 Normal termination of Gaussian 16 at Fri Jun  3 04:42:58 2022.
