 Gaussian 16, Revision C.01,
 Gaussian 16:  ES64L-G16RevC.01  3-Jul-2019

 ----------------------------------------------------------------------
 # B3LYP/6-31G* empiricaldispersion=gd3 guess=read geom=check nosymm in
 tegral(ultrafinegrid)
 ----------------------------------------------------------------------

 ------------------------------------------------------
 Candidate Structure: Conf:883 Charge calc in gas phase
 ------------------------------------------------------
 Structure from the checkpoint file:  "conf-883.chk"
 Charge =  1 Multiplicity = 1

                          Input orientation:
 ---------------------------------------------------------------------
 Center     Atomic      Atomic             Coordinates (Angstroms)
 Number     Number       Type             X           Y           Z
 ---------------------------------------------------------------------
      1          7           0       -0.084188    0.138630    3.086801
      2          1           0        0.826628   -0.208119    2.781463
      3          1           0        0.014870    1.148569    3.183861
      4          6           0       -1.090126   -0.152067    2.066487
      5          1           0       -1.222057   -1.241119    2.035970
      6          6           0       -0.664751    0.365022    0.680044
      7          6           0       -2.436432    0.521625    2.435559
      8          1           0       -2.367065    1.579100    2.171313
      9          1           0       -3.240325    0.085212    1.830969
     10          8           0       -0.555968    1.586855    0.474981
     11          6           0       -2.750316    0.399321    3.892497
     12          6           0       -2.638623    1.394413    4.784308
     13          1           0       -2.254816    2.423014    4.736110
     14          6           0       -3.169402   -0.832430    4.576848
     15          6           0       -3.296630   -0.568849    5.940935
     16          6           0       -3.445892   -2.119434    4.118763
     17          1           0       -3.363317   -2.364429    3.064933
     18          7           0       -2.948823    0.859114    6.152115
     19          1           0       -2.126238    0.966112    6.760767
     20          6           0       -3.953589   -2.784200    6.412705
     21          1           0       -4.259372   -3.554781    7.112552
     22          6           0       -3.681545   -1.493884    6.889882
     23          1           0       -3.770764   -1.251205    7.944445
     24          6           0       -3.836506   -3.086874    5.050784
     25          1           0       -4.055699   -4.094553    4.712041
     26          7           0       -0.385364   -0.556826   -0.262219
     27          1           0       -0.316031   -1.526007    0.021839
     28          6           0        0.221440   -0.206259   -1.562080
     29          1           0       -0.199763    0.766077   -1.835767
     30          6           0        1.732134   -0.072778   -1.260643
     31          6           0       -0.087415   -1.239570   -2.659845
     32          1           0        0.593412   -2.086786   -2.505825
     33          8           0        2.524658   -0.992291   -1.409065
     34          6           0        0.181681   -0.647874   -4.062826
     35          1           0       -0.020884   -1.442233   -4.792031
     36          1           0       -0.565619    0.136477   -4.255397
     37          6           0       -1.541581   -1.733123   -2.589529
     38          1           0       -2.246555   -0.895575   -2.661144
     39          1           0       -1.745706   -2.413267   -3.422770
     40          1           0       -1.763320   -2.276168   -1.664639
     41          6           0        1.586016   -0.087775   -4.319137
     42          1           0        1.691731    0.191154   -5.372830
     43          1           0        2.359583   -0.821621   -4.075162
     44          1           0        1.786099    0.812501   -3.726139
     45          7           0        2.076047    1.126324   -0.704350
     46          1           0        1.307479    1.728670   -0.426806
     47          6           0        3.335358    1.259305    0.006172
     48          1           0        4.164823    1.217241   -0.704614
     49          6           0        3.510315    0.104338    0.999727
     50          6           0        3.362257    2.604201    0.770956
     51          1           0        4.389306    2.807664    1.090872
     52          1           0        3.093522    3.389561    0.052428
     53          8           0        2.608467   -0.439558    1.607657
     54          6           0        2.409314    2.623417    1.978945
     55          1           0        2.866425    2.082120    2.816660
     56          1           0        1.495227    2.075803    1.735944
     57          6           0        2.012746    4.027003    2.453684
     58          1           0        2.901297    4.618992    2.702012
     59          1           0        1.479072    4.567742    1.665665
     60          7           0        1.156753    3.981172    3.635147
     61          1           0        1.617013    3.868879    4.526746
     62          7           0       -0.840692    3.858731    2.431052
     63          1           0       -1.845646    3.945273    2.498686
     64          1           0       -0.535230    3.195621    1.722923
     65          7           0       -0.946614    3.941121    4.741496
     66          1           0       -0.384718    4.191906    5.556886
     67          6           0       -0.216791    3.915745    3.662494
     68          8           0        4.807044   -0.179909    1.189995
     69          1           0       -3.713928    1.385744    6.593552
     70          1           0        4.858224   -0.898898    1.848474
 ---------------------------------------------------------------------

 SCF Done:  E(RB3LYP) =  -1582.19338831     A.U. after    2 cycles

 Alpha  occ. eigenvalues --  -19.28471 -19.23009 -19.22898 -19.19841 -14.61167
 Alpha  occ. eigenvalues --  -14.47161 -14.44471 -14.43771 -14.42463 -14.41610
 Alpha  occ. eigenvalues --  -14.37498 -10.40958 -10.39419 -10.37913 -10.37628
 Alpha  occ. eigenvalues --  -10.36641 -10.35537 -10.34587 -10.34082 -10.34041
 Alpha  occ. eigenvalues --  -10.33911 -10.32749 -10.32551 -10.32415 -10.32324
 Alpha  occ. eigenvalues --  -10.31836 -10.31378 -10.31224 -10.28691 -10.27615
 Alpha  occ. eigenvalues --  -10.26847 -10.25151 -10.24941 -10.23150  -1.19513
 Alpha  occ. eigenvalues --   -1.16582  -1.14470  -1.11876  -1.10334  -1.06578
 Alpha  occ. eigenvalues --   -1.03083  -1.00939  -1.00189  -0.99248  -0.97542
 Alpha  occ. eigenvalues --   -0.94992  -0.92871  -0.89364  -0.88724  -0.88440
 Alpha  occ. eigenvalues --   -0.87623  -0.85341  -0.83375  -0.81014  -0.78938
 Alpha  occ. eigenvalues --   -0.76908  -0.76190  -0.75565  -0.74181  -0.73507
 Alpha  occ. eigenvalues --   -0.71706  -0.70426  -0.69951  -0.69488  -0.69271
 Alpha  occ. eigenvalues --   -0.67754  -0.67382  -0.66052  -0.64704  -0.63803
 Alpha  occ. eigenvalues --   -0.62705  -0.61784  -0.61459  -0.60773  -0.60238
 Alpha  occ. eigenvalues --   -0.58667  -0.58352  -0.58213  -0.57745  -0.57388
 Alpha  occ. eigenvalues --   -0.57262  -0.56593  -0.55442  -0.55255  -0.55015
 Alpha  occ. eigenvalues --   -0.54507  -0.54135  -0.52706  -0.52389  -0.51914
 Alpha  occ. eigenvalues --   -0.51590  -0.51110  -0.50636  -0.50537  -0.49857
 Alpha  occ. eigenvalues --   -0.49575  -0.49304  -0.48646  -0.48590  -0.48200
 Alpha  occ. eigenvalues --   -0.47610  -0.47553  -0.47179  -0.46742  -0.46016
 Alpha  occ. eigenvalues --   -0.45633  -0.44329  -0.44078  -0.43594  -0.42940
 Alpha  occ. eigenvalues --   -0.42918  -0.42134  -0.40516  -0.40084  -0.39516
 Alpha  occ. eigenvalues --   -0.39315  -0.39233  -0.38245  -0.37362  -0.36910
 Alpha  occ. eigenvalues --   -0.36378  -0.35885  -0.34589  -0.34138  -0.33518
 Alpha  occ. eigenvalues --   -0.32680  -0.30990
 Alpha virt. eigenvalues --   -0.16772  -0.14579  -0.10197  -0.09726  -0.08646
 Alpha virt. eigenvalues --   -0.07884  -0.05493  -0.04141  -0.04040  -0.03189
 Alpha virt. eigenvalues --   -0.02939  -0.02754  -0.00789  -0.00484   0.00458

 Mulliken charges:
               1
     1  N   -0.754562
     2  H    0.363268
     3  H    0.319986
     4  C   -0.063039
     5  H    0.144115
     6  C    0.649044
     7  C   -0.391904
     8  H    0.183974
     9  H    0.180254
    10  O   -0.573834
    11  C    0.181065
    12  C   -0.128492
    13  H    0.283626
    14  C    0.173074
    15  C    0.161162
    16  C   -0.199406
    17  H    0.167074
    18  N   -0.736366
    19  H    0.425362
    20  C   -0.139770
    21  H    0.182210
    22  C   -0.151478
    23  H    0.177127
    24  C   -0.114545
    25  H    0.179025
    26  N   -0.597343
    27  H    0.350407
    28  C   -0.061730
    29  H    0.180025
    30  C    0.642991
    31  C   -0.112699
    32  H    0.162799
    33  O   -0.520523
    34  C   -0.257101
    35  H    0.150554
    36  H    0.134605
    37  C   -0.447933
    38  H    0.148708
    39  H    0.165990
    40  H    0.123693
    41  C   -0.465268
    42  H    0.155947
    43  H    0.175622
    44  H    0.140510
    45  N   -0.620632
    46  H    0.365368
    47  C   -0.017741
    48  H    0.200292
    49  C    0.626585
    50  C   -0.316058
    51  H    0.178028
    52  H    0.170686
    53  O   -0.505093
    54  C   -0.294893
    55  H    0.145166
    56  H    0.151029
    57  C   -0.151657
    58  H    0.166627
    59  H    0.184044
    60  N   -0.599725
    61  H    0.324140
    62  N   -0.786960
    63  H    0.339326
    64  H    0.381648
    65  N   -0.719423
    66  H    0.268820
    67  C    0.633535
    68  O   -0.553783
    69  H    0.423425
    70  H    0.421025
 Sum of Mulliken charges =   1.00000

 Dipole moment (field-independent basis, Debye):
    X=             -7.7666    Y=              0.8893    Z=             21.6259  Tot=             22.9955
 Quadrupole moment (field-independent basis, Debye-Ang):
   XX=           -146.5079   YY=           -177.9093   ZZ=            -48.8554
   XY=             23.2000   XZ=            -50.0707   YZ=              2.7808

 Normal termination of Gaussian 16 at Fri Jun  3 04:56:18 2022.
