 Gaussian 16, Revision C.01,
 Gaussian 16:  ES64L-G16RevC.01  3-Jul-2019

 ----------------------------------------------------------------------
 # B3LYP/6-31G* empiricaldispersion=gd3 guess=read geom=check nosymm in
 tegral(ultrafinegrid)
 ----------------------------------------------------------------------

 ------------------------------------------------------
 Candidate Structure: Conf:197 Charge calc in gas phase
 ------------------------------------------------------
 Structure from the checkpoint file:  "conf-197.chk"
 Charge =  1 Multiplicity = 1

                          Input orientation:
 ---------------------------------------------------------------------
 Center     Atomic      Atomic             Coordinates (Angstroms)
 Number     Number       Type             X           Y           Z
 ---------------------------------------------------------------------
      1          7           0       -3.142619   -3.718838    2.358317
      2          1           0       -4.132575   -3.584154    2.167459
      3          1           0       -2.758903   -4.199544    1.542773
      4          6           0       -2.472040   -2.429082    2.465095
      5          1           0       -3.200889   -1.662596    2.754189
      6          6           0       -1.804611   -2.042520    1.116179
      7          6           0       -1.385717   -2.456085    3.600625
      8          1           0       -1.208388   -1.439276    3.969398
      9          1           0       -1.805244   -3.044115    4.421504
     10          8           0       -1.625833   -2.889693    0.253606
     11          6           0       -0.088219   -3.026274    3.119604
     12          6           0        1.002327   -2.291840    2.850747
     13          1           0        1.212840   -1.240522    2.963429
     14          6           0        0.167185   -4.411475    2.693610
     15          6           0        1.433019   -4.457644    2.101000
     16          6           0       -0.577668   -5.586726    2.792119
     17          1           0       -1.569208   -5.571718    3.230704
     18          7           0        1.986716   -3.094220    2.099800
     19          1           0        1.972473   -2.676855    1.128032
     20          6           0        1.250784   -6.776158    1.693540
     21          1           0        1.657016   -7.706083    1.308964
     22          6           0        2.007661   -5.601469    1.585400
     23          1           0        2.988847   -5.600237    1.120981
     24          6           0       -0.017648   -6.764119    2.286552
     25          1           0       -0.579590   -7.690504    2.353651
     26          7           0       -1.386956   -0.745287    1.012353
     27          1           0       -1.627505   -0.119787    1.768371
     28          6           0       -0.614506   -0.163862   -0.093602
     29          1           0       -0.674255    0.918450    0.062774
     30          6           0        0.855449   -0.601434    0.002733
     31          6           0       -1.154344   -0.470729   -1.515707
     32          1           0       -1.057573   -1.550141   -1.655935
     33          8           0        1.189302   -1.788388   -0.090624
     34          6           0       -0.289088    0.223160   -2.595815
     35          1           0        0.740135   -0.158641   -2.540197
     36          1           0       -0.665805   -0.109437   -3.570612
     37          6           0       -2.637188   -0.095868   -1.621282
     38          1           0       -2.813905    0.957300   -1.372445
     39          1           0       -2.991230   -0.259374   -2.644495
     40          1           0       -3.249916   -0.710749   -0.956211
     41          6           0       -0.260278    1.757366   -2.582145
     42          1           0        0.401204    2.122272   -3.374236
     43          1           0        0.125812    2.163293   -1.636165
     44          1           0       -1.257776    2.182622   -2.734451
     45          7           0        1.765319    0.392492    0.172266
     46          1           0        1.445637    1.352206    0.125458
     47          6           0        3.203866    0.177712   -0.023611
     48          1           0        3.303611   -0.815612   -0.472324
     49          6           0        3.852321    0.067698    1.360995
     50          6           0        3.765426    1.248119   -0.961603
     51          1           0        3.106310    1.264990   -1.834794
     52          1           0        3.695216    2.235510   -0.491758
     53          8           0        3.723380   -0.903665    2.085346
     54          6           0        5.207078    0.987337   -1.415621
     55          1           0        5.275360   -0.014979   -1.863791
     56          1           0        5.885506    0.998166   -0.553173
     57          6           0        5.701694    2.027215   -2.440290
     58          1           0        5.665388    3.025284   -1.996575
     59          1           0        6.750475    1.826365   -2.683173
     60          7           0        4.951920    2.044253   -3.699410
     61          1           0        5.043145    1.186904   -4.232382
     62          7           0        3.525434    3.800362   -3.100903
     63          1           0        2.644929    4.240828   -3.345784
     64          1           0        4.301210    4.446005   -3.210644
     65          7           0        2.679222    2.137225   -4.472583
     66          1           0        2.876278    1.203485   -4.836796
     67          6           0        3.678403    2.607386   -3.812425
     68          8           0        4.540501    1.158166    1.719040
     69          1           0        2.941964   -2.994653    2.459239
     70          1           0        4.900971    1.007672    2.615193
 ---------------------------------------------------------------------

 SCF Done:  E(RB3LYP) =  -1582.19408395     A.U. after    1 cycles

 Alpha  occ. eigenvalues --  -19.32654 -19.27153 -19.24789 -19.21809 -14.56360
 Alpha  occ. eigenvalues --  -14.49550 -14.47196 -14.43039 -14.41764 -14.40520
 Alpha  occ. eigenvalues --  -14.36438 -10.45164 -10.41612 -10.38773 -10.35931
 Alpha  occ. eigenvalues --  -10.35889 -10.35196 -10.34911 -10.34664 -10.33210
 Alpha  occ. eigenvalues --  -10.33180 -10.31680 -10.31402 -10.31029 -10.30667
 Alpha  occ. eigenvalues --  -10.30245 -10.29940 -10.29797 -10.29325 -10.28609
 Alpha  occ. eigenvalues --  -10.27912 -10.26472 -10.25474 -10.24888  -1.23667
 Alpha  occ. eigenvalues --   -1.16722  -1.14502  -1.13774  -1.13240  -1.05662
 Alpha  occ. eigenvalues --   -1.05316  -1.03190  -0.98598  -0.96962  -0.96612
 Alpha  occ. eigenvalues --   -0.93357  -0.92170  -0.91466  -0.89754  -0.86147
 Alpha  occ. eigenvalues --   -0.86101  -0.84926  -0.83638  -0.82068  -0.79691
 Alpha  occ. eigenvalues --   -0.77720  -0.75974  -0.74209  -0.73762  -0.72378
 Alpha  occ. eigenvalues --   -0.72240  -0.71860  -0.70203  -0.69158  -0.68864
 Alpha  occ. eigenvalues --   -0.67937  -0.67853  -0.65708  -0.64692  -0.63263
 Alpha  occ. eigenvalues --   -0.62439  -0.62064  -0.61669  -0.61379  -0.60752
 Alpha  occ. eigenvalues --   -0.60490  -0.59784  -0.59119  -0.57484  -0.56921
 Alpha  occ. eigenvalues --   -0.55970  -0.55605  -0.55072  -0.54877  -0.54740
 Alpha  occ. eigenvalues --   -0.54393  -0.54070  -0.53630  -0.53511  -0.52942
 Alpha  occ. eigenvalues --   -0.52394  -0.52048  -0.51487  -0.51204  -0.50484
 Alpha  occ. eigenvalues --   -0.50426  -0.49706  -0.48516  -0.48356  -0.48006
 Alpha  occ. eigenvalues --   -0.47703  -0.47419  -0.46658  -0.46463  -0.46191
 Alpha  occ. eigenvalues --   -0.46115  -0.45698  -0.45100  -0.44889  -0.44555
 Alpha  occ. eigenvalues --   -0.44041  -0.43825  -0.41607  -0.41424  -0.41310
 Alpha  occ. eigenvalues --   -0.40912  -0.40780  -0.39440  -0.38447  -0.36613
 Alpha  occ. eigenvalues --   -0.35835  -0.34982  -0.34381  -0.34276  -0.33427
 Alpha  occ. eigenvalues --   -0.33266  -0.30404
 Alpha virt. eigenvalues --   -0.14925  -0.13016  -0.11833  -0.10671  -0.07643
 Alpha virt. eigenvalues --   -0.07158  -0.05662  -0.04534  -0.03642  -0.03155
 Alpha virt. eigenvalues --   -0.02890  -0.01738  -0.00836   0.00018   0.00097

 Mulliken charges:
               1
     1  N   -0.722130
     2  H    0.322130
     3  H    0.336532
     4  C   -0.096135
     5  H    0.160977
     6  C    0.618111
     7  C   -0.325030
     8  H    0.147431
     9  H    0.199548
    10  O   -0.502038
    11  C    0.143916
    12  C   -0.089614
    13  H    0.184792
    14  C    0.153609
    15  C    0.199665
    16  C   -0.205037
    17  H    0.195954
    18  N   -0.745366
    19  H    0.451866
    20  C   -0.138212
    21  H    0.171136
    22  C   -0.152798
    23  H    0.166403
    24  C   -0.120859
    25  H    0.170418
    26  N   -0.624659
    27  H    0.334735
    28  C   -0.030726
    29  H    0.143366
    30  C    0.645008
    31  C   -0.089523
    32  H    0.195488
    33  O   -0.556689
    34  C   -0.287480
    35  H    0.136494
    36  H    0.162127
    37  C   -0.460993
    38  H    0.143617
    39  H    0.167824
    40  H    0.155645
    41  C   -0.476204
    42  H    0.212637
    43  H    0.096472
    44  H    0.158214
    45  N   -0.602259
    46  H    0.357016
    47  C   -0.049948
    48  H    0.195586
    49  C    0.612137
    50  C   -0.297656
    51  H    0.191465
    52  H    0.170567
    53  O   -0.504673
    54  C   -0.277872
    55  H    0.137330
    56  H    0.155076
    57  C   -0.153169
    58  H    0.167928
    59  H    0.168747
    60  N   -0.573965
    61  H    0.317130
    62  N   -0.739190
    63  H    0.344509
    64  H    0.333934
    65  N   -0.629356
    66  H    0.270228
    67  C    0.545106
    68  O   -0.536977
    69  H    0.416567
    70  H    0.431116
 Sum of Mulliken charges =   1.00000

 Dipole moment (field-independent basis, Debye):
    X=              9.3313    Y=             -4.7735    Z=              6.6716  Tot=             12.4246
 Quadrupole moment (field-independent basis, Debye-Ang):
   XX=           -127.9727   YY=           -138.5800   ZZ=           -175.1230
   XY=              2.3802   XZ=             -6.9966   YZ=            -18.5125

 Normal termination of Gaussian 16 at Fri Jun  3 04:46:16 2022.
