 Gaussian 16, Revision C.01,
 Gaussian 16:  ES64L-G16RevC.01  3-Jul-2019

 ----------------------------------------------------------------------
 # B3LYP/6-31G* empiricaldispersion=gd3 guess=read geom=check nosymm in
 tegral(ultrafinegrid)
 ----------------------------------------------------------------------

 ------------------------------------------------------
 Candidate Structure: Conf:472 Charge calc in gas phase
 ------------------------------------------------------
 Structure from the checkpoint file:  "conf-472.chk"
 Charge =  1 Multiplicity = 1

                          Input orientation:
 ---------------------------------------------------------------------
 Center     Atomic      Atomic             Coordinates (Angstroms)
 Number     Number       Type             X           Y           Z
 ---------------------------------------------------------------------
      1          7           0       -1.918454   -3.701896    1.854209
      2          1           0       -2.834981   -3.547884    1.433764
      3          1           0       -1.411351   -4.294855    1.193102
      4          6           0       -1.198167   -2.427263    1.936230
      5          1           0       -1.833502   -1.708272    2.468978
      6          6           0       -0.795059   -1.905712    0.543309
      7          6           0        0.122953   -2.605139    2.710731
      8          1           0        0.756665   -3.299498    2.141068
      9          1           0        0.672769   -1.658581    2.717666
     10          8           0       -0.215989   -2.658543   -0.231618
     11          6           0       -0.002141   -3.106367    4.115498
     12          6           0       -0.974047   -3.875767    4.632205
     13          1           0       -1.850486   -4.313530    4.178592
     14          6           0        0.993683   -2.821390    5.164651
     15          6           0        0.594655   -3.438136    6.350453
     16          6           0        2.179148   -2.085494    5.154234
     17          1           0        2.526841   -1.597066    4.248551
     18          7           0       -0.683252   -4.148431    6.079045
     19          1           0       -1.443873   -3.808980    6.682906
     20          6           0        2.473430   -2.631603    7.520641
     21          1           0        3.061390   -2.545996    8.428530
     22          6           0        1.285291   -3.376503    7.543430
     23          1           0        0.943293   -3.868786    8.448742
     24          6           0        2.906599   -2.002258    6.347279
     25          1           0        3.831040   -1.433434    6.365476
     26          7           0       -1.028422   -0.590364    0.281221
     27          1           0       -1.684561   -0.094100    0.868623
     28          6           0       -0.697631    0.000263   -1.027488
     29          1           0       -0.890985    1.074923   -0.912342
     30          6           0        0.823421   -0.156442   -1.286895
     31          6           0       -1.542605   -0.527367   -2.216348
     32          1           0       -1.071562   -1.454007   -2.559690
     33          8           0        1.290179   -0.357496   -2.398128
     34          6           0       -1.502862    0.501723   -3.368592
     35          1           0       -2.120760    1.368940   -3.088295
     36          1           0       -0.477459    0.862438   -3.486265
     37          6           0       -2.985477   -0.828522   -1.788163
     38          1           0       -3.467405    0.057878   -1.353091
     39          1           0       -3.583802   -1.135750   -2.650095
     40          1           0       -3.037571   -1.641045   -1.055438
     41          6           0       -1.973991   -0.061746   -4.713056
     42          1           0       -1.900601    0.699210   -5.497266
     43          1           0       -3.015531   -0.400570   -4.682863
     44          1           0       -1.350427   -0.911617   -5.013466
     45          7           0        1.609383    0.006346   -0.183373
     46          1           0        1.187884    0.070531    0.732160
     47          6           0        3.034456   -0.255023   -0.248891
     48          1           0        3.206293   -1.054645   -0.979917
     49          6           0        3.479627   -0.761974    1.110592
     50          6           0        3.815434    0.997504   -0.726222
     51          1           0        3.279863    1.321356   -1.625939
     52          1           0        3.701187    1.795930    0.019068
     53          8           0        2.805993   -0.718868    2.129153
     54          6           0        5.290331    0.769753   -1.069790
     55          1           0        5.394844   -0.122383   -1.698844
     56          1           0        5.877669    0.578546   -0.164699
     57          6           0        5.892486    1.976332   -1.813099
     58          1           0        5.312786    2.189215   -2.719324
     59          1           0        5.825601    2.875640   -1.188945
     60          7           0        7.283939    1.806940   -2.198189
     61          1           0        7.929830    1.783397   -1.416829
     62          7           0        9.024236    0.702689   -3.252407
     63          1           0        9.273267    0.163447   -4.074824
     64          1           0        9.571003    1.556751   -3.196608
     65          7           0        6.884910    0.320701   -4.066989
     66          1           0        5.894351    0.463247   -3.873833
     67          6           0        7.640142    0.917711   -3.219194
     68          8           0        4.719815   -1.267544    1.082257
     69          1           0       -0.598992   -5.159284    6.251637
     70          1           0        4.951835   -1.546924    1.987905
 ---------------------------------------------------------------------

 SCF Done:  E(RB3LYP) =  -1582.16138177     A.U. after    1 cycles

 Alpha  occ. eigenvalues --  -19.30310 -19.25278 -19.21612 -19.18933 -14.62738
 Alpha  occ. eigenvalues --  -14.46464 -14.43562 -14.43183 -14.39613 -14.37691
 Alpha  occ. eigenvalues --  -14.32388 -10.42853 -10.39054 -10.38397 -10.37668
 Alpha  occ. eigenvalues --  -10.36411 -10.36288 -10.35056 -10.34975 -10.34204
 Alpha  occ. eigenvalues --  -10.33471 -10.33116 -10.33039 -10.32427 -10.31909
 Alpha  occ. eigenvalues --  -10.31865 -10.31781 -10.27857 -10.26722 -10.25691
 Alpha  occ. eigenvalues --  -10.24955 -10.24585 -10.23531 -10.22313  -1.21497
 Alpha  occ. eigenvalues --   -1.18042  -1.13757  -1.12440  -1.11020  -1.02592
 Alpha  occ. eigenvalues --   -1.01597  -1.01095  -1.00379  -1.00180  -0.96265
 Alpha  occ. eigenvalues --   -0.93057  -0.89587  -0.88716  -0.88100  -0.87851
 Alpha  occ. eigenvalues --   -0.87211  -0.86330  -0.82253  -0.80505  -0.78111
 Alpha  occ. eigenvalues --   -0.77541  -0.76656  -0.75006  -0.74832  -0.74676
 Alpha  occ. eigenvalues --   -0.71503  -0.70993  -0.69434  -0.69053  -0.68157
 Alpha  occ. eigenvalues --   -0.67040  -0.65826  -0.64266  -0.63154  -0.62739
 Alpha  occ. eigenvalues --   -0.62192  -0.62128  -0.61343  -0.60375  -0.59966
 Alpha  occ. eigenvalues --   -0.59003  -0.58854  -0.57709  -0.57193  -0.56553
 Alpha  occ. eigenvalues --   -0.56356  -0.56048  -0.55646  -0.54672  -0.54133
 Alpha  occ. eigenvalues --   -0.53415  -0.52750  -0.52259  -0.52196  -0.51159
 Alpha  occ. eigenvalues --   -0.51073  -0.50718  -0.50195  -0.50110  -0.49347
 Alpha  occ. eigenvalues --   -0.48964  -0.48521  -0.48327  -0.47869  -0.47612
 Alpha  occ. eigenvalues --   -0.46768  -0.46679  -0.46262  -0.44491  -0.44144
 Alpha  occ. eigenvalues --   -0.43965  -0.43722  -0.43165  -0.42704  -0.42028
 Alpha  occ. eigenvalues --   -0.41665  -0.40837  -0.40428  -0.40146  -0.40093
 Alpha  occ. eigenvalues --   -0.38691  -0.38537  -0.38202  -0.37674  -0.37466
 Alpha  occ. eigenvalues --   -0.35947  -0.34132  -0.33208  -0.32166  -0.30109
 Alpha  occ. eigenvalues --   -0.29796  -0.26881
 Alpha virt. eigenvalues --   -0.18120  -0.15431  -0.11510  -0.10178  -0.09759
 Alpha virt. eigenvalues --   -0.08212  -0.05889  -0.05222  -0.04493  -0.03563
 Alpha virt. eigenvalues --   -0.02859  -0.01290   0.00204   0.00755   0.01010

 Mulliken charges:
               1
     1  N   -0.724643
     2  H    0.323631
     3  H    0.332592
     4  C   -0.080438
     5  H    0.139445
     6  C    0.617768
     7  C   -0.372925
     8  H    0.210667
     9  H    0.203275
    10  O   -0.513408
    11  C    0.173486
    12  C   -0.102254
    13  H    0.244103
    14  C    0.128317
    15  C    0.160927
    16  C   -0.203422
    17  H    0.211433
    18  N   -0.733193
    19  H    0.424090
    20  C   -0.137657
    21  H    0.185049
    22  C   -0.152383
    23  H    0.179615
    24  C   -0.124480
    25  H    0.178075
    26  N   -0.639590
    27  H    0.335925
    28  C   -0.054708
    29  H    0.168595
    30  C    0.639239
    31  C   -0.061629
    32  H    0.173161
    33  O   -0.512166
    34  C   -0.269099
    35  H    0.120702
    36  H    0.168767
    37  C   -0.463359
    38  H    0.130507
    39  H    0.171371
    40  H    0.123844
    41  C   -0.453769
    42  H    0.154916
    43  H    0.143658
    44  H    0.160206
    45  N   -0.619818
    46  H    0.339456
    47  C   -0.032064
    48  H    0.214324
    49  C    0.584929
    50  C   -0.271611
    51  H    0.184840
    52  H    0.140383
    53  O   -0.490122
    54  C   -0.271760
    55  H    0.166030
    56  H    0.139447
    57  C   -0.158981
    58  H    0.164257
    59  H    0.148075
    60  N   -0.584125
    61  H    0.317682
    62  N   -0.753300
    63  H    0.338956
    64  H    0.320705
    65  N   -0.640384
    66  H    0.275302
    67  C    0.573397
    68  O   -0.533299
    69  H    0.426160
    70  H    0.417281
 Sum of Mulliken charges =   1.00000

 Dipole moment (field-independent basis, Debye):
    X=              0.2833    Y=            -11.5206    Z=             28.0565  Tot=             30.3311
 Quadrupole moment (field-independent basis, Debye-Ang):
   XX=           -146.2583   YY=           -137.0765   ZZ=            -52.4466
   XY=             22.8928   XZ=             19.4614   YZ=           -100.1870

 Normal termination of Gaussian 16 at Fri Jun  3 04:56:16 2022.
