 Gaussian 16, Revision C.01,
 Gaussian 16:  ES64L-G16RevC.01  3-Jul-2019

 ----------------------------------------------------------------------
 # B3LYP/6-31G* empiricaldispersion=gd3 guess=read geom=check nosymm in
 tegral(ultrafinegrid)
 ----------------------------------------------------------------------

 ------------------------------------------------------
 Candidate Structure: Conf:779 Charge calc in gas phase
 ------------------------------------------------------
 Structure from the checkpoint file:  "conf-779.chk"
 Charge =  1 Multiplicity = 1

                          Input orientation:
 ---------------------------------------------------------------------
 Center     Atomic      Atomic             Coordinates (Angstroms)
 Number     Number       Type             X           Y           Z
 ---------------------------------------------------------------------
      1          7           0       -1.727371   -2.032147    3.008978
      2          1           0       -2.481707   -2.490470    2.501035
      3          1           0       -0.936477   -2.670939    2.978076
      4          6           0       -1.380774   -0.777761    2.359330
      5          1           0       -2.318811   -0.231473    2.199364
      6          6           0       -0.700801   -0.944706    0.984132
      7          6           0       -0.512860    0.138321    3.283950
      8          1           0        0.054628    0.830574    2.648846
      9          1           0       -1.210729    0.753646    3.860444
     10          8           0        0.156959   -1.795820    0.764868
     11          6           0        0.419544   -0.487585    4.301326
     12          6           0        0.611680    0.091969    5.525517
     13          1           0        0.115542    0.953887    5.951482
     14          6           0        1.307304   -1.643820    4.268576
     15          6           0        1.991569   -1.682905    5.515993
     16          6           0        1.620687   -2.638925    3.316722
     17          1           0        1.135705   -2.643120    2.344649
     18          7           0        1.621481   -0.554941    6.243877
     19          1           0        3.351498    0.300969    5.409930
     20          6           0        3.174024   -3.664414    4.903994
     21          1           0        3.870688   -4.463212    5.139170
     22          6           0        2.913338   -2.675087    5.854702
     23          1           0        3.398253   -2.684188    6.826860
     24          6           0        2.543394   -3.631114    3.645617
     25          1           0        2.768777   -4.404033    2.916992
     26          7           0       -1.077143   -0.041384    0.030006
     27          1           0       -1.935690    0.469965    0.183439
     28          6           0       -0.594225   -0.108352   -1.362184
     29          1           0       -0.966904    0.817088   -1.819616
     30          6           0        0.951278    0.003224   -1.361907
     31          6           0       -1.099913   -1.317698   -2.199889
     32          1           0       -0.309467   -2.074332   -2.182742
     33          8           0        1.684869   -0.706613   -2.023660
     34          6           0       -1.354604   -0.900056   -3.666914
     35          1           0       -1.691607   -1.793094   -4.208175
     36          1           0       -2.204852   -0.199994   -3.684297
     37          6           0       -2.380063   -1.934562   -1.617624
     38          1           0       -3.189364   -1.196744   -1.537919
     39          1           0       -2.734606   -2.735926   -2.273825
     40          1           0       -2.212830   -2.373980   -0.629744
     41          6           0       -0.172951   -0.285308   -4.425412
     42          1           0       -0.453079   -0.097174   -5.467528
     43          1           0        0.696047   -0.947956   -4.410239
     44          1           0        0.143300    0.673173   -3.996601
     45          7           0        1.435388    1.041194   -0.585054
     46          1           0        0.801581    1.382778    0.127391
     47          6           0        2.852725    1.086826   -0.263748
     48          1           0        3.419784    0.849073   -1.165073
     49          6           0        3.205593    0.010047    0.757206
     50          6           0        3.203587    2.506585    0.244861
     51          1           0        3.124559    3.166302   -0.624513
     52          1           0        2.420819    2.829002    0.944774
     53          8           0        4.194277   -0.700374    0.712088
     54          6           0        4.581920    2.720242    0.913424
     55          1           0        4.871681    3.760999    0.739768
     56          1           0        5.349388    2.113847    0.415349
     57          6           0        4.636790    2.496359    2.447910
     58          1           0        5.302936    3.238681    2.900939
     59          1           0        3.642999    2.623494    2.890675
     60          7           0        5.126956    1.150713    2.793582
     61          1           0        5.655019    0.678566    2.069727
     62          7           0        4.760470   -0.982964    3.574617
     63          1           0        4.460115   -1.625132    4.301950
     64          1           0        4.758111   -1.336455    2.617490
     65          7           0        4.047168    0.840144    4.832015
     66          1           0        4.145441    1.817691    5.060666
     67          6           0        4.628878    0.340846    3.735844
     68          8           0        2.319043   -0.009820    1.766020
     69          1           0        1.616151   -0.561223    7.257651
     70          1           0        2.447826   -0.804565    2.324725
 ---------------------------------------------------------------------

 SCF Done:  E(RB3LYP) =  -1582.24300719     A.U. after    1 cycles

 Alpha  occ. eigenvalues --  -19.31156 -19.26188 -19.21902 -19.20709 -14.51345
 Alpha  occ. eigenvalues --  -14.51276 -14.49874 -14.49864 -14.46407 -14.45258
 Alpha  occ. eigenvalues --  -14.40641 -10.47308 -10.43686 -10.38301 -10.37757
 Alpha  occ. eigenvalues --  -10.36515 -10.34369 -10.33985 -10.33127 -10.32640
 Alpha  occ. eigenvalues --  -10.32386 -10.31987 -10.31295 -10.30939 -10.30808
 Alpha  occ. eigenvalues --  -10.30421 -10.30160 -10.30035 -10.29527 -10.29259
 Alpha  occ. eigenvalues --  -10.26204 -10.24737 -10.24610 -10.22905  -1.22371
 Alpha  occ. eigenvalues --   -1.15914  -1.13926  -1.13400  -1.12645  -1.09613
 Alpha  occ. eigenvalues --   -1.05259  -1.03730  -1.03018  -1.01653  -0.98314
 Alpha  occ. eigenvalues --   -0.95544  -0.92095  -0.91105  -0.88495  -0.86764
 Alpha  occ. eigenvalues --   -0.85573  -0.84870  -0.82692  -0.81517  -0.79886
 Alpha  occ. eigenvalues --   -0.78613  -0.77885  -0.75433  -0.74463  -0.73241
 Alpha  occ. eigenvalues --   -0.72579  -0.71190  -0.70579  -0.69752  -0.69541
 Alpha  occ. eigenvalues --   -0.69095  -0.67075  -0.66807  -0.64934  -0.64675
 Alpha  occ. eigenvalues --   -0.63953  -0.63674  -0.62567  -0.61930  -0.60802
 Alpha  occ. eigenvalues --   -0.60428  -0.59895  -0.59741  -0.59226  -0.58205
 Alpha  occ. eigenvalues --   -0.58155  -0.57114  -0.55940  -0.55871  -0.55225
 Alpha  occ. eigenvalues --   -0.55063  -0.54849  -0.53427  -0.53149  -0.52875
 Alpha  occ. eigenvalues --   -0.52717  -0.52084  -0.51592  -0.51280  -0.50664
 Alpha  occ. eigenvalues --   -0.50591  -0.49023  -0.48960  -0.48445  -0.48096
 Alpha  occ. eigenvalues --   -0.47851  -0.47684  -0.47401  -0.47275  -0.46701
 Alpha  occ. eigenvalues --   -0.46519  -0.45968  -0.45342  -0.44662  -0.43951
 Alpha  occ. eigenvalues --   -0.43769  -0.43392  -0.42293  -0.42087  -0.40425
 Alpha  occ. eigenvalues --   -0.40251  -0.40123  -0.39445  -0.39220  -0.38618
 Alpha  occ. eigenvalues --   -0.36766  -0.36176  -0.34694  -0.34574  -0.33544
 Alpha  occ. eigenvalues --   -0.32698  -0.32193
 Alpha virt. eigenvalues --   -0.13405  -0.12415  -0.11399  -0.10442  -0.08370
 Alpha virt. eigenvalues --   -0.07453  -0.06263  -0.05954  -0.04048  -0.03206
 Alpha virt. eigenvalues --   -0.02687  -0.02289  -0.01336  -0.00586  -0.00025

 Mulliken charges:
               1
     1  N   -0.703084
     2  H    0.316786
     3  H    0.325251
     4  C   -0.075722
     5  H    0.146487
     6  C    0.604292
     7  C   -0.351748
     8  H    0.157070
     9  H    0.168613
    10  O   -0.519396
    11  C    0.139721
    12  C   -0.037103
    13  H    0.171896
    14  C    0.044322
    15  C    0.243900
    16  C   -0.311007
    17  H    0.231250
    18  N   -0.683981
    19  H    0.418672
    20  C   -0.166895
    21  H    0.166667
    22  C   -0.220696
    23  H    0.159039
    24  C   -0.140135
    25  H    0.167574
    26  N   -0.634273
    27  H    0.339590
    28  C   -0.049489
    29  H    0.170278
    30  C    0.635601
    31  C   -0.074339
    32  H    0.178679
    33  O   -0.492533
    34  C   -0.265306
    35  H    0.149333
    36  H    0.125730
    37  C   -0.464876
    38  H    0.129128
    39  H    0.166714
    40  H    0.144519
    41  C   -0.450935
    42  H    0.151349
    43  H    0.177332
    44  H    0.129108
    45  N   -0.605564
    46  H    0.336608
    47  C   -0.046506
    48  H    0.217087
    49  C    0.628758
    50  C   -0.287823
    51  H    0.194068
    52  H    0.145358
    53  O   -0.498655
    54  C   -0.321362
    55  H    0.187394
    56  H    0.177957
    57  C   -0.147376
    58  H    0.190497
    59  H    0.173991
    60  N   -0.586253
    61  H    0.374523
    62  N   -0.774629
    63  H    0.381417
    64  H    0.391633
    65  N   -0.788231
    66  H    0.371420
    67  C    0.767510
    68  O   -0.594634
    69  H    0.356765
    70  H    0.438662
 Sum of Mulliken charges =   1.00000

 Dipole moment (field-independent basis, Debye):
    X=             11.2887    Y=              4.8502    Z=             17.5936  Tot=             21.4591
 Quadrupole moment (field-independent basis, Debye-Ang):
   XX=           -130.5194   YY=           -172.6828   ZZ=           -105.2185
   XY=             14.9544   XZ=             62.1365   YZ=              1.2535

 Normal termination of Gaussian 16 at Fri Jun  3 04:56:08 2022.
