 Gaussian 16, Revision C.01,
 Gaussian 16:  ES64L-G16RevC.01  3-Jul-2019

 ----------------------------------------------------------------------
 # B3LYP/6-31G* empiricaldispersion=gd3 guess=read geom=check nosymm in
 tegral(ultrafinegrid)
 ----------------------------------------------------------------------

 ------------------------------------------------------
 Candidate Structure: Conf:549 Charge calc in gas phase
 ------------------------------------------------------
 Structure from the checkpoint file:  "conf-549.chk"
 Charge =  1 Multiplicity = 1

                          Input orientation:
 ---------------------------------------------------------------------
 Center     Atomic      Atomic             Coordinates (Angstroms)
 Number     Number       Type             X           Y           Z
 ---------------------------------------------------------------------
      1          7           0       -2.685220   -2.986344    3.181132
      2          1           0       -2.850448   -3.197446    4.163394
      3          1           0       -3.383763   -2.301860    2.899496
      4          6           0       -1.337175   -2.470605    2.990541
      5          1           0       -1.098282   -1.580520    3.605482
      6          6           0       -1.120005   -2.129654    1.496614
      7          6           0       -0.327881   -3.596300    3.353379
      8          1           0       -0.377527   -3.794935    4.430396
      9          1           0       -0.655685   -4.491215    2.820206
     10          8           0       -1.100938   -3.003600    0.644854
     11          6           0        1.060388   -3.223932    2.938405
     12          6           0        1.630068   -3.579720    1.776467
     13          1           0        1.246565   -4.164089    0.953999
     14          6           0        1.941650   -2.261652    3.615158
     15          6           0        3.055789   -2.033649    2.801201
     16          6           0        1.845830   -1.584482    4.830545
     17          1           0        0.994952   -1.737104    5.486877
     18          7           0        2.870453   -2.802517    1.558502
     19          1           0        3.680021   -3.377187    1.299772
     20          6           0        3.982487   -0.508379    4.350345
     21          1           0        4.771683    0.172384    4.650680
     22          6           0        4.089682   -1.176068    3.121903
     23          1           0        4.942045   -1.015853    2.469151
     24          6           0        2.877411   -0.709055    5.186100
     25          1           0        2.822428   -0.176971    6.130628
     26          7           0       -0.910712   -0.797017    1.257812
     27          1           0       -0.939522   -0.185749    2.062747
     28          6           0       -0.456842   -0.165092    0.008301
     29          1           0       -0.818466    0.870784    0.056173
     30          6           0        1.082240   -0.147912    0.057121
     31          6           0       -0.995208   -0.775145   -1.304825
     32          1           0       -0.606766   -1.793659   -1.379354
     33          8           0        1.750364   -1.176723   -0.155992
     34          6           0       -0.458023    0.049646   -2.493026
     35          1           0       -0.785043    1.096140   -2.391713
     36          1           0        0.638919    0.063537   -2.464519
     37          6           0       -2.527433   -0.825643   -1.274617
     38          1           0       -2.955184    0.182706   -1.196122
     39          1           0       -2.909408   -1.278211   -2.192870
     40          1           0       -2.893679   -1.428671   -0.440872
     41          6           0       -0.873099   -0.480537   -3.868832
     42          1           0       -0.338389    0.076989   -4.642348
     43          1           0       -1.948525   -0.374534   -4.043185
     44          1           0       -0.617156   -1.542570   -3.969686
     45          7           0        1.644455    1.030681    0.380238
     46          1           0        1.047418    1.816575    0.610127
     47          6           0        3.067201    1.241644    0.603548
     48          1           0        3.530472    0.265760    0.764835
     49          6           0        3.216847    2.070923    1.873848
     50          6           0        3.759523    1.938133   -0.590251
     51          1           0        3.253225    2.896162   -0.771009
     52          1           0        4.789622    2.172836   -0.298026
     53          8           0        2.312905    2.668548    2.412446
     54          6           0        3.740897    1.083291   -1.859380
     55          1           0        2.714840    0.787219   -2.096776
     56          1           0        4.300134    0.152800   -1.690860
     57          6           0        4.333855    1.821194   -3.073775
     58          1           0        3.830004    2.785697   -3.211634
     59          1           0        5.391149    2.051828   -2.901641
     60          7           0        4.236890    1.077024   -4.318018
     61          1           0        4.854104    0.274920   -4.374203
     62          7           0        3.066113   -0.112614   -5.924305
     63          1           0        2.200510   -0.148196   -6.451447
     64          1           0        3.868914   -0.025927   -6.539571
     65          7           0        1.874429    1.431828   -4.669831
     66          1           0        1.927179    2.044917   -3.858350
     67          6           0        2.998038    0.861903   -4.927199
     68          8           0        4.495754    2.087040    2.299179
     69          1           0        2.635828   -2.118890    0.763521
     70          1           0        4.539712    2.692715    3.064377
 ---------------------------------------------------------------------

 SCF Done:  E(RB3LYP) =  -1582.18346823     A.U. after    3 cycles

 Alpha  occ. eigenvalues --  -19.32066 -19.26475 -19.25536 -19.21504 -14.58478
 Alpha  occ. eigenvalues --  -14.49678 -14.47469 -14.42680 -14.41719 -14.40598
 Alpha  occ. eigenvalues --  -14.35586 -10.44463 -10.42227 -10.38991 -10.37729
 Alpha  occ. eigenvalues --  -10.36519 -10.36312 -10.35098 -10.34595 -10.34395
 Alpha  occ. eigenvalues --  -10.34158 -10.34068 -10.33798 -10.32945 -10.32849
 Alpha  occ. eigenvalues --  -10.32558 -10.31002 -10.30952 -10.30586 -10.28480
 Alpha  occ. eigenvalues --  -10.27329 -10.25458 -10.24579 -10.22859  -1.22969
 Alpha  occ. eigenvalues --   -1.17200  -1.15119  -1.14175  -1.13638  -1.06122
 Alpha  occ. eigenvalues --   -1.04735  -1.03346  -0.99814  -0.99191  -0.96126
 Alpha  occ. eigenvalues --   -0.95149  -0.92023  -0.90947  -0.89638  -0.88661
 Alpha  occ. eigenvalues --   -0.87750  -0.85544  -0.84910  -0.82407  -0.78692
 Alpha  occ. eigenvalues --   -0.77521  -0.76887  -0.76023  -0.74220  -0.73949
 Alpha  occ. eigenvalues --   -0.72742  -0.71485  -0.71240  -0.70645  -0.69660
 Alpha  occ. eigenvalues --   -0.68107  -0.67543  -0.65307  -0.64659  -0.63079
 Alpha  occ. eigenvalues --   -0.62965  -0.62318  -0.61735  -0.61551  -0.60978
 Alpha  occ. eigenvalues --   -0.60567  -0.59972  -0.59460  -0.59179  -0.58352
 Alpha  occ. eigenvalues --   -0.57654  -0.57501  -0.57149  -0.56999  -0.55913
 Alpha  occ. eigenvalues --   -0.54785  -0.54314  -0.54013  -0.53324  -0.52504
 Alpha  occ. eigenvalues --   -0.52341  -0.51548  -0.51393  -0.51223  -0.50716
 Alpha  occ. eigenvalues --   -0.50397  -0.50323  -0.49876  -0.49208  -0.48623
 Alpha  occ. eigenvalues --   -0.48449  -0.48124  -0.47393  -0.47161  -0.46812
 Alpha  occ. eigenvalues --   -0.45873  -0.45056  -0.44617  -0.44206  -0.43910
 Alpha  occ. eigenvalues --   -0.43624  -0.42981  -0.42814  -0.40961  -0.40940
 Alpha  occ. eigenvalues --   -0.40053  -0.39757  -0.39415  -0.39219  -0.39091
 Alpha  occ. eigenvalues --   -0.36530  -0.35861  -0.34753  -0.33527  -0.33232
 Alpha  occ. eigenvalues --   -0.32758  -0.29868
 Alpha virt. eigenvalues --   -0.16872  -0.14647  -0.11997  -0.11384  -0.09356
 Alpha virt. eigenvalues --   -0.07774  -0.07211  -0.05190  -0.04790  -0.03067
 Alpha virt. eigenvalues --   -0.02521  -0.01887  -0.01153  -0.00694  -0.00065

 Mulliken charges:
               1
     1  N   -0.699865
     2  H    0.316075
     3  H    0.319483
     4  C   -0.053614
     5  H    0.109370
     6  C    0.630674
     7  C   -0.349660
     8  H    0.167909
     9  H    0.215255
    10  O   -0.504769
    11  C    0.126388
    12  C   -0.065591
    13  H    0.238519
    14  C    0.151044
    15  C    0.176868
    16  C   -0.205619
    17  H    0.170446
    18  N   -0.754723
    19  H    0.407282
    20  C   -0.143502
    21  H    0.168506
    22  C   -0.168433
    23  H    0.175593
    24  C   -0.116413
    25  H    0.176693
    26  N   -0.624453
    27  H    0.335661
    28  C   -0.038658
    29  H    0.151192
    30  C    0.654652
    31  C   -0.078666
    32  H    0.179945
    33  O   -0.594296
    34  C   -0.284919
    35  H    0.124157
    36  H    0.156327
    37  C   -0.462744
    38  H    0.136645
    39  H    0.174255
    40  H    0.161207
    41  C   -0.464695
    42  H    0.193528
    43  H    0.149156
    44  H    0.141385
    45  N   -0.575269
    46  H    0.360247
    47  C   -0.056974
    48  H    0.163809
    49  C    0.599536
    50  C   -0.269990
    51  H    0.159087
    52  H    0.175695
    53  O   -0.454111
    54  C   -0.282405
    55  H    0.178522
    56  H    0.132817
    57  C   -0.161665
    58  H    0.166120
    59  H    0.160134
    60  N   -0.580419
    61  H    0.323232
    62  N   -0.752860
    63  H    0.344805
    64  H    0.328161
    65  N   -0.641675
    66  H    0.271173
    67  C    0.586124
    68  O   -0.568907
    69  H    0.466862
    70  H    0.430358
 Sum of Mulliken charges =   1.00000

 Dipole moment (field-independent basis, Debye):
    X=             13.8656    Y=             -3.0261    Z=             10.1425  Tot=             17.4437
 Quadrupole moment (field-independent basis, Debye-Ang):
   XX=           -125.3382   YY=           -179.4862   ZZ=           -134.7795
   XY=             -8.4413   XZ=              2.2537   YZ=            -12.0299

 Normal termination of Gaussian 16 at Fri Jun  3 04:56:57 2022.
