 Gaussian 16, Revision C.01,
 Gaussian 16:  ES64L-G16RevC.01  3-Jul-2019

 ----------------------------------------------------------------------
 # B3LYP/6-31G* empiricaldispersion=gd3 guess=read geom=check nosymm in
 tegral(ultrafinegrid)
 ----------------------------------------------------------------------

 ------------------------------------------------------
 Candidate Structure: Conf:617 Charge calc in gas phase
 ------------------------------------------------------
 Structure from the checkpoint file:  "conf-617.chk"
 Charge =  1 Multiplicity = 1

                          Input orientation:
 ---------------------------------------------------------------------
 Center     Atomic      Atomic             Coordinates (Angstroms)
 Number     Number       Type             X           Y           Z
 ---------------------------------------------------------------------
      1          7           0       -0.603699   -3.584608    1.988041
      2          1           0       -1.205152   -4.304876    1.588053
      3          1           0        0.339833   -3.852480    1.697647
      4          6           0       -0.903938   -2.308986    1.338173
      5          1           0       -1.988845   -2.148012    1.385968
      6          6           0       -0.425896   -2.307562   -0.135109
      7          6           0       -0.205970   -1.138090    2.067695
      8          1           0        0.879712   -1.231980    1.932625
      9          1           0       -0.474300   -0.196556    1.573626
     10          8           0        0.500559   -3.026400   -0.479694
     11          6           0       -0.501862   -1.010936    3.533721
     12          6           0       -0.899403   -1.980570    4.373971
     13          1           0       -1.069731   -3.033663    4.210162
     14          6           0       -0.366778    0.251850    4.284568
     15          6           0       -0.705532    0.022338    5.619726
     16          6           0        0.012597    1.539651    3.908446
     17          1           0        0.295015    1.792481    2.891500
     18          7           0       -1.063968   -1.414306    5.752575
     19          1           0       -2.027231   -1.537637    6.091799
     20          6           0       -0.320429    2.269945    6.214318
     21          1           0       -0.299646    3.065752    6.951913
     22          6           0       -0.701643    0.979856    6.613021
     23          1           0       -0.974082    0.760716    7.641187
     24          6           0        0.029236    2.541584    4.886466
     25          1           0        0.322851    3.538196    4.567785
     26          7           0       -1.036406   -1.415376   -0.973068
     27          1           0       -1.939840   -1.061049   -0.685643
     28          6           0       -0.786815   -1.455139   -2.427946
     29          1           0       -1.340511   -0.597517   -2.832713
     30          6           0        0.713464   -1.181061   -2.708342
     31          6           0       -1.282937   -2.741244   -3.138257
     32          1           0       -0.498553   -3.496366   -3.022873
     33          8           0        1.325233   -1.738617   -3.603303
     34          6           0       -1.471933   -2.454889   -4.645389
     35          1           0       -2.371679   -1.833700   -4.775893
     36          1           0       -0.621991   -1.868654   -5.004463
     37          6           0       -2.580954   -3.266602   -2.508850
     38          1           0       -3.370373   -2.502092   -2.521504
     39          1           0       -2.954745   -4.129349   -3.066599
     40          1           0       -2.438142   -3.594143   -1.473092
     41          6           0       -1.582252   -3.719907   -5.502553
     42          1           0       -1.690569   -3.460408   -6.561018
     43          1           0       -2.444194   -4.338139   -5.227846
     44          1           0       -0.679686   -4.333223   -5.400035
     45          7           0        1.257053   -0.189915   -1.929881
     46          1           0        0.745503    0.063354   -1.096679
     47          6           0        2.678268    0.092968   -1.954177
     48          1           0        3.074629   -0.359299   -2.866157
     49          6           0        3.458884   -0.544436   -0.804712
     50          6           0        2.969382    1.610106   -1.965532
     51          1           0        4.056908    1.736808   -1.905695
     52          1           0        2.645701    2.016160   -2.930420
     53          8           0        4.660383   -0.658002   -0.793936
     54          6           0        2.276248    2.358886   -0.819351
     55          1           0        2.396523    1.812233    0.124328
     56          1           0        1.198128    2.424638   -1.019159
     57          6           0        2.826021    3.776706   -0.617813
     58          1           0        3.886539    3.728019   -0.344083
     59          1           0        2.783666    4.345144   -1.552755
     60          7           0        2.093509    4.560368    0.383995
     61          1           0        1.279499    5.036193    0.016100
     62          7           0        2.970960    3.366359    2.196783
     63          1           0        2.910375    3.292698    3.205615
     64          1           0        3.895682    3.660259    1.901816
     65          7           0        0.903923    4.373053    2.451254
     66          1           0        0.160368    4.849540    1.939333
     67          6           0        1.920914    4.134327    1.692061
     68          8           0        2.682796   -0.916301    0.253411
     69          1           0       -0.451968   -1.898642    6.422765
     70          1           0        3.303295   -1.312335    0.894777
 ---------------------------------------------------------------------

 SCF Done:  E(RB3LYP) =  -1582.16449371     A.U. after    3 cycles

 Alpha  occ. eigenvalues --  -19.28429 -19.21962 -19.21918 -19.18976 -14.62245
 Alpha  occ. eigenvalues --  -14.46384 -14.43739 -14.43485 -14.42978 -14.42857
 Alpha  occ. eigenvalues --  -14.37330 -10.39969 -10.38544 -10.38262 -10.37309
 Alpha  occ. eigenvalues --  -10.37023 -10.36428 -10.36098 -10.34381 -10.34333
 Alpha  occ. eigenvalues --  -10.34115 -10.32592 -10.32368 -10.32153 -10.31794
 Alpha  occ. eigenvalues --  -10.31529 -10.31072 -10.31000 -10.27371 -10.27181
 Alpha  occ. eigenvalues --  -10.25843 -10.24896 -10.23674 -10.22460  -1.18827
 Alpha  occ. eigenvalues --   -1.17571  -1.13996  -1.11047  -1.09720  -1.06312
 Alpha  occ. eigenvalues --   -1.02606  -1.00777  -1.00186  -0.99742  -0.97303
 Alpha  occ. eigenvalues --   -0.95749  -0.92973  -0.88763  -0.88468  -0.88008
 Alpha  occ. eigenvalues --   -0.87509  -0.86068  -0.82864  -0.80531  -0.78126
 Alpha  occ. eigenvalues --   -0.77059  -0.76152  -0.75237  -0.74552  -0.73973
 Alpha  occ. eigenvalues --   -0.71162  -0.70698  -0.69802  -0.69077  -0.68562
 Alpha  occ. eigenvalues --   -0.68396  -0.66401  -0.65669  -0.63748  -0.63596
 Alpha  occ. eigenvalues --   -0.63037  -0.62549  -0.61460  -0.60771  -0.60406
 Alpha  occ. eigenvalues --   -0.58386  -0.57651  -0.57213  -0.56836  -0.56504
 Alpha  occ. eigenvalues --   -0.56298  -0.56039  -0.55235  -0.54974  -0.54508
 Alpha  occ. eigenvalues --   -0.53724  -0.53352  -0.52805  -0.52484  -0.51973
 Alpha  occ. eigenvalues --   -0.51832  -0.50891  -0.50839  -0.50267  -0.49855
 Alpha  occ. eigenvalues --   -0.49225  -0.48964  -0.48568  -0.48087  -0.47910
 Alpha  occ. eigenvalues --   -0.47530  -0.46999  -0.46453  -0.46110  -0.45479
 Alpha  occ. eigenvalues --   -0.44412  -0.43754  -0.43553  -0.43441  -0.43195
 Alpha  occ. eigenvalues --   -0.42302  -0.41789  -0.40667  -0.39731  -0.39039
 Alpha  occ. eigenvalues --   -0.38783  -0.38384  -0.37136  -0.37004  -0.36819
 Alpha  occ. eigenvalues --   -0.36058  -0.35568  -0.34629  -0.34553  -0.32500
 Alpha  occ. eigenvalues --   -0.32126  -0.31033
 Alpha virt. eigenvalues --   -0.17540  -0.14485  -0.11119  -0.09437  -0.08574
 Alpha virt. eigenvalues --   -0.07225  -0.06170  -0.04835  -0.04351  -0.03657
 Alpha virt. eigenvalues --   -0.03411  -0.02628  -0.02065  -0.00906  -0.00177

 Mulliken charges:
               1
     1  N   -0.721701
     2  H    0.324806
     3  H    0.331339
     4  C   -0.090937
     5  H    0.147757
     6  C    0.606632
     7  C   -0.355598
     8  H    0.207964
     9  H    0.171013
    10  O   -0.492379
    11  C    0.169921
    12  C   -0.100245
    13  H    0.244654
    14  C    0.153061
    15  C    0.158807
    16  C   -0.224607
    17  H    0.183341
    18  N   -0.732810
    19  H    0.423112
    20  C   -0.142518
    21  H    0.181405
    22  C   -0.153207
    23  H    0.174854
    24  C   -0.125911
    25  H    0.220955
    26  N   -0.638300
    27  H    0.332083
    28  C   -0.061429
    29  H    0.166813
    30  C    0.638978
    31  C   -0.061183
    32  H    0.173279
    33  O   -0.498681
    34  C   -0.269125
    35  H    0.120029
    36  H    0.170154
    37  C   -0.467110
    38  H    0.130192
    39  H    0.172847
    40  H    0.122834
    41  C   -0.453867
    42  H    0.155011
    43  H    0.143100
    44  H    0.160733
    45  N   -0.605908
    46  H    0.335862
    47  C   -0.067934
    48  H    0.225634
    49  C    0.606455
    50  C   -0.277349
    51  H    0.174653
    52  H    0.164888
    53  O   -0.445143
    54  C   -0.290849
    55  H    0.164780
    56  H    0.131762
    57  C   -0.153138
    58  H    0.159944
    59  H    0.169003
    60  N   -0.582554
    61  H    0.323251
    62  N   -0.739477
    63  H    0.337195
    64  H    0.338759
    65  N   -0.672290
    66  H    0.274512
    67  C    0.580091
    68  O   -0.585280
    69  H    0.424351
    70  H    0.412720
 Sum of Mulliken charges =   1.00000

 Dipole moment (field-independent basis, Debye):
    X=             -5.3014    Y=              0.5217    Z=             20.2391  Tot=             20.9285
 Quadrupole moment (field-independent basis, Debye-Ang):
   XX=           -186.6903   YY=           -168.6731   ZZ=            -73.3752
   XY=             26.0077   XZ=             -8.1250   YZ=            -30.4999

 Normal termination of Gaussian 16 at Fri Jun  3 04:56:31 2022.
