 Gaussian 16, Revision C.01,
 Gaussian 16:  ES64L-G16RevC.01  3-Jul-2019

 ----------------------------------------------------------------------
 # B3LYP/6-31G* empiricaldispersion=gd3 guess=read geom=check nosymm in
 tegral(ultrafinegrid)
 ----------------------------------------------------------------------

 ------------------------------------------------------
 Candidate Structure: Conf:535 Charge calc in gas phase
 ------------------------------------------------------
 Structure from the checkpoint file:  "conf-535.chk"
 Charge =  1 Multiplicity = 1

                          Input orientation:
 ---------------------------------------------------------------------
 Center     Atomic      Atomic             Coordinates (Angstroms)
 Number     Number       Type             X           Y           Z
 ---------------------------------------------------------------------
      1          7           0       -2.718563   -2.553985    2.785152
      2          1           0       -3.377276   -1.844797    2.468179
      3          1           0       -2.800958   -3.340068    2.139807
      4          6           0       -1.350482   -2.048227    2.739091
      5          1           0       -1.324101   -1.104040    3.299531
      6          6           0       -0.830897   -1.839793    1.297653
      7          6           0       -0.428755   -3.075552    3.442546
      8          1           0       -0.643991   -3.063904    4.515385
      9          1           0       -0.696480   -4.068226    3.071431
     10          8           0       -0.621552   -2.808576    0.580098
     11          6           0        1.027557   -2.832878    3.161575
     12          6           0        1.694846   -1.673917    3.298965
     13          1           0        1.396179   -0.697624    3.648362
     14          6           0        1.936477   -3.818342    2.557956
     15          6           0        3.165122   -3.201183    2.318531
     16          6           0        1.774396   -5.156886    2.203961
     17          1           0        0.829960   -5.666960    2.360043
     18          7           0        3.039102   -1.786517    2.695100
     19          1           0        3.007878   -1.203796    1.812080
     20          6           0        4.082827   -5.177805    1.411967
     21          1           0        4.908287   -5.723325    0.966352
     22          6           0        4.253783   -3.828207    1.746677
     23          1           0        5.190439   -3.312187    1.560382
     24          6           0        2.861411   -5.826174    1.635233
     25          1           0        2.756557   -6.869808    1.355917
     26          7           0       -0.681285   -0.528747    0.922498
     27          1           0       -0.872013    0.154530    1.643083
     28          6           0        0.034113    0.004759   -0.241604
     29          1           0       -0.375118    1.009869   -0.400973
     30          6           0        1.521465    0.113200    0.117402
     31          6           0       -0.125749   -0.793574   -1.559305
     32          1           0        0.260434   -1.796124   -1.363248
     33          8           0        2.191110   -0.895325    0.372416
     34          6           0        0.738428   -0.176444   -2.685701
     35          1           0        1.798769   -0.230550   -2.404055
     36          1           0        0.640056   -0.832800   -3.558737
     37          6           0       -1.605668   -0.910180   -1.940451
     38          1           0       -2.083918    0.071764   -2.038341
     39          1           0       -1.703804   -1.426318   -2.901359
     40          1           0       -2.155007   -1.489812   -1.194327
     41          6           0        0.401854    1.258288   -3.113660
     42          1           0        1.109595    1.592842   -3.879198
     43          1           0        0.473642    1.973594   -2.282760
     44          1           0       -0.611818    1.335754   -3.520262
     45          7           0        2.056215    1.356707    0.130399
     46          1           0        1.480857    2.136383   -0.161101
     47          6           0        3.503216    1.581413    0.179059
     48          1           0        3.963581    0.631822   -0.117566
     49          6           0        3.911190    1.783817    1.644517
     50          6           0        3.905691    2.678158   -0.811774
     51          1           0        3.354415    2.467664   -1.735285
     52          1           0        3.580010    3.659548   -0.444144
     53          8           0        3.746220    0.936219    2.503701
     54          6           0        5.404784    2.686193   -1.130836
     55          1           0        5.714284    1.657796   -1.349102
     56          1           0        5.984228    3.025022   -0.265071
     57          6           0        5.749735    3.582342   -2.342513
     58          1           0        5.639220    4.637903   -2.074261
     59          1           0        6.803635    3.440180   -2.607759
     60          7           0        4.925688    3.361708   -3.526268
     61          1           0        4.048174    3.866517   -3.517742
     62          7           0        3.674319    1.966190   -4.904630
     63          1           0        3.732271    1.110853   -5.448865
     64          1           0        3.502716    2.759220   -5.517254
     65          7           0        5.638171    1.108854   -4.013810
     66          1           0        6.413632    1.307669   -3.383387
     67          6           0        4.835596    2.103025   -4.121604
     68          8           0        4.454222    2.981485    1.892547
     69          1           0        3.788941   -1.417171    3.287807
     70          1           0        4.683692    3.019328    2.842058
 ---------------------------------------------------------------------

 SCF Done:  E(RB3LYP) =  -1582.18594648     A.U. after    1 cycles

 Alpha  occ. eigenvalues --  -19.32857 -19.27249 -19.24995 -19.21308 -14.56519
 Alpha  occ. eigenvalues --  -14.49774 -14.47149 -14.43110 -14.41542 -14.41350
 Alpha  occ. eigenvalues --  -14.35854 -10.45346 -10.41650 -10.38429 -10.36352
 Alpha  occ. eigenvalues --  -10.35464 -10.35284 -10.35186 -10.34658 -10.33438
 Alpha  occ. eigenvalues --  -10.33024 -10.31787 -10.31566 -10.31132 -10.30491
 Alpha  occ. eigenvalues --  -10.30416 -10.30174 -10.30120 -10.30038 -10.28488
 Alpha  occ. eigenvalues --  -10.28035 -10.26707 -10.25830 -10.25305  -1.23823
 Alpha  occ. eigenvalues --   -1.16946  -1.14623  -1.13416  -1.13245  -1.05944
 Alpha  occ. eigenvalues --   -1.05175  -1.03184  -0.98935  -0.97267  -0.96593
 Alpha  occ. eigenvalues --   -0.93480  -0.91882  -0.91438  -0.89989  -0.86306
 Alpha  occ. eigenvalues --   -0.86069  -0.85143  -0.83658  -0.82615  -0.79954
 Alpha  occ. eigenvalues --   -0.78261  -0.76145  -0.74451  -0.74104  -0.72814
 Alpha  occ. eigenvalues --   -0.72604  -0.71603  -0.70655  -0.69446  -0.69156
 Alpha  occ. eigenvalues --   -0.67905  -0.65968  -0.65030  -0.64706  -0.62985
 Alpha  occ. eigenvalues --   -0.62749  -0.62276  -0.62014  -0.61686  -0.61087
 Alpha  occ. eigenvalues --   -0.60668  -0.59759  -0.59472  -0.59109  -0.57299
 Alpha  occ. eigenvalues --   -0.56382  -0.56013  -0.55791  -0.55140  -0.54885
 Alpha  occ. eigenvalues --   -0.54330  -0.53890  -0.53543  -0.53330  -0.53047
 Alpha  occ. eigenvalues --   -0.52182  -0.51949  -0.51148  -0.50867  -0.50512
 Alpha  occ. eigenvalues --   -0.50270  -0.50003  -0.49301  -0.48448  -0.48124
 Alpha  occ. eigenvalues --   -0.48061  -0.47457  -0.47206  -0.46469  -0.46279
 Alpha  occ. eigenvalues --   -0.45932  -0.45632  -0.45114  -0.44904  -0.44644
 Alpha  occ. eigenvalues --   -0.44152  -0.43761  -0.41861  -0.41598  -0.41369
 Alpha  occ. eigenvalues --   -0.41075  -0.40843  -0.39456  -0.38633  -0.36818
 Alpha  occ. eigenvalues --   -0.36438  -0.35659  -0.34340  -0.33760  -0.33463
 Alpha  occ. eigenvalues --   -0.32315  -0.30283
 Alpha virt. eigenvalues --   -0.15129  -0.13128  -0.12022  -0.11051  -0.07533
 Alpha virt. eigenvalues --   -0.06810  -0.05629  -0.04719  -0.04095  -0.03874
 Alpha virt. eigenvalues --   -0.02653  -0.01804  -0.01012  -0.00229   0.00164

 Mulliken charges:
               1
     1  N   -0.695707
     2  H    0.314196
     3  H    0.322032
     4  C   -0.070032
     5  H    0.129133
     6  C    0.632035
     7  C   -0.339104
     8  H    0.198953
     9  H    0.182299
    10  O   -0.520309
    11  C    0.159665
    12  C   -0.104002
    13  H    0.187754
    14  C    0.158391
    15  C    0.196567
    16  C   -0.185586
    17  H    0.172148
    18  N   -0.741642
    19  H    0.456372
    20  C   -0.139093
    21  H    0.172335
    22  C   -0.150571
    23  H    0.165436
    24  C   -0.119215
    25  H    0.171623
    26  N   -0.622543
    27  H    0.328892
    28  C   -0.039669
    29  H    0.144736
    30  C    0.645544
    31  C   -0.086458
    32  H    0.196513
    33  O   -0.564929
    34  C   -0.289231
    35  H    0.150321
    36  H    0.160874
    37  C   -0.460630
    38  H    0.141441
    39  H    0.164266
    40  H    0.165137
    41  C   -0.464792
    42  H    0.184308
    43  H    0.097651
    44  H    0.163025
    45  N   -0.599207
    46  H    0.352777
    47  C   -0.050744
    48  H    0.207672
    49  C    0.615515
    50  C   -0.304530
    51  H    0.177669
    52  H    0.160222
    53  O   -0.501355
    54  C   -0.286369
    55  H    0.153460
    56  H    0.161442
    57  C   -0.164084
    58  H    0.162898
    59  H    0.176301
    60  N   -0.577086
    61  H    0.320270
    62  N   -0.758052
    63  H    0.344760
    64  H    0.327582
    65  N   -0.634690
    66  H    0.279983
    67  C    0.566020
    68  O   -0.537515
    69  H    0.407823
    70  H    0.431105
 Sum of Mulliken charges =   1.00000

 Dipole moment (field-independent basis, Debye):
    X=             11.2442    Y=              1.7310    Z=              6.6807  Tot=             13.1932
 Quadrupole moment (field-independent basis, Debye-Ang):
   XX=           -140.7888   YY=           -140.7952   ZZ=           -163.1024
   XY=              7.5354   XZ=             24.6199   YZ=            -21.3210

 Normal termination of Gaussian 16 at Fri Jun  3 04:56:15 2022.
