 Gaussian 16, Revision C.01,
 Gaussian 16:  ES64L-G16RevC.01  3-Jul-2019

 ----------------------------------------------------------------------
 # B3LYP/6-31G* empiricaldispersion=gd3 guess=read geom=check nosymm in
 tegral(ultrafinegrid)
 ----------------------------------------------------------------------

 ------------------------------------------------------
 Candidate Structure: Conf:302 Charge calc in gas phase
 ------------------------------------------------------
 Structure from the checkpoint file:  "conf-302.chk"
 Charge =  1 Multiplicity = 1

                          Input orientation:
 ---------------------------------------------------------------------
 Center     Atomic      Atomic             Coordinates (Angstroms)
 Number     Number       Type             X           Y           Z
 ---------------------------------------------------------------------
      1          7           0       -2.384407   -3.461551    2.678106
      2          1           0       -3.185418   -3.094646    2.166638
      3          1           0       -1.933062   -4.139653    2.062987
      4          6           0       -1.432442   -2.397808    2.964097
      5          1           0       -1.975115   -1.572667    3.442431
      6          6           0       -0.692196   -1.907743    1.696800
      7          6           0       -0.371227   -2.944518    3.959762
      8          1           0       -0.877697   -3.219704    4.889547
      9          1           0        0.064055   -3.849606    3.525789
     10          8           0       -0.135576   -2.722006    0.971588
     11          6           0        0.690408   -1.916360    4.175836
     12          6           0        1.882089   -1.884797    3.562595
     13          1           0        2.330347   -2.556787    2.847076
     14          6           0        0.497943   -0.648833    4.894804
     15          6           0        1.599408    0.174169    4.648350
     16          6           0       -0.533642   -0.175399    5.705641
     17          1           0       -1.400912   -0.791991    5.920469
     18          7           0        2.516089   -0.560013    3.752190
     19          1           0        3.471469   -0.606449    4.123181
     20          6           0        0.709643    1.905309    5.984142
     21          1           0        0.776737    2.897997    6.417519
     22          6           0        1.750419    1.445683    5.164649
     23          1           0        2.610874    2.060022    4.930547
     24          6           0       -0.411233    1.108252    6.247997
     25          1           0       -1.198398    1.493487    6.888717
     26          7           0       -0.735006   -0.558446    1.472204
     27          1           0       -1.206408    0.002868    2.167502
     28          6           0       -0.156315    0.173611    0.344266
     29          1           0       -0.710963    1.118568    0.298338
     30          6           0        1.326568    0.487318    0.611014
     31          6           0       -0.333237   -0.543834   -1.031537
     32          1           0        0.273364   -1.451515   -0.989670
     33          8           0        2.101469   -0.348246    1.091787
     34          6           0        0.182036    0.311667   -2.212129
     35          1           0        1.247411    0.535937   -2.077376
     36          1           0        0.129624   -0.321463   -3.105874
     37          6           0       -1.799389   -0.956361   -1.235390
     38          1           0       -2.487860   -0.115960   -1.088114
     39          1           0       -1.941139   -1.328205   -2.255747
     40          1           0       -2.085396   -1.758617   -0.552553
     41          6           0       -0.588292    1.608538   -2.495769
     42          1           0       -0.161940    2.127943   -3.360289
     43          1           0       -0.569054    2.314548   -1.653622
     44          1           0       -1.640986    1.411869   -2.720364
     45          7           0        1.756401    1.720126    0.251383
     46          1           0        1.095014    2.367162   -0.155597
     47          6           0        3.169441    2.061816    0.143686
     48          1           0        3.688565    1.223354   -0.342553
     49          6           0        3.826027    2.183347    1.520400
     50          6           0        3.362289    3.332489   -0.703880
     51          1           0        2.816697    4.163851   -0.235165
     52          1           0        4.419170    3.605364   -0.684239
     53          8           0        3.305664    1.926655    2.589547
     54          6           0        2.923091    3.169523   -2.165064
     55          1           0        1.843533    2.997215   -2.241570
     56          1           0        3.405291    2.280046   -2.596289
     57          6           0        3.267419    4.403123   -3.008365
     58          1           0        2.820931    4.300677   -4.010633
     59          1           0        2.815649    5.289314   -2.547243
     60          7           0        4.705343    4.615242   -3.057230
     61          1           0        5.217496    3.826660   -3.442084
     62          7           0        6.608341    5.797011   -3.630221
     63          1           0        6.983998    6.704644   -3.881592
     64          1           0        7.080893    5.398084   -2.826052
     65          7           0        4.580712    6.907722   -3.836893
     66          1           0        3.572809    6.762396   -3.881816
     67          6           0        5.217609    5.842731   -3.522505
     68          8           0        5.102645    2.576962    1.404908
     69          1           0        2.568729   -0.110464    2.801753
     70          1           0        5.488587    2.625309    2.300239
 ---------------------------------------------------------------------

 SCF Done:  E(RB3LYP) =  -1582.18620717     A.U. after    3 cycles

 Alpha  occ. eigenvalues --  -19.32538 -19.27364 -19.24753 -19.21461 -14.58015
 Alpha  occ. eigenvalues --  -14.49309 -14.47331 -14.42192 -14.41170 -14.39796
 Alpha  occ. eigenvalues --  -14.34723 -10.45323 -10.41624 -10.38588 -10.36675
 Alpha  occ. eigenvalues --  -10.36634 -10.35729 -10.35219 -10.34138 -10.33797
 Alpha  occ. eigenvalues --  -10.33240 -10.33198 -10.32646 -10.32040 -10.31737
 Alpha  occ. eigenvalues --  -10.31613 -10.30829 -10.30456 -10.30394 -10.29441
 Alpha  occ. eigenvalues --  -10.29193 -10.28057 -10.27507 -10.26340  -1.23773
 Alpha  occ. eigenvalues --   -1.16787  -1.14691  -1.14421  -1.13461  -1.05685
 Alpha  occ. eigenvalues --   -1.03937  -1.03344  -0.99219  -0.98469  -0.95728
 Alpha  occ. eigenvalues --   -0.94449  -0.92170  -0.90581  -0.90061  -0.87687
 Alpha  occ. eigenvalues --   -0.86943  -0.85657  -0.84744  -0.83533  -0.80847
 Alpha  occ. eigenvalues --   -0.77866  -0.76337  -0.75350  -0.74173  -0.73458
 Alpha  occ. eigenvalues --   -0.72942  -0.71864  -0.70770  -0.70399  -0.69771
 Alpha  occ. eigenvalues --   -0.68775  -0.66767  -0.65160  -0.65094  -0.63295
 Alpha  occ. eigenvalues --   -0.63237  -0.62346  -0.61863  -0.61570  -0.61029
 Alpha  occ. eigenvalues --   -0.60795  -0.60232  -0.59578  -0.57871  -0.57398
 Alpha  occ. eigenvalues --   -0.57351  -0.56830  -0.56335  -0.56207  -0.55540
 Alpha  occ. eigenvalues --   -0.55282  -0.54664  -0.53982  -0.53607  -0.53235
 Alpha  occ. eigenvalues --   -0.52755  -0.52087  -0.51626  -0.51198  -0.50878
 Alpha  occ. eigenvalues --   -0.50411  -0.50155  -0.49729  -0.49665  -0.48727
 Alpha  occ. eigenvalues --   -0.48254  -0.47991  -0.47742  -0.47407  -0.47207
 Alpha  occ. eigenvalues --   -0.46010  -0.45748  -0.45542  -0.45373  -0.44689
 Alpha  occ. eigenvalues --   -0.44604  -0.43110  -0.42898  -0.42328  -0.42295
 Alpha  occ. eigenvalues --   -0.42171  -0.41147  -0.39287  -0.38861  -0.38179
 Alpha  occ. eigenvalues --   -0.36490  -0.35639  -0.35495  -0.32758  -0.32708
 Alpha  occ. eigenvalues --   -0.31728  -0.29519
 Alpha virt. eigenvalues --   -0.16127  -0.13629  -0.12456  -0.11256  -0.08475
 Alpha virt. eigenvalues --   -0.07721  -0.06286  -0.05670  -0.04360  -0.03626
 Alpha virt. eigenvalues --   -0.02269  -0.01514  -0.01204  -0.00338   0.00175

 Mulliken charges:
               1
     1  N   -0.694642
     2  H    0.315368
     3  H    0.325403
     4  C   -0.073808
     5  H    0.134429
     6  C    0.622793
     7  C   -0.336530
     8  H    0.189026
     9  H    0.187946
    10  O   -0.524670
    11  C    0.125650
    12  C   -0.056122
    13  H    0.228032
    14  C    0.140742
    15  C    0.161282
    16  C   -0.216189
    17  H    0.174145
    18  N   -0.753640
    19  H    0.404850
    20  C   -0.148595
    21  H    0.174123
    22  C   -0.138045
    23  H    0.182916
    24  C   -0.118944
    25  H    0.174513
    26  N   -0.624798
    27  H    0.337415
    28  C   -0.043154
    29  H    0.147337
    30  C    0.638766
    31  C   -0.087955
    32  H    0.195248
    33  O   -0.569628
    34  C   -0.290873
    35  H    0.136571
    36  H    0.167103
    37  C   -0.463344
    38  H    0.142761
    39  H    0.166977
    40  H    0.163865
    41  C   -0.461949
    42  H    0.168420
    43  H    0.115363
    44  H    0.175347
    45  N   -0.588721
    46  H    0.354146
    47  C   -0.038582
    48  H    0.206948
    49  C    0.612005
    50  C   -0.310119
    51  H    0.155657
    52  H    0.209505
    53  O   -0.500831
    54  C   -0.303287
    55  H    0.150265
    56  H    0.150590
    57  C   -0.131601
    58  H    0.157716
    59  H    0.159770
    60  N   -0.608001
    61  H    0.323965
    62  N   -0.747471
    63  H    0.344922
    64  H    0.318505
    65  N   -0.630126
    66  H    0.279404
    67  C    0.575612
    68  O   -0.538611
    69  H    0.477228
    70  H    0.427602
 Sum of Mulliken charges =   1.00000

 Dipole moment (field-independent basis, Debye):
    X=              7.6504    Y=              3.4845    Z=             12.4593  Tot=             15.0301
 Quadrupole moment (field-independent basis, Debye-Ang):
   XX=           -140.2107   YY=           -203.0597   ZZ=           -134.4036
   XY=              8.3446   XZ=             24.3354   YZ=             14.0489

 Normal termination of Gaussian 16 at Fri Jun  3 04:56:44 2022.
