 Gaussian 16, Revision C.01,
 Gaussian 16:  ES64L-G16RevC.01  3-Jul-2019

 ----------------------------------------------------------------------
 # B3LYP/6-31G* empiricaldispersion=gd3 guess=read geom=check nosymm in
 tegral(ultrafinegrid)
 ----------------------------------------------------------------------

 ------------------------------------------------------
 Candidate Structure: Conf:746 Charge calc in gas phase
 ------------------------------------------------------
 Structure from the checkpoint file:  "conf-746.chk"
 Charge =  1 Multiplicity = 1

                          Input orientation:
 ---------------------------------------------------------------------
 Center     Atomic      Atomic             Coordinates (Angstroms)
 Number     Number       Type             X           Y           Z
 ---------------------------------------------------------------------
      1          7           0       -2.120720   -3.215355    2.670957
      2          1           0       -1.804388   -3.941734    2.034135
      3          1           0       -2.495856   -3.629765    3.519747
      4          6           0       -1.053149   -2.273959    2.931240
      5          1           0       -1.475766   -1.413957    3.464798
      6          6           0       -0.494701   -1.865806    1.555146
      7          6           0        0.121150   -2.806045    3.834336
      8          1           0        0.798912   -1.978633    4.072672
      9          1           0       -0.322138   -3.141440    4.778384
     10          8           0       -0.105702   -2.746732    0.793002
     11          6           0        0.890899   -3.920779    3.201027
     12          6           0        0.498498   -5.203588    3.110825
     13          1           0       -0.374742   -5.730844    3.462740
     14          6           0        2.188275   -3.769644    2.526855
     15          6           0        2.572571   -5.000984    1.999963
     16          6           0        3.025239   -2.674776    2.343332
     17          1           0        2.744247   -1.689647    2.692354
     18          7           0        1.490551   -5.977870    2.303518
     19          1           0        1.841688   -6.801849    2.808076
     20          6           0        4.574730   -4.115014    1.133532
     21          1           0        5.507119   -4.232362    0.591087
     22          6           0        3.738294   -5.229820    1.300133
     23          1           0        4.003009   -6.202518    0.896803
     24          6           0        4.220086   -2.860666    1.641065
     25          1           0        4.866984   -2.005732    1.478297
     26          7           0       -0.497186   -0.536008    1.290927
     27          1           0       -0.853469    0.074046    2.012787
     28          6           0        0.069376    0.132701    0.102658
     29          1           0       -0.387981    1.130460    0.093349
     30          6           0        1.582297    0.249554    0.350853
     31          6           0       -0.265783   -0.551843   -1.244174
     32          1           0        0.301193   -1.486256   -1.277866
     33          8           0        2.323443   -0.727516    0.314222
     34          6           0        0.141477    0.326987   -2.449757
     35          1           0       -0.265507   -0.165068   -3.341623
     36          1           0       -0.378004    1.295073   -2.384945
     37          6           0       -1.766672   -0.870404   -1.326261
     38          1           0       -2.371270    0.042196   -1.243607
     39          1           0       -1.996696   -1.330641   -2.292840
     40          1           0       -2.085315   -1.565376   -0.546379
     41          6           0        1.643189    0.555979   -2.676903
     42          1           0        1.812964    0.972767   -3.675355
     43          1           0        2.203271   -0.381877   -2.598454
     44          1           0        2.073485    1.261082   -1.958982
     45          7           0        2.052487    1.483887    0.673118
     46          1           0        1.444704    2.291441    0.677191
     47          6           0        3.476753    1.681076    0.894920
     48          1           0        4.031894    1.310788    0.026416
     49          6           0        3.986802    0.863295    2.076295
     50          6           0        3.764852    3.177052    1.116167
     51          1           0        3.283452    3.723405    0.297097
     52          1           0        3.279818    3.509540    2.041703
     53          8           0        5.084413    0.356495    2.136123
     54          6           0        5.259310    3.521934    1.144051
     55          1           0        5.716284    3.231629    0.187342
     56          1           0        5.775516    2.939092    1.917327
     57          6           0        5.521051    5.017266    1.400278
     58          1           0        5.121708    5.298358    2.378063
     59          1           0        6.601464    5.194657    1.435433
     60          7           0        4.955567    5.918835    0.391286
     61          1           0        5.346605    5.774827   -0.533073
     62          7           0        3.020049    6.435029    1.603592
     63          1           0        2.083024    6.809062    1.495550
     64          1           0        3.581169    7.024387    2.211000
     65          7           0        2.849854    6.317714   -0.702324
     66          1           0        3.352412    6.021298   -1.541545
     67          6           0        3.591688    6.225066    0.342982
     68          8           0        3.109760    0.829126    3.115715
     69          1           0        1.057977   -6.316445    1.432785
     70          1           0        3.587749    0.394420    3.847679
 ---------------------------------------------------------------------

 SCF Done:  E(RB3LYP) =  -1582.15805707     A.U. after    1 cycles

 Alpha  occ. eigenvalues --  -19.29196 -19.23219 -19.21294 -19.20601 -14.61568
 Alpha  occ. eigenvalues --  -14.46659 -14.45733 -14.42210 -14.41243 -14.40111
 Alpha  occ. eigenvalues --  -14.34532 -10.41221 -10.38699 -10.37717 -10.37120
 Alpha  occ. eigenvalues --  -10.37070 -10.35481 -10.34039 -10.33954 -10.33072
 Alpha  occ. eigenvalues --  -10.32958 -10.32871 -10.32822 -10.31969 -10.31284
 Alpha  occ. eigenvalues --  -10.31169 -10.30376 -10.29182 -10.27621 -10.26661
 Alpha  occ. eigenvalues --  -10.26472 -10.25341 -10.24231 -10.24030  -1.19868
 Alpha  occ. eigenvalues --   -1.16825  -1.13570  -1.12601  -1.10786  -1.03533
 Alpha  occ. eigenvalues --   -1.02622  -1.01964  -1.00065  -0.98841  -0.95044
 Alpha  occ. eigenvalues --   -0.94854  -0.90282  -0.89434  -0.87919  -0.87613
 Alpha  occ. eigenvalues --   -0.87053  -0.85438  -0.82858  -0.81147  -0.78908
 Alpha  occ. eigenvalues --   -0.76570  -0.75622  -0.75389  -0.73807  -0.73556
 Alpha  occ. eigenvalues --   -0.71052  -0.70707  -0.69581  -0.68764  -0.68445
 Alpha  occ. eigenvalues --   -0.67578  -0.66592  -0.66129  -0.63739  -0.63268
 Alpha  occ. eigenvalues --   -0.62470  -0.61746  -0.60856  -0.60560  -0.59438
 Alpha  occ. eigenvalues --   -0.58582  -0.58089  -0.57894  -0.57132  -0.56702
 Alpha  occ. eigenvalues --   -0.56164  -0.55303  -0.55134  -0.54713  -0.53945
 Alpha  occ. eigenvalues --   -0.53762  -0.53036  -0.51981  -0.51627  -0.50956
 Alpha  occ. eigenvalues --   -0.50674  -0.50430  -0.50303  -0.50069  -0.49571
 Alpha  occ. eigenvalues --   -0.49292  -0.48901  -0.48727  -0.48087  -0.47772
 Alpha  occ. eigenvalues --   -0.47570  -0.47153  -0.46905  -0.46127  -0.45461
 Alpha  occ. eigenvalues --   -0.44575  -0.44303  -0.43680  -0.43249  -0.42309
 Alpha  occ. eigenvalues --   -0.42272  -0.41852  -0.40866  -0.40180  -0.40115
 Alpha  occ. eigenvalues --   -0.39624  -0.37986  -0.37226  -0.37166  -0.35983
 Alpha  occ. eigenvalues --   -0.35143  -0.34550  -0.33624  -0.33019  -0.32651
 Alpha  occ. eigenvalues --   -0.31702  -0.28629
 Alpha virt. eigenvalues --   -0.16776  -0.13309  -0.10376  -0.08910  -0.08588
 Alpha virt. eigenvalues --   -0.08077  -0.06063  -0.04274  -0.04097  -0.03216
 Alpha virt. eigenvalues --   -0.02930  -0.02430  -0.01282  -0.00337   0.00229

 Mulliken charges:
               1
     1  N   -0.702293
     2  H    0.320564
     3  H    0.309665
     4  C   -0.060528
     5  H    0.155413
     6  C    0.667008
     7  C   -0.384002
     8  H    0.171891
     9  H    0.180384
    10  O   -0.538209
    11  C    0.211741
    12  C   -0.131527
    13  H    0.201985
    14  C    0.175016
    15  C    0.155395
    16  C   -0.173196
    17  H    0.159273
    18  N   -0.726396
    19  H    0.419416
    20  C   -0.143710
    21  H    0.177791
    22  C   -0.152933
    23  H    0.170908
    24  C   -0.108111
    25  H    0.203094
    26  N   -0.623451
    27  H    0.341024
    28  C   -0.047324
    29  H    0.143370
    30  C    0.658470
    31  C   -0.091950
    32  H    0.181518
    33  O   -0.533619
    34  C   -0.264469
    35  H    0.152222
    36  H    0.132036
    37  C   -0.461323
    38  H    0.139735
    39  H    0.157443
    40  H    0.163099
    41  C   -0.462558
    42  H    0.157008
    43  H    0.162364
    44  H    0.137815
    45  N   -0.628693
    46  H    0.344863
    47  C    0.014880
    48  H    0.190545
    49  C    0.615114
    50  C   -0.330963
    51  H    0.177368
    52  H    0.172801
    53  O   -0.470876
    54  C   -0.274378
    55  H    0.143022
    56  H    0.161616
    57  C   -0.153469
    58  H    0.162812
    59  H    0.164360
    60  N   -0.575462
    61  H    0.314307
    62  N   -0.739660
    63  H    0.339813
    64  H    0.329565
    65  N   -0.632991
    66  H    0.266065
    67  C    0.542599
    68  O   -0.574842
    69  H    0.428466
    70  H    0.413088
 Sum of Mulliken charges =   1.00000

 Dipole moment (field-independent basis, Debye):
    X=              8.5760    Y=            -14.8055    Z=             12.7161  Tot=             21.3178
 Quadrupole moment (field-independent basis, Debye-Ang):
   XX=           -160.7268   YY=            -57.0222   ZZ=           -150.8716
   XY=             -6.4050   XZ=              9.4169   YZ=            -36.4578

 Normal termination of Gaussian 16 at Fri Jun  3 04:56:05 2022.
