 Gaussian 16, Revision C.01,
 Gaussian 16:  ES64L-G16RevC.01  3-Jul-2019

 ----------------------------------------------------------------------
 # B3LYP/6-31G* empiricaldispersion=gd3 guess=read geom=check nosymm in
 tegral(ultrafinegrid)
 ----------------------------------------------------------------------

 ------------------------------------------------------
 Candidate Structure: Conf:828 Charge calc in gas phase
 ------------------------------------------------------
 Structure from the checkpoint file:  "conf-828.chk"
 Charge =  1 Multiplicity = 1

                          Input orientation:
 ---------------------------------------------------------------------
 Center     Atomic      Atomic             Coordinates (Angstroms)
 Number     Number       Type             X           Y           Z
 ---------------------------------------------------------------------
      1          7           0       -2.275776   -4.369163    2.548185
      2          1           0       -1.535490   -4.851615    2.045854
      3          1           0       -2.635934   -4.947974    3.299933
      4          6           0       -1.828820   -3.074643    3.003251
      5          1           0       -2.710989   -2.449292    3.197765
      6          6           0       -0.984325   -2.464159    1.862811
      7          6           0       -0.971729   -3.045664    4.340238
      8          1           0       -1.146400   -2.095436    4.856748
      9          1           0       -1.340550   -3.842104    4.995653
     10          8           0       -0.341625   -3.182516    1.112621
     11          6           0        0.489449   -3.184764    4.063840
     12          6           0        1.340840   -2.148549    4.008035
     13          1           0        1.220068   -1.095950    4.204938
     14          6           0        1.186135   -4.388716    3.588783
     15          6           0        2.472720   -4.018551    3.187388
     16          6           0        0.806432   -5.725664    3.484352
     17          1           0       -0.186183   -6.045222    3.782434
     18          7           0        2.601463   -2.563139    3.362453
     19          1           0        2.600087   -2.062506    2.426235
     20          6           0        3.013141   -6.235940    2.577955
     21          1           0        3.711273   -6.967913    2.185249
     22          6           0        3.407392   -4.894495    2.673850
     23          1           0        4.393826   -4.571259    2.356224
     24          6           0        1.733750   -6.640835    2.977613
     25          1           0        1.456947   -7.686761    2.890037
     26          7           0       -0.935080   -1.096878    1.836338
     27          1           0       -1.610768   -0.604401    2.403895
     28          6           0       -0.231127   -0.291881    0.828052
     29          1           0       -0.630571    0.721995    0.953542
     30          6           0        1.278174   -0.258298    1.121197
     31          6           0       -0.500904   -0.705401   -0.648264
     32          1           0       -0.079371   -1.705142   -0.782254
     33          8           0        1.982321   -1.276630    1.104135
     34          6           0        0.187116    0.276835   -1.633463
     35          1           0       -0.440275    0.354350   -2.528681
     36          1           0        0.200418    1.291064   -1.204546
     37          6           0       -2.013799   -0.765704   -0.900344
     38          1           0       -2.478788    0.220873   -0.771451
     39          1           0       -2.205586   -1.090102   -1.927858
     40          1           0       -2.516047   -1.473242   -0.234944
     41          6           0        1.599051   -0.125618   -2.079780
     42          1           0        2.009491    0.613753   -2.776226
     43          1           0        1.575654   -1.092938   -2.593341
     44          1           0        2.297064   -0.225477   -1.243792
     45          7           0        1.813223    0.966025    1.329798
     46          1           0        1.206042    1.774020    1.329821
     47          6           0        3.247500    1.215029    1.360153
     48          1           0        3.713684    0.534831    0.633181
     49          6           0        3.852729    0.810348    2.708587
     50          6           0        3.555546    2.666801    0.958278
     51          1           0        3.070344    3.351556    1.668770
     52          1           0        4.629579    2.836458    1.055083
     53          8           0        3.304019    0.129262    3.554270
     54          6           0        3.124926    2.999948   -0.476804
     55          1           0        2.036515    2.923782   -0.593065
     56          1           0        3.552485    2.260690   -1.169070
     57          6           0        3.555514    4.410477   -0.894964
     58          1           0        3.116992    4.654121   -1.876110
     59          1           0        3.154801    5.136239   -0.177399
     60          7           0        5.004829    4.534600   -0.885377
     61          1           0        5.471045    3.869248   -1.495556
     62          7           0        6.985200    5.711488   -1.085907
     63          1           0        7.419001    6.627487   -1.054717
     64          1           0        7.420130    5.062234   -0.438957
     65          7           0        5.032696    6.958420   -0.938457
     66          1           0        4.018407    6.897033   -1.018966
     67          6           0        5.598326    5.810413   -0.962247
     68          8           0        5.114384    1.246593    2.825288
     69          1           0        3.430822   -2.252906    3.879142
     70          1           0        5.462237    0.945337    3.686740
 ---------------------------------------------------------------------

 SCF Done:  E(RB3LYP) =  -1582.18144370     A.U. after    1 cycles

 Alpha  occ. eigenvalues --  -19.32705 -19.27506 -19.25028 -19.22168 -14.56968
 Alpha  occ. eigenvalues --  -14.49844 -14.47625 -14.42148 -14.40820 -14.39756
 Alpha  occ. eigenvalues --  -14.34689 -10.45479 -10.42072 -10.39350 -10.36806
 Alpha  occ. eigenvalues --  -10.35854 -10.35441 -10.35141 -10.34089 -10.33599
 Alpha  occ. eigenvalues --  -10.33573 -10.32452 -10.32136 -10.31353 -10.31143
 Alpha  occ. eigenvalues --  -10.30940 -10.30761 -10.30683 -10.30414 -10.29407
 Alpha  occ. eigenvalues --  -10.28845 -10.27724 -10.26239 -10.26219  -1.23910
 Alpha  occ. eigenvalues --   -1.17086  -1.14799  -1.14286  -1.13776  -1.06117
 Alpha  occ. eigenvalues --   -1.03894  -1.03674  -0.99012  -0.97714  -0.95686
 Alpha  occ. eigenvalues --   -0.93926  -0.92210  -0.90495  -0.90027  -0.86936
 Alpha  occ. eigenvalues --   -0.86692  -0.85669  -0.84314  -0.83002  -0.80839
 Alpha  occ. eigenvalues --   -0.77881  -0.76842  -0.74897  -0.73967  -0.72685
 Alpha  occ. eigenvalues --   -0.72474  -0.71930  -0.70463  -0.70052  -0.69773
 Alpha  occ. eigenvalues --   -0.68917  -0.66514  -0.66066  -0.65031  -0.63298
 Alpha  occ. eigenvalues --   -0.63208  -0.62487  -0.61614  -0.61390  -0.61151
 Alpha  occ. eigenvalues --   -0.60742  -0.59744  -0.59639  -0.57729  -0.57565
 Alpha  occ. eigenvalues --   -0.57249  -0.56854  -0.55901  -0.55430  -0.55085
 Alpha  occ. eigenvalues --   -0.55038  -0.54928  -0.53776  -0.53333  -0.52821
 Alpha  occ. eigenvalues --   -0.52661  -0.52000  -0.51928  -0.51461  -0.51008
 Alpha  occ. eigenvalues --   -0.50297  -0.49919  -0.49573  -0.49224  -0.48745
 Alpha  occ. eigenvalues --   -0.48212  -0.47969  -0.47601  -0.47319  -0.47052
 Alpha  occ. eigenvalues --   -0.45957  -0.45810  -0.45416  -0.45008  -0.44743
 Alpha  occ. eigenvalues --   -0.44447  -0.43056  -0.42683  -0.42292  -0.41996
 Alpha  occ. eigenvalues --   -0.41711  -0.41286  -0.39918  -0.39078  -0.37400
 Alpha  occ. eigenvalues --   -0.36468  -0.35339  -0.34803  -0.32675  -0.32489
 Alpha  occ. eigenvalues --   -0.31690  -0.29487
 Alpha virt. eigenvalues --   -0.15482  -0.12769  -0.12622  -0.11476  -0.08415
 Alpha virt. eigenvalues --   -0.07822  -0.06358  -0.05349  -0.03857  -0.03588
 Alpha virt. eigenvalues --   -0.02202  -0.01482  -0.01183  -0.00556   0.00150

 Mulliken charges:
               1
     1  N   -0.714684
     2  H    0.335576
     3  H    0.309360
     4  C   -0.063108
     5  H    0.159663
     6  C    0.643045
     7  C   -0.359670
     8  H    0.160522
     9  H    0.177247
    10  O   -0.508824
    11  C    0.138371
    12  C   -0.086924
    13  H    0.202978
    14  C    0.180709
    15  C    0.200128
    16  C   -0.203542
    17  H    0.152107
    18  N   -0.750848
    19  H    0.465459
    20  C   -0.139421
    21  H    0.173890
    22  C   -0.150032
    23  H    0.167025
    24  C   -0.117598
    25  H    0.172127
    26  N   -0.629415
    27  H    0.339705
    28  C   -0.046533
    29  H    0.138954
    30  C    0.669127
    31  C   -0.081486
    32  H    0.198684
    33  O   -0.575169
    34  C   -0.287417
    35  H    0.165683
    36  H    0.119162
    37  C   -0.468851
    38  H    0.141378
    39  H    0.172803
    40  H    0.162364
    41  C   -0.460726
    42  H    0.153551
    43  H    0.168535
    44  H    0.147134
    45  N   -0.582970
    46  H    0.350190
    47  C   -0.052984
    48  H    0.211614
    49  C    0.606581
    50  C   -0.304725
    51  H    0.153835
    52  H    0.208685
    53  O   -0.498457
    54  C   -0.296073
    55  H    0.142995
    56  H    0.152758
    57  C   -0.132373
    58  H    0.158205
    59  H    0.159558
    60  N   -0.607857
    61  H    0.323245
    62  N   -0.747700
    63  H    0.344875
    64  H    0.318386
    65  N   -0.629752
    66  H    0.279693
    67  C    0.575350
    68  O   -0.536812
    69  H    0.402924
    70  H    0.429768
 Sum of Mulliken charges =   1.00000

 Dipole moment (field-independent basis, Debye):
    X=              9.2795    Y=             -7.4287    Z=             13.5255  Tot=             18.0065
 Quadrupole moment (field-independent basis, Debye-Ang):
   XX=           -137.5872   YY=           -163.1899   ZZ=           -147.7231
   XY=            -19.4846   XZ=             24.2062   YZ=            -31.4806

 Normal termination of Gaussian 16 at Fri Jun  3 04:56:05 2022.
