 Gaussian 16, Revision C.01,
 Gaussian 16:  ES64L-G16RevC.01  3-Jul-2019

 -------------------------------------------------------------------
 # B3LYP/6-31G* guess=read geom=check nosymm integral(ultrafinegrid)
 -------------------------------------------------------------------

 ------------------------------------------------------
 Candidate Structure: Conf:705 Charge calc in gas phase
 ------------------------------------------------------
 Structure from the checkpoint file:  "conf-705.chk"
 Charge =  1 Multiplicity = 1

                          Input orientation:
 ---------------------------------------------------------------------
 Center     Atomic      Atomic             Coordinates (Angstroms)
 Number     Number       Type             X           Y           Z
 ---------------------------------------------------------------------
      1          7           0       -5.267033    3.747133   -1.829064
      2          1           0       -6.053364    3.780721   -2.483871
      3          1           0       -4.592606    4.468787   -2.098071
      4          1           0       -5.614790    3.921405   -0.827665
      5          6           0       -4.660432    2.377735   -1.685368
      6          1           0       -3.596980    2.417631   -1.927815
      7          1           0       -5.157701    1.680817   -2.362180
      8          6           0       -4.906475    2.027113   -0.192746
      9          8           0       -5.487635    2.881067    0.493838
     10          7           0       -4.474853    0.848571    0.220978
     11          1           0       -3.990254    0.175120   -0.381484
     12          6           0       -4.598522    0.362530    1.587154
     13          1           0       -5.653075    0.246256    1.863312
     14          1           0       -4.142176    1.068772    2.289664
     15          6           0       -3.872824   -0.995102    1.602103
     16          8           0       -3.449746   -1.465052    0.541968
     17          7           0       -3.750177   -1.599769    2.794564
     18          1           0       -4.033814   -1.110345    3.633851
     19          6           0       -3.039714   -2.873858    2.950831
     20          1           0       -3.251662   -3.482650    2.067994
     21          1           0       -3.422480   -3.377011    3.838727
     22          6           0       -1.519779   -2.693637    3.141673
     23          8           0       -0.977712   -2.973703    4.202797
     24          7           0       -0.859643   -2.204772    2.062240
     25          1           0       -1.345263   -1.931673    1.212131
     26          6           0        0.555857   -1.918300    2.120827
     27          1           0        1.147774   -2.843751    2.130727
     28          1           0        0.794080   -1.390687    3.053398
     29          6           0        0.941670   -1.058473    0.913575
     30          8           0        0.098597   -0.593432    0.145184
     31          7           0        2.268645   -0.856740    0.771343
     32          1           0        2.955670   -1.271763    1.395326
     33          6           0        2.834858   -0.097385   -0.318013
     34          1           0        2.523859   -0.511526   -1.286815
     35          1           0        2.495570    0.946962   -0.292918
     36          6           0        4.361333   -0.158465   -0.181441
     37          8           0        4.891290   -0.770213    0.738906
     38          7           0        5.053321    0.534488   -1.127404
     39          1           0        4.546994    0.882857   -1.930575
     40          6           0        6.496256    0.448008   -1.227593
     41          1           0        6.866770    0.033943   -0.286360
     42          1           0        6.940191    1.442379   -1.344844
     43          6           0        7.028490   -0.423060   -2.360537
     44          8           0        8.203926   -0.548924   -2.601083
     45          8           0        6.044984   -1.025582   -3.070560
     46          1           0        6.494013   -1.557440   -3.755640
 ---------------------------------------------------------------------

 SCF Done:  E(RB3LYP) =  -1324.85460339     A.U. after    2 cycles

 Alpha  occ. eigenvalues --  -19.29480 -19.26844 -19.24566 -19.20540 -19.20295
 Alpha  occ. eigenvalues --  -19.19561 -19.18616 -14.62879 -14.51957 -14.48603
 Alpha  occ. eigenvalues --  -14.44741 -14.43675 -14.42986 -10.46323 -10.43282
 Alpha  occ. eigenvalues --  -10.41768 -10.39071 -10.37576 -10.36873 -10.36840
 Alpha  occ. eigenvalues --  -10.36124 -10.32125 -10.31422 -10.30889 -10.30303
 Alpha  occ. eigenvalues --   -1.21949  -1.17484  -1.16794  -1.16258  -1.12451
 Alpha  occ. eigenvalues --   -1.11372  -1.10457  -1.08502  -1.08467  -1.04403
 Alpha  occ. eigenvalues --   -1.01028  -1.00180  -0.99287  -0.92873  -0.87583
 Alpha  occ. eigenvalues --   -0.84851  -0.82989  -0.80703  -0.77121  -0.76740
 Alpha  occ. eigenvalues --   -0.76649  -0.74521  -0.71009  -0.69187  -0.69031
 Alpha  occ. eigenvalues --   -0.67898  -0.66615  -0.65963  -0.65465  -0.63516
 Alpha  occ. eigenvalues --   -0.63221  -0.62240  -0.60864  -0.60465  -0.59442
 Alpha  occ. eigenvalues --   -0.57720  -0.56532  -0.56084  -0.55685  -0.55593
 Alpha  occ. eigenvalues --   -0.55033  -0.54424  -0.53762  -0.53636  -0.53100
 Alpha  occ. eigenvalues --   -0.52154  -0.52043  -0.51625  -0.49844  -0.48892
 Alpha  occ. eigenvalues --   -0.48251  -0.47746  -0.47195  -0.46668  -0.46208
 Alpha  occ. eigenvalues --   -0.46037  -0.44738  -0.44530  -0.42831  -0.41870
 Alpha  occ. eigenvalues --   -0.39234  -0.38535  -0.38183  -0.36549  -0.34749
 Alpha  occ. eigenvalues --   -0.33986  -0.33569  -0.32701  -0.32147  -0.31880
 Alpha virt. eigenvalues --   -0.14505  -0.13999  -0.10199  -0.08543  -0.06969
 Alpha virt. eigenvalues --   -0.06152  -0.05729  -0.05579  -0.04726  -0.03551
 Alpha virt. eigenvalues --   -0.02977  -0.02243  -0.00492   0.00422   0.00717

 Mulliken charges:
               1
     1  N   -0.750128
     2  H    0.425263
     3  H    0.424871
     4  H    0.441448
     5  C   -0.278080
     6  H    0.254452
     7  H    0.251186
     8  C    0.641848
     9  O   -0.522206
    10  N   -0.605222
    11  H    0.388895
    12  C   -0.208745
    13  H    0.220452
    14  H    0.214525
    15  C    0.620764
    16  O   -0.531205
    17  N   -0.589071
    18  H    0.354905
    19  C   -0.246101
    20  H    0.208282
    21  H    0.201926
    22  C    0.593156
    23  O   -0.495944
    24  N   -0.614966
    25  H    0.373954
    26  C   -0.195424
    27  H    0.191671
    28  H    0.200132
    29  C    0.598359
    30  O   -0.548933
    31  N   -0.619795
    32  H    0.366595
    33  C   -0.190707
    34  H    0.190331
    35  H    0.183160
    36  C    0.602834
    37  O   -0.506753
    38  N   -0.589814
    39  H    0.338605
    40  C   -0.239960
    41  H    0.242138
    42  H    0.204242
    43  C    0.580987
    44  O   -0.435362
    45  O   -0.568661
    46  H    0.422097
 Sum of Mulliken charges =   1.00000

 Dipole moment (field-independent basis, Debye):
    X=            -20.4384    Y=             13.0291    Z=             -8.4240  Tot=             25.6602
 Quadrupole moment (field-independent basis, Debye-Ang):
   XX=            -32.5833   YY=            -93.7196   ZZ=           -115.4086
   XY=            -50.9345   XZ=             14.4768   YZ=            -25.5662

 Normal termination of Gaussian 16 at Thu Jul  7 14:59:22 2022.
