 Gaussian 16, Revision C.01,
 Gaussian 16:  ES64L-G16RevC.01  3-Jul-2019

 -------------------------------------------------------------------
 # B3LYP/6-31G* guess=read geom=check nosymm integral(ultrafinegrid)
 -------------------------------------------------------------------

 ------------------------------------------------------
 Candidate Structure: Conf:315 Charge calc in gas phase
 ------------------------------------------------------
 Structure from the checkpoint file:  "conf-315.chk"
 Charge =  1 Multiplicity = 1

                          Input orientation:
 ---------------------------------------------------------------------
 Center     Atomic      Atomic             Coordinates (Angstroms)
 Number     Number       Type             X           Y           Z
 ---------------------------------------------------------------------
      1          7           0       -9.512097    3.720843    1.531407
      2          1           0      -10.378558    3.186199    1.636833
      3          1           0       -9.755850    4.695103    1.333618
      4          1           0       -8.925872    3.660211    2.433325
      5          6           0       -8.551860    3.125124    0.538614
      6          1           0       -8.327623    3.854511   -0.241581
      7          1           0       -8.994383    2.237083    0.084133
      8          6           0       -7.305694    2.785265    1.402508
      9          8           0       -7.377756    3.057689    2.611660
     10          7           0       -6.279370    2.237406    0.779202
     11          1           0       -6.259863    2.028088   -0.226513
     12          6           0       -5.029930    1.851516    1.418404
     13          1           0       -5.209103    1.108033    2.202963
     14          1           0       -4.546865    2.719259    1.881079
     15          6           0       -4.162766    1.268116    0.282334
     16          8           0       -4.618352    1.226232   -0.864729
     17          7           0       -2.949874    0.841177    0.640542
     18          1           0       -2.596130    0.886487    1.597088
     19          6           0       -1.995420    0.263833   -0.285652
     20          1           0       -1.747670    0.973546   -1.084209
     21          1           0       -2.407935   -0.633187   -0.763111
     22          6           0       -0.746168   -0.084054    0.542957
     23          8           0       -0.719830    0.146062    1.753642
     24          7           0        0.266107   -0.636047   -0.142526
     25          1           0        0.228698   -0.819287   -1.143659
     26          6           0        1.516516   -1.026496    0.473310
     27          1           0        1.349059   -1.770748    1.262032
     28          1           0        2.007055   -0.165113    0.943864
     29          6           0        2.399915   -1.609167   -0.640124
     30          8           0        1.992681   -1.671908   -1.800691
     31          7           0        3.616502   -2.030953   -0.250900
     32          1           0        3.942823   -1.974960    0.710901
     33          6           0        4.573391   -2.605513   -1.170245
     34          1           0        4.163250   -3.501671   -1.653671
     35          1           0        4.821482   -1.897160   -1.971297
     36          6           0        5.826909   -2.959501   -0.360058
     37          8           0        5.886262   -2.745726    0.849249
     38          7           0        6.836732   -3.512118   -1.065492
     39          1           0        6.770762   -3.681161   -2.063495
     40          6           0        8.082819   -3.899317   -0.439957
     41          1           0        7.922384   -4.643452    0.350012
     42          1           0        8.576861   -3.043466    0.036437
     43          6           0        8.992772   -4.480099   -1.503762
     44          8           0        8.694132   -4.587397   -2.673816
     45          8           0       10.171564   -4.860762   -0.986101
     46          1           0       10.705315   -5.222852   -1.719098
 ---------------------------------------------------------------------

 SCF Done:  E(RB3LYP) =  -1324.87052364     A.U. after    3 cycles

 Alpha  occ. eigenvalues --  -19.28632 -19.26638 -19.22719 -19.21290 -19.20026
 Alpha  occ. eigenvalues --  -19.18856 -19.18717 -14.62060 -14.50943 -14.46078
 Alpha  occ. eigenvalues --  -14.43781 -14.43056 -14.42834 -10.45440 -10.42539
 Alpha  occ. eigenvalues --  -10.39965 -10.39468 -10.37309 -10.36136 -10.36008
 Alpha  occ. eigenvalues --  -10.35408 -10.32033 -10.30412 -10.30319 -10.29925
 Alpha  occ. eigenvalues --   -1.21098  -1.17770  -1.15680  -1.14661  -1.12045
 Alpha  occ. eigenvalues --   -1.11080  -1.10349  -1.08917  -1.07450  -1.02575
 Alpha  occ. eigenvalues --   -1.00287  -0.99624  -0.99155  -0.91969  -0.86614
 Alpha  occ. eigenvalues --   -0.84215  -0.82802  -0.80220  -0.76817  -0.75988
 Alpha  occ. eigenvalues --   -0.75840  -0.73408  -0.69663  -0.68873  -0.67987
 Alpha  occ. eigenvalues --   -0.67060  -0.66201  -0.65278  -0.64778  -0.62711
 Alpha  occ. eigenvalues --   -0.62459  -0.60401  -0.59390  -0.59286  -0.56890
 Alpha  occ. eigenvalues --   -0.56569  -0.56402  -0.55801  -0.55754  -0.54817
 Alpha  occ. eigenvalues --   -0.54665  -0.54198  -0.53861  -0.53070  -0.52692
 Alpha  occ. eigenvalues --   -0.52419  -0.52150  -0.50696  -0.49813  -0.48468
 Alpha  occ. eigenvalues --   -0.47796  -0.47645  -0.46638  -0.45821  -0.45530
 Alpha  occ. eigenvalues --   -0.45376  -0.43731  -0.43615  -0.42022  -0.40880
 Alpha  occ. eigenvalues --   -0.38888  -0.37382  -0.35988  -0.35375  -0.34621
 Alpha  occ. eigenvalues --   -0.33850  -0.33462  -0.32941  -0.32339  -0.31694
 Alpha virt. eigenvalues --   -0.13659  -0.13293  -0.08309  -0.07642  -0.06197
 Alpha virt. eigenvalues --   -0.05928  -0.05567  -0.04582  -0.03597  -0.02714
 Alpha virt. eigenvalues --   -0.01808   0.00301   0.01257   0.01409   0.01722

 Mulliken charges:
               1
     1  N   -0.750861
     2  H    0.423664
     3  H    0.423661
     4  H    0.441294
     5  C   -0.276931
     6  H    0.249787
     7  H    0.249821
     8  C    0.640482
     9  O   -0.524256
    10  N   -0.605123
    11  H    0.381809
    12  C   -0.212078
    13  H    0.216117
    14  H    0.216122
    15  C    0.620653
    16  O   -0.534731
    17  N   -0.621784
    18  H    0.369721
    19  C   -0.200494
    20  H    0.201966
    21  H    0.202010
    22  C    0.612836
    23  O   -0.533047
    24  N   -0.623536
    25  H    0.364494
    26  C   -0.195176
    27  H    0.197560
    28  H    0.197598
    29  C    0.609555
    30  O   -0.532003
    31  N   -0.624467
    32  H    0.363335
    33  C   -0.193066
    34  H    0.196130
    35  H    0.196071
    36  C    0.609418
    37  O   -0.524632
    38  N   -0.626377
    39  H    0.360609
    40  C   -0.177047
    41  H    0.212833
    42  H    0.212860
    43  C    0.569056
    44  O   -0.456769
    45  O   -0.554234
    46  H    0.427151
 Sum of Mulliken charges =   1.00000

 Dipole moment (field-independent basis, Debye):
    X=            -28.2852    Y=              9.8039    Z=              2.7625  Tot=             30.0632
 Quadrupole moment (field-independent basis, Debye-Ang):
   XX=            261.5247   YY=            -72.2106   ZZ=           -150.4528
   XY=           -159.4469   XZ=            -50.5510   YZ=             16.5711

 Normal termination of Gaussian 16 at Thu Jul  7 14:59:27 2022.
