 Gaussian 16, Revision C.01,
 Gaussian 16:  ES64L-G16RevC.01  3-Jul-2019

 -------------------------------------------------------------------
 # B3LYP/6-31G* guess=read geom=check nosymm integral(ultrafinegrid)
 -------------------------------------------------------------------

 ------------------------------------------------------
 Candidate Structure: Conf:797 Charge calc in gas phase
 ------------------------------------------------------
 Structure from the checkpoint file:  "conf-797.chk"
 Charge =  1 Multiplicity = 1

                          Input orientation:
 ---------------------------------------------------------------------
 Center     Atomic      Atomic             Coordinates (Angstroms)
 Number     Number       Type             X           Y           Z
 ---------------------------------------------------------------------
      1          7           0       -1.608586    1.507651    3.929720
      2          1           0       -0.676733    1.827809    3.557962
      3          1           0       -1.564964    1.333918    4.936698
      4          1           0       -2.279237    2.265208    3.715333
      5          6           0       -2.048153    0.315341    3.130395
      6          1           0       -2.915697   -0.135817    3.618769
      7          1           0       -1.224967   -0.397700    3.061835
      8          6           0       -2.432832    0.906914    1.767369
      9          8           0       -2.908112    2.046930    1.744294
     10          7           0       -2.184839    0.145235    0.688690
     11          1           0       -1.555463   -0.646218    0.816044
     12          6           0       -2.249260    0.727890   -0.659634
     13          1           0       -3.060777    1.457474   -0.681661
     14          1           0       -2.439594   -0.060908   -1.387049
     15          6           0       -0.870007    1.350449   -0.942094
     16          8           0       -0.034450    0.777052   -1.625500
     17          7           0       -0.624022    2.511357   -0.252729
     18          1           0       -1.357819    2.845311    0.364449
     19          6           0        0.743057    2.866958    0.117706
     20          1           0        0.792100    3.933318    0.349209
     21          1           0        1.402589    2.648047   -0.723023
     22          6           0        1.102238    2.060488    1.374461
     23          8           0        0.503296    2.283758    2.442205
     24          7           0        2.022744    1.089371    1.224783
     25          1           0        2.346741    0.859323    0.282795
     26          6           0        2.208863    0.032709    2.219776
     27          1           0        1.734561    0.347556    3.148245
     28          1           0        3.275701   -0.129579    2.400991
     29          6           0        1.510893   -1.199924    1.628775
     30          8           0        0.280185   -1.296286    1.630930
     31          7           0        2.334946   -2.075766    0.992877
     32          1           0        3.306613   -1.789030    0.962985
     33          6           0        1.898606   -2.692267   -0.248569
     34          1           0        2.452749   -3.619799   -0.423822
     35          1           0        0.838145   -2.938362   -0.162701
     36          6           0        2.145274   -1.673984   -1.392590
     37          8           0        2.697129   -0.594873   -1.161617
     38          7           0        1.738126   -2.048338   -2.616100
     39          1           0        1.280889   -2.938641   -2.764913
     40          6           0        1.825978   -1.137299   -3.751038
     41          1           0        2.870575   -0.888519   -3.968517
     42          1           0        1.315992   -0.198270   -3.509667
     43          6           0        1.211890   -1.699529   -5.018331
     44          8           0        1.209188   -1.115402   -6.071479
     45          8           0        0.661982   -2.928404   -4.836553
     46          1           0        0.302959   -3.208702   -5.700299
 ---------------------------------------------------------------------

 SCF Done:  E(RB3LYP) =  -1324.88307182     A.U. after    1 cycles

 Alpha  occ. eigenvalues --  -19.29370 -19.26794 -19.25762 -19.25743 -19.23502
 Alpha  occ. eigenvalues --  -19.23027 -19.22821 -14.59095 -14.50434 -14.49508
 Alpha  occ. eigenvalues --  -14.48819 -14.47498 -14.47138 -10.43993 -10.42504
 Alpha  occ. eigenvalues --  -10.42494 -10.41622 -10.40571 -10.40158 -10.39577
 Alpha  occ. eigenvalues --  -10.35868 -10.34989 -10.34873 -10.34616 -10.32849
 Alpha  occ. eigenvalues --   -1.19892  -1.19165  -1.17480  -1.16700  -1.15255
 Alpha  occ. eigenvalues --   -1.14654  -1.13368  -1.10907  -1.06701  -1.05910
 Alpha  occ. eigenvalues --   -1.05040  -1.03680  -1.03324  -0.90283  -0.88770
 Alpha  occ. eigenvalues --   -0.86515  -0.84855  -0.82518  -0.80494  -0.74328
 Alpha  occ. eigenvalues --   -0.73094  -0.72736  -0.71950  -0.71364  -0.71206
 Alpha  occ. eigenvalues --   -0.69650  -0.69280  -0.66657  -0.66322  -0.64766
 Alpha  occ. eigenvalues --   -0.63364  -0.62897  -0.61881  -0.61117  -0.60510
 Alpha  occ. eigenvalues --   -0.59632  -0.58830  -0.58639  -0.58381  -0.57679
 Alpha  occ. eigenvalues --   -0.56957  -0.56581  -0.55563  -0.54958  -0.54162
 Alpha  occ. eigenvalues --   -0.53634  -0.53315  -0.53114  -0.52328  -0.51811
 Alpha  occ. eigenvalues --   -0.51392  -0.50878  -0.50396  -0.49858  -0.49357
 Alpha  occ. eigenvalues --   -0.48991  -0.48767  -0.46696  -0.41719  -0.41511
 Alpha  occ. eigenvalues --   -0.41153  -0.40751  -0.40569  -0.39597  -0.37757
 Alpha  occ. eigenvalues --   -0.37402  -0.37150  -0.36474  -0.36357  -0.35908
 Alpha virt. eigenvalues --   -0.13916  -0.13814  -0.10585  -0.09098  -0.08867
 Alpha virt. eigenvalues --   -0.08637  -0.07790  -0.03982  -0.03154  -0.02306
 Alpha virt. eigenvalues --   -0.01850  -0.00774  -0.00360   0.00288   0.00929

 Mulliken charges:
               1
     1  N   -0.755973
     2  H    0.456914
     3  H    0.408741
     4  H    0.419525
     5  C   -0.299414
     6  H    0.239522
     7  H    0.251148
     8  C    0.628512
     9  O   -0.529589
    10  N   -0.586778
    11  H    0.390216
    12  C   -0.246982
    13  H    0.219737
    14  H    0.204743
    15  C    0.584054
    16  O   -0.490823
    17  N   -0.575155
    18  H    0.364107
    19  C   -0.232007
    20  H    0.205838
    21  H    0.212703
    22  C    0.612863
    23  O   -0.586392
    24  N   -0.572181
    25  H    0.406337
    26  C   -0.232671
    27  H    0.188394
    28  H    0.192596
    29  C    0.596711
    30  O   -0.537913
    31  N   -0.525524
    32  H    0.349543
    33  C   -0.271805
    34  H    0.207887
    35  H    0.210478
    36  C    0.643266
    37  O   -0.547620
    38  N   -0.616412
    39  H    0.364730
    40  C   -0.206219
    41  H    0.218453
    42  H    0.244141
    43  C    0.576519
    44  O   -0.430272
    45  O   -0.585151
    46  H    0.431201
 Sum of Mulliken charges =   1.00000

 Dipole moment (field-independent basis, Debye):
    X=             -1.2415    Y=             -1.6612    Z=              9.5658  Tot=              9.7880
 Quadrupole moment (field-independent basis, Debye-Ang):
   XX=           -117.0713   YY=           -114.5330   ZZ=            -88.5269
   XY=            -10.0799   XZ=            -11.2944   YZ=             27.6169

 Normal termination of Gaussian 16 at Thu Jul  7 14:59:20 2022.
