 Gaussian 16, Revision C.01,
 Gaussian 16:  ES64L-G16RevC.01  3-Jul-2019

 -------------------------------------------------------------------
 # B3LYP/6-31G* guess=read geom=check nosymm integral(ultrafinegrid)
 -------------------------------------------------------------------

 ------------------------------------------------------
 Candidate Structure: Conf:684 Charge calc in gas phase
 ------------------------------------------------------
 Structure from the checkpoint file:  "conf-684.chk"
 Charge =  1 Multiplicity = 1

                          Input orientation:
 ---------------------------------------------------------------------
 Center     Atomic      Atomic             Coordinates (Angstroms)
 Number     Number       Type             X           Y           Z
 ---------------------------------------------------------------------
      1          7           0        1.746231    1.503609    0.625339
      2          1           0        1.223257    1.687756   -0.261716
      3          1           0        1.991069    0.474448    0.673476
      4          1           0        2.629597    2.021321    0.586111
      5          6           0        0.904421    1.963484    1.778067
      6          1           0        0.664670    3.016354    1.619795
      7          1           0        1.481915    1.847377    2.696378
      8          6           0       -0.336590    1.066486    1.874390
      9          8           0       -0.240517   -0.068959    2.332886
     10          7           0       -1.499390    1.599106    1.428639
     11          1           0       -1.449113    2.412411    0.827880
     12          6           0       -2.678825    0.749849    1.335302
     13          1           0       -3.498867    1.348662    0.930015
     14          1           0       -2.964269    0.417892    2.337884
     15          6           0       -2.407327   -0.441896    0.400470
     16          8           0       -1.775745   -0.292815   -0.644942
     17          7           0       -2.870345   -1.646429    0.810710
     18          1           0       -3.348940   -1.724500    1.697933
     19          6           0       -2.572360   -2.854155    0.051920
     20          1           0       -2.894657   -2.742248   -0.985521
     21          1           0       -3.127598   -3.687931    0.490116
     22          6           0       -1.078712   -3.216057    0.012395
     23          8           0       -0.641591   -3.921983   -0.895524
     24          7           0       -0.309741   -2.745559    1.026604
     25          1           0       -0.660517   -2.015159    1.636364
     26          6           0        1.129512   -2.974124    1.046399
     27          1           0        1.323924   -4.019943    0.792565
     28          1           0        1.502731   -2.768598    2.049554
     29          6           0        1.866652   -2.042836    0.075065
     30          8           0        2.524987   -1.066114    0.474891
     31          7           0        1.742707   -2.343953   -1.232117
     32          1           0        1.144513   -3.135451   -1.470615
     33          6           0        2.456097   -1.611564   -2.265783
     34          1           0        3.444319   -1.333580   -1.891401
     35          1           0        2.605521   -2.274255   -3.122761
     36          6           0        1.811813   -0.329062   -2.811184
     37          8           0        2.427671    0.353749   -3.613565
     38          7           0        0.551791   -0.007012   -2.366331
     39          1           0        0.024321   -0.658366   -1.796195
     40          6           0       -0.211157    0.993433   -3.072201
     41          1           0       -1.149763    0.582295   -3.457279
     42          1           0        0.385051    1.327559   -3.930534
     43          6           0       -0.548324    2.222072   -2.254813
     44          8           0       -0.067451    2.545139   -1.173390
     45          8           0       -1.451163    2.974898   -2.881356
     46          1           0       -1.585194    3.797345   -2.372602
 ---------------------------------------------------------------------

 SCF Done:  E(RB3LYP) =  -1324.90555837     A.U. after    1 cycles

 Alpha  occ. eigenvalues --  -19.33386 -19.29034 -19.27143 -19.25643 -19.24924
 Alpha  occ. eigenvalues --  -19.23297 -19.22229 -14.57177 -14.51333 -14.50286
 Alpha  occ. eigenvalues --  -14.48479 -14.47768 -14.47424 -10.46523 -10.44433
 Alpha  occ. eigenvalues --  -10.42864 -10.41698 -10.40673 -10.39922 -10.39721
 Alpha  occ. eigenvalues --  -10.37251 -10.35195 -10.35111 -10.34296 -10.34071
 Alpha  occ. eigenvalues --   -1.24870  -1.19296  -1.17393  -1.16503  -1.15774
 Alpha  occ. eigenvalues --   -1.15047  -1.14463  -1.12166  -1.07314  -1.06301
 Alpha  occ. eigenvalues --   -1.04976  -1.03646  -1.03207  -0.90773  -0.88652
 Alpha  occ. eigenvalues --   -0.87437  -0.85663  -0.83451  -0.81212  -0.75192
 Alpha  occ. eigenvalues --   -0.74551  -0.72869  -0.72138  -0.71970  -0.70857
 Alpha  occ. eigenvalues --   -0.69896  -0.69489  -0.67299  -0.66316  -0.65614
 Alpha  occ. eigenvalues --   -0.64176  -0.63903  -0.63431  -0.62253  -0.62133
 Alpha  occ. eigenvalues --   -0.60499  -0.60322  -0.59706  -0.59200  -0.57903
 Alpha  occ. eigenvalues --   -0.57052  -0.56421  -0.55780  -0.55456  -0.55157
 Alpha  occ. eigenvalues --   -0.54791  -0.54003  -0.53191  -0.53145  -0.52844
 Alpha  occ. eigenvalues --   -0.52369  -0.52113  -0.50862  -0.50418  -0.49710
 Alpha  occ. eigenvalues --   -0.49397  -0.48228  -0.46845  -0.46121  -0.42897
 Alpha  occ. eigenvalues --   -0.41897  -0.41270  -0.40672  -0.40134  -0.39917
 Alpha  occ. eigenvalues --   -0.39147  -0.37311  -0.36702  -0.36420  -0.35367
 Alpha virt. eigenvalues --   -0.14887  -0.12979  -0.11819  -0.11773  -0.09338
 Alpha virt. eigenvalues --   -0.08476  -0.07364  -0.05467  -0.04759  -0.03598
 Alpha virt. eigenvalues --   -0.01702  -0.01005   0.00344   0.00912   0.01047

 Mulliken charges:
               1
     1  N   -0.799493
     2  H    0.441423
     3  H    0.460837
     4  H    0.406613
     5  C   -0.258023
     6  H    0.214919
     7  H    0.241221
     8  C    0.610962
     9  O   -0.508603
    10  N   -0.552644
    11  H    0.361309
    12  C   -0.247486
    13  H    0.210812
    14  H    0.198801
    15  C    0.622220
    16  O   -0.541422
    17  N   -0.597805
    18  H    0.357565
    19  C   -0.222748
    20  H    0.219214
    21  H    0.211297
    22  C    0.610776
    23  O   -0.529681
    24  N   -0.599125
    25  H    0.381525
    26  C   -0.229329
    27  H    0.211021
    28  H    0.203286
    29  C    0.595502
    30  O   -0.569995
    31  N   -0.586941
    32  H    0.393083
    33  C   -0.235742
    34  H    0.219909
    35  H    0.217718
    36  C    0.582928
    37  O   -0.482678
    38  N   -0.624961
    39  H    0.373645
    40  C   -0.224773
    41  H    0.217510
    42  H    0.249435
    43  C    0.625097
    44  O   -0.533766
    45  O   -0.522845
    46  H    0.429432
 Sum of Mulliken charges =   1.00000

 Dipole moment (field-independent basis, Debye):
    X=             -3.6413    Y=              3.9346    Z=              3.4902  Tot=              6.3970
 Quadrupole moment (field-independent basis, Debye-Ang):
   XX=           -111.7813   YY=           -105.1634   ZZ=           -133.5356
   XY=              0.7669   XZ=             -0.1399   YZ=             -0.1868

 Normal termination of Gaussian 16 at Thu Jul  7 14:59:21 2022.
