 Gaussian 16, Revision C.01,
 Gaussian 16:  ES64L-G16RevC.01  3-Jul-2019

 -------------------------------------------------------------------
 # B3LYP/6-31G* guess=read geom=check nosymm integral(ultrafinegrid)
 -------------------------------------------------------------------

 ------------------------------------------------------
 Candidate Structure: Conf:584 Charge calc in gas phase
 ------------------------------------------------------
 Structure from the checkpoint file:  "conf-584.chk"
 Charge =  1 Multiplicity = 1

                          Input orientation:
 ---------------------------------------------------------------------
 Center     Atomic      Atomic             Coordinates (Angstroms)
 Number     Number       Type             X           Y           Z
 ---------------------------------------------------------------------
      1          7           0       -2.129227   -0.667445   -0.336678
      2          1           0       -2.021240   -1.104771   -1.266061
      3          1           0       -3.010814   -0.946596    0.108881
      4          1           0       -1.365880   -1.018285    0.291580
      5          6           0       -2.100419    0.826351   -0.465600
      6          1           0       -2.937729    1.125575   -1.100669
      7          1           0       -1.155715    1.099672   -0.927936
      8          6           0       -2.290938    1.376436    0.947143
      9          8           0       -3.204740    0.918083    1.634822
     10          7           0       -1.402686    2.307973    1.358022
     11          1           0       -0.557498    2.417227    0.808554
     12          6           0       -1.315223    2.696948    2.773605
     13          1           0       -2.327568    2.822072    3.162633
     14          1           0       -0.770030    3.637234    2.851407
     15          6           0       -0.530985    1.587227    3.491638
     16          8           0        0.681827    1.655885    3.666306
     17          7           0       -1.270698    0.473871    3.770286
     18          1           0       -2.225212    0.453033    3.422526
     19          6           0       -0.596940   -0.806734    3.956037
     20          1           0       -1.330645   -1.550573    4.269779
     21          1           0        0.165803   -0.706965    4.731133
     22          6           0        0.004621   -1.252818    2.614623
     23          8           0       -0.684244   -1.819003    1.752955
     24          7           0        1.310499   -0.945578    2.443621
     25          1           0        1.706424   -0.269003    3.089953
     26          6           0        2.038417   -1.273574    1.237573
     27          1           0        1.634306   -2.216643    0.852945
     28          1           0        3.089586   -1.436103    1.493953
     29          6           0        1.889838   -0.231887    0.119987
     30          8           0        0.806699    0.330695   -0.104338
     31          7           0        2.986329   -0.026229   -0.634768
     32          1           0        3.832774   -0.537966   -0.421407
     33          6           0        3.005622    0.852080   -1.804681
     34          1           0        2.362703    1.711458   -1.591951
     35          1           0        4.025054    1.203362   -1.964137
     36          6           0        2.553286    0.165635   -3.108371
     37          8           0        3.269342    0.115880   -4.094564
     38          7           0        1.296495   -0.365524   -3.073970
     39          1           0        0.713606   -0.259501   -2.252453
     40          6           0        0.754068   -1.026587   -4.238111
     41          1           0        1.355485   -1.899039   -4.525720
     42          1           0        0.757469   -0.364930   -5.114994
     43          6           0       -0.662164   -1.479649   -3.979124
     44          8           0       -1.281775   -1.279401   -2.943797
     45          8           0       -1.169014   -2.127917   -5.024094
     46          1           0       -2.084497   -2.397059   -4.816691
 ---------------------------------------------------------------------

 SCF Done:  E(RB3LYP) =  -1324.89670902     A.U. after    1 cycles

 Alpha  occ. eigenvalues --  -19.33506 -19.29134 -19.26300 -19.26233 -19.25125
 Alpha  occ. eigenvalues --  -19.23692 -19.22292 -14.57446 -14.50730 -14.50688
 Alpha  occ. eigenvalues --  -14.49361 -14.47673 -14.47248 -10.46993 -10.43647
 Alpha  occ. eigenvalues --  -10.43204 -10.42051 -10.40671 -10.39760 -10.38848
 Alpha  occ. eigenvalues --  -10.36520 -10.35571 -10.35152 -10.34960 -10.34593
 Alpha  occ. eigenvalues --   -1.25045  -1.18554  -1.17809  -1.16517  -1.16164
 Alpha  occ. eigenvalues --   -1.15287  -1.14376  -1.12144  -1.06610  -1.06308
 Alpha  occ. eigenvalues --   -1.05559  -1.03914  -1.03658  -0.90226  -0.89378
 Alpha  occ. eigenvalues --   -0.87656  -0.85640  -0.83520  -0.81081  -0.75588
 Alpha  occ. eigenvalues --   -0.73389  -0.73209  -0.72410  -0.71815  -0.70643
 Alpha  occ. eigenvalues --   -0.70405  -0.69580  -0.67135  -0.66284  -0.65351
 Alpha  occ. eigenvalues --   -0.64359  -0.63450  -0.62995  -0.61659  -0.61614
 Alpha  occ. eigenvalues --   -0.61050  -0.60521  -0.60067  -0.59263  -0.58875
 Alpha  occ. eigenvalues --   -0.57758  -0.57027  -0.55563  -0.55439  -0.55054
 Alpha  occ. eigenvalues --   -0.54189  -0.54113  -0.53553  -0.52754  -0.52271
 Alpha  occ. eigenvalues --   -0.52131  -0.51352  -0.51131  -0.50489  -0.50205
 Alpha  occ. eigenvalues --   -0.50027  -0.49258  -0.47514  -0.46266  -0.43036
 Alpha  occ. eigenvalues --   -0.41878  -0.41470  -0.40739  -0.40480  -0.40003
 Alpha  occ. eigenvalues --   -0.38409  -0.37121  -0.36694  -0.36102  -0.35431
 Alpha virt. eigenvalues --   -0.13728  -0.13214  -0.12842  -0.11618  -0.09631
 Alpha virt. eigenvalues --   -0.08745  -0.06532  -0.04843  -0.04633  -0.04037
 Alpha virt. eigenvalues --   -0.01301  -0.01127  -0.00324   0.00792   0.00942

 Mulliken charges:
               1
     1  N   -0.781780
     2  H    0.437673
     3  H    0.408029
     4  H    0.452877
     5  C   -0.264644
     6  H    0.231780
     7  H    0.231092
     8  C    0.622181
     9  O   -0.522596
    10  N   -0.569264
    11  H    0.364920
    12  C   -0.246951
    13  H    0.217062
    14  H    0.211700
    15  C    0.588484
    16  O   -0.510599
    17  N   -0.573148
    18  H    0.375022
    19  C   -0.228792
    20  H    0.205885
    21  H    0.203404
    22  C    0.598733
    23  O   -0.565535
    24  N   -0.547162
    25  H    0.379691
    26  C   -0.249692
    27  H    0.221687
    28  H    0.187194
    29  C    0.632265
    30  O   -0.579521
    31  N   -0.567853
    32  H    0.361314
    33  C   -0.248848
    34  H    0.198751
    35  H    0.213502
    36  C    0.602842
    37  O   -0.476441
    38  N   -0.631006
    39  H    0.357026
    40  C   -0.176941
    41  H    0.226808
    42  H    0.230566
    43  C    0.586863
    44  O   -0.518016
    45  O   -0.522964
    46  H    0.434399
 Sum of Mulliken charges =   1.00000

 Dipole moment (field-independent basis, Debye):
    X=             -2.6471    Y=             -1.9117    Z=             -0.9717  Tot=              3.4067
 Quadrupole moment (field-independent basis, Debye-Ang):
   XX=           -114.1737   YY=           -124.2934   ZZ=           -115.7598
   XY=             -1.5947   XZ=             17.5818   YZ=              7.8426

 Normal termination of Gaussian 16 at Thu Jul  7 14:59:19 2022.
