 Gaussian 16, Revision C.01,
 Gaussian 16:  ES64L-G16RevC.01  3-Jul-2019

 -------------------------------------------------------------------
 # B3LYP/6-31G* guess=read geom=check nosymm integral(ultrafinegrid)
 -------------------------------------------------------------------

 ------------------------------------------------------
 Candidate Structure: Conf:961 Charge calc in gas phase
 ------------------------------------------------------
 Structure from the checkpoint file:  "conf-961.chk"
 Charge =  1 Multiplicity = 1

                          Input orientation:
 ---------------------------------------------------------------------
 Center     Atomic      Atomic             Coordinates (Angstroms)
 Number     Number       Type             X           Y           Z
 ---------------------------------------------------------------------
      1          7           0       -0.307622    2.092980   -0.805478
      2          1           0        0.449212    2.396273   -1.439304
      3          1           0        0.160421    1.456787   -0.113992
      4          1           0       -0.656150    2.887096   -0.261497
      5          6           0       -1.428318    1.380600   -1.482557
      6          1           0       -0.976885    0.606101   -2.106982
      7          1           0       -1.973953    2.086031   -2.116034
      8          6           0       -2.322141    0.814015   -0.372044
      9          8           0       -2.247039    1.269695    0.763030
     10          7           0       -3.170108   -0.188729   -0.728422
     11          1           0       -2.978216   -0.673175   -1.596859
     12          6           0       -3.747276   -0.998581    0.332739
     13          1           0       -4.546238   -1.616699   -0.088918
     14          1           0       -4.184422   -0.338120    1.084724
     15          6           0       -2.658468   -1.903031    0.941642
     16          8           0       -1.656565   -2.201369    0.299228
     17          7           0       -2.844792   -2.331493    2.220117
     18          1           0       -3.717107   -2.138389    2.694847
     19          6           0       -1.918458   -3.304342    2.798862
     20          1           0       -1.907406   -4.233904    2.223791
     21          1           0       -2.250491   -3.526253    3.817319
     22          6           0       -0.465964   -2.804854    2.831701
     23          8           0        0.471432   -3.560065    2.599546
     24          7           0       -0.289343   -1.494902    3.179557
     25          1           0       -1.094681   -0.881325    3.149116
     26          6           0        1.024476   -0.875537    3.025388
     27          1           0        1.780351   -1.571242    3.395054
     28          1           0        1.058716    0.049183    3.602235
     29          6           0        1.212567   -0.543578    1.543801
     30          8           0        0.879631    0.562732    1.105934
     31          7           0        1.676239   -1.551670    0.758930
     32          1           0        1.696493   -2.464070    1.214393
     33          6           0        1.369035   -1.570045   -0.672533
     34          1           0        1.810202   -2.481658   -1.089497
     35          1           0        0.288503   -1.621687   -0.829032
     36          6           0        1.893778   -0.389822   -1.490648
     37          8           0        1.228475    0.062748   -2.423057
     38          7           0        3.138572    0.063906   -1.200208
     39          1           0        3.618119   -0.310770   -0.392608
     40          6           0        3.819378    1.020184   -2.045355
     41          1           0        3.628546    0.773321   -3.097354
     42          1           0        4.896502    0.949689   -1.881610
     43          6           0        3.387452    2.473180   -1.864459
     44          8           0        2.313481    2.870455   -1.453598
     45          8           0        4.359493    3.294811   -2.276996
     46          1           0        4.031497    4.212906   -2.212354
 ---------------------------------------------------------------------

 SCF Done:  E(RB3LYP) =  -1324.90042143     A.U. after    2 cycles

 Alpha  occ. eigenvalues --  -19.31642 -19.26726 -19.25221 -19.25189 -19.24258
 Alpha  occ. eigenvalues --  -19.23511 -19.22682 -14.55283 -14.49111 -14.49077
 Alpha  occ. eigenvalues --  -14.48353 -14.48187 -14.47479 -10.44788 -10.42475
 Alpha  occ. eigenvalues --  -10.41483 -10.41326 -10.40924 -10.40074 -10.37519
 Alpha  occ. eigenvalues --  -10.35512 -10.35494 -10.34361 -10.34117 -10.34093
 Alpha  occ. eigenvalues --   -1.22926  -1.17658  -1.16713  -1.16206  -1.15344
 Alpha  occ. eigenvalues --   -1.14458  -1.13833  -1.10354  -1.05426  -1.04991
 Alpha  occ. eigenvalues --   -1.04892  -1.03982  -1.02961  -0.89076  -0.88450
 Alpha  occ. eigenvalues --   -0.86636  -0.84689  -0.82395  -0.80454  -0.74632
 Alpha  occ. eigenvalues --   -0.72596  -0.71390  -0.70742  -0.70566  -0.70196
 Alpha  occ. eigenvalues --   -0.69604  -0.68831  -0.66113  -0.64984  -0.64110
 Alpha  occ. eigenvalues --   -0.62905  -0.62391  -0.61978  -0.61516  -0.60253
 Alpha  occ. eigenvalues --   -0.60079  -0.59723  -0.58251  -0.57827  -0.57396
 Alpha  occ. eigenvalues --   -0.56415  -0.56082  -0.55548  -0.55278  -0.54190
 Alpha  occ. eigenvalues --   -0.53702  -0.52992  -0.52304  -0.52194  -0.52061
 Alpha  occ. eigenvalues --   -0.51717  -0.50889  -0.50501  -0.49922  -0.49297
 Alpha  occ. eigenvalues --   -0.49225  -0.47681  -0.47168  -0.44155  -0.41217
 Alpha  occ. eigenvalues --   -0.40211  -0.39870  -0.39412  -0.39206  -0.38762
 Alpha  occ. eigenvalues --   -0.37774  -0.37590  -0.37065  -0.36332  -0.35717
 Alpha virt. eigenvalues --   -0.11725  -0.11600  -0.11546  -0.10148  -0.09732
 Alpha virt. eigenvalues --   -0.08785  -0.05412  -0.04051  -0.03597  -0.03191
 Alpha virt. eigenvalues --   -0.02407  -0.00059   0.00348   0.00775   0.01693

 Mulliken charges:
               1
     1  N   -0.771317
     2  H    0.439090
     3  H    0.461301
     4  H    0.401072
     5  C   -0.291258
     6  H    0.251394
     7  H    0.228972
     8  C    0.620440
     9  O   -0.509427
    10  N   -0.561601
    11  H    0.353628
    12  C   -0.261211
    13  H    0.210798
    14  H    0.210129
    15  C    0.619791
    16  O   -0.512741
    17  N   -0.613626
    18  H    0.353599
    19  C   -0.219945
    20  H    0.216618
    21  H    0.201723
    22  C    0.617713
    23  O   -0.517379
    24  N   -0.568937
    25  H    0.351813
    26  C   -0.231409
    27  H    0.208596
    28  H    0.198868
    29  C    0.598542
    30  O   -0.542660
    31  N   -0.591105
    32  H    0.385790
    33  C   -0.249133
    34  H    0.205370
    35  H    0.219872
    36  C    0.607986
    37  O   -0.547505
    38  N   -0.564551
    39  H    0.356583
    40  C   -0.227600
    41  H    0.233372
    42  H    0.211077
    43  C    0.607242
    44  O   -0.491652
    45  O   -0.530401
    46  H    0.432078
 Sum of Mulliken charges =   1.00000

 Dipole moment (field-independent basis, Debye):
    X=             -1.3613    Y=              1.9774    Z=             -0.0377  Tot=              2.4010
 Quadrupole moment (field-independent basis, Debye-Ang):
   XX=            -81.8748   YY=           -115.2100   ZZ=           -116.7920
   XY=             21.6370   XZ=            -15.1757   YZ=            -18.8867

 Normal termination of Gaussian 16 at Thu Jul  7 14:59:25 2022.
