 Gaussian 16, Revision C.01,
 Gaussian 16:  ES64L-G16RevC.01  3-Jul-2019

 -------------------------------------------------------------------
 # B3LYP/6-31G* guess=read geom=check nosymm integral(ultrafinegrid)
 -------------------------------------------------------------------

 -----------------------------------------------------
 Candidate Structure: Conf:95 Charge calc in gas phase
 -----------------------------------------------------
 Structure from the checkpoint file:  "conf-95.chk"
 Charge =  1 Multiplicity = 1

                          Input orientation:
 ---------------------------------------------------------------------
 Center     Atomic      Atomic             Coordinates (Angstroms)
 Number     Number       Type             X           Y           Z
 ---------------------------------------------------------------------
      1          7           0       -6.926688    6.474435   -0.172663
      2          1           0       -7.809319    6.456838   -0.690836
      3          1           0       -6.121040    6.770718   -0.822589
      4          1           0       -7.019354    7.139376    0.600056
      5          6           0       -6.450989    5.113204    0.255800
      6          1           0       -7.179407    4.357085   -0.042049
      7          1           0       -6.330630    5.088903    1.340214
      8          6           0       -5.097444    4.952770   -0.490282
      9          8           0       -4.743235    5.901259   -1.208355
     10          7           0       -4.439995    3.824046   -0.298136
     11          1           0       -4.769122    3.060742    0.305092
     12          6           0       -3.161981    3.495695   -0.912488
     13          1           0       -2.394914    4.223099   -0.624337
     14          1           0       -3.242832    3.507422   -2.005071
     15          6           0       -2.816709    2.084377   -0.392164
     16          8           0       -3.592162    1.519275    0.384783
     17          7           0       -1.668583    1.567503   -0.837332
     18          1           0       -1.046338    2.052738   -1.484523
     19          6           0       -1.183467    0.253498   -0.463586
     20          1           0       -1.911398   -0.521681   -0.731763
     21          1           0       -1.023191    0.189502    0.619661
     22          6           0        0.139619    0.048378   -1.221392
     23          8           0        0.579871    0.934212   -1.955679
     24          7           0        0.743679   -1.134177   -1.020833
     25          1           0        0.357558   -1.854659   -0.416567
     26          6           0        1.990541   -1.496647   -1.662899
     27          1           0        2.835035   -0.947584   -1.224707
     28          1           0        1.952246   -1.256968   -2.730989
     29          6           0        2.216295   -2.989187   -1.422727
     30          8           0        1.534584   -3.606544   -0.599358
     31          7           0        3.195042   -3.563069   -2.159230
     32          1           0        3.812790   -2.960772   -2.689241
     33          6           0        3.671662   -4.919599   -1.878050
     34          1           0        2.802019   -5.544157   -1.660521
     35          1           0        4.186311   -5.301840   -2.759897
     36          6           0        4.666137   -4.891151   -0.706644
     37          8           0        5.874370   -4.915649   -0.881527
     38          7           0        4.071676   -4.781126    0.525515
     39          1           0        3.078487   -4.565823    0.526678
     40          6           0        4.854502   -4.309691    1.641631
     41          1           0        5.864248   -4.721298    1.563537
     42          1           0        4.428614   -4.653962    2.589704
     43          6           0        4.954319   -2.786466    1.665305
     44          8           0        4.443061   -2.032963    0.864576
     45          8           0        5.691828   -2.369779    2.713065
     46          1           0        5.732634   -1.395862    2.665884
 ---------------------------------------------------------------------

 SCF Done:  E(RB3LYP) =  -1324.86671265     A.U. after    2 cycles

 Alpha  occ. eigenvalues --  -19.28909 -19.26115 -19.23120 -19.20780 -19.20629
 Alpha  occ. eigenvalues --  -19.20603 -19.17493 -14.62330 -14.51257 -14.46526
 Alpha  occ. eigenvalues --  -14.44809 -14.44571 -14.41551 -10.45730 -10.42810
 Alpha  occ. eigenvalues --  -10.40373 -10.38665 -10.37949 -10.37669 -10.35757
 Alpha  occ. eigenvalues --  -10.34633 -10.32581 -10.31096 -10.29681 -10.29391
 Alpha  occ. eigenvalues --   -1.21377  -1.17099  -1.15967  -1.15061  -1.12861
 Alpha  occ. eigenvalues --   -1.12130  -1.09419  -1.08095  -1.07761  -1.03026
 Alpha  occ. eigenvalues --   -1.01059  -1.00666  -0.98175  -0.92257  -0.87028
 Alpha  occ. eigenvalues --   -0.84514  -0.82312  -0.80083  -0.77022  -0.76243
 Alpha  occ. eigenvalues --   -0.76112  -0.73748  -0.70036  -0.68891  -0.68322
 Alpha  occ. eigenvalues --   -0.67512  -0.66394  -0.65109  -0.63828  -0.63038
 Alpha  occ. eigenvalues --   -0.62743  -0.60619  -0.59631  -0.59595  -0.58190
 Alpha  occ. eigenvalues --   -0.57092  -0.56933  -0.56498  -0.55968  -0.55476
 Alpha  occ. eigenvalues --   -0.54687  -0.54278  -0.54062  -0.53083  -0.52686
 Alpha  occ. eigenvalues --   -0.52156  -0.51766  -0.50478  -0.48983  -0.48382
 Alpha  occ. eigenvalues --   -0.47604  -0.47230  -0.46619  -0.46442  -0.45940
 Alpha  occ. eigenvalues --   -0.44455  -0.44002  -0.43875  -0.43175  -0.41182
 Alpha  occ. eigenvalues --   -0.38417  -0.37781  -0.36476  -0.35826  -0.35202
 Alpha  occ. eigenvalues --   -0.34674  -0.34262  -0.33780  -0.31898  -0.30282
 Alpha virt. eigenvalues --   -0.13943  -0.13535  -0.08665  -0.07947  -0.06721
 Alpha virt. eigenvalues --   -0.06477  -0.05800  -0.05324  -0.03760  -0.02994
 Alpha virt. eigenvalues --   -0.02087  -0.00102   0.00740   0.01072   0.01270

 Mulliken charges:
               1
     1  N   -0.750636
     2  H    0.424130
     3  H    0.441420
     4  H    0.424075
     5  C   -0.276965
     6  H    0.250065
     7  H    0.249997
     8  C    0.640502
     9  O   -0.523478
    10  N   -0.605345
    11  H    0.381745
    12  C   -0.211849
    13  H    0.216487
    14  H    0.216325
    15  C    0.620540
    16  O   -0.533977
    17  N   -0.622143
    18  H    0.370071
    19  C   -0.200308
    20  H    0.202137
    21  H    0.201907
    22  C    0.613883
    23  O   -0.530825
    24  N   -0.623368
    25  H    0.362799
    26  C   -0.199953
    27  H    0.222428
    28  H    0.195616
    29  C    0.624394
    30  O   -0.547847
    31  N   -0.584387
    32  H    0.352067
    33  C   -0.244244
    34  H    0.200024
    35  H    0.194007
    36  C    0.588959
    37  O   -0.492222
    38  N   -0.572521
    39  H    0.362530
    40  C   -0.239666
    41  H    0.231464
    42  H    0.196237
    43  C    0.584518
    44  O   -0.475686
    45  O   -0.550526
    46  H    0.417619
 Sum of Mulliken charges =   1.00000

 Dipole moment (field-independent basis, Debye):
    X=            -24.4744    Y=             20.7375    Z=              0.2323  Tot=             32.0795
 Quadrupole moment (field-independent basis, Debye-Ang):
   XX=             42.1356   YY=              0.1279   ZZ=           -129.4692
   XY=           -159.7721   XZ=              4.0139   YZ=              8.6632

 Normal termination of Gaussian 16 at Thu Jul  7 14:59:23 2022.
