 Gaussian 16, Revision C.01,
 Gaussian 16:  ES64L-G16RevC.01  3-Jul-2019

 -------------------------------------------------------------------
 # B3LYP/6-31G* guess=read geom=check nosymm integral(ultrafinegrid)
 -------------------------------------------------------------------

 -----------------------------------------------------
 Candidate Structure: Conf:34 Charge calc in gas phase
 -----------------------------------------------------
 Structure from the checkpoint file:  "conf-34.chk"
 Charge =  1 Multiplicity = 1

                          Input orientation:
 ---------------------------------------------------------------------
 Center     Atomic      Atomic             Coordinates (Angstroms)
 Number     Number       Type             X           Y           Z
 ---------------------------------------------------------------------
      1          7           0       -1.199723    1.776074   -0.563403
      2          1           0       -0.506709    1.907083    0.200017
      3          1           0       -1.454187    2.651341   -1.027641
      4          1           0       -0.751899    1.161222   -1.276581
      5          6           0       -2.411938    1.083586   -0.017776
      6          1           0       -3.031571    1.817856    0.503342
      7          1           0       -2.053225    0.344842    0.700903
      8          6           0       -3.137210    0.476384   -1.222597
      9          8           0       -3.090792    1.071197   -2.297821
     10          7           0       -3.735352   -0.718374   -1.028933
     11          1           0       -3.598161   -1.197715   -0.147554
     12          6           0       -4.115413   -1.556131   -2.174841
     13          1           0       -4.572974   -0.918544   -2.933565
     14          1           0       -4.830639   -2.308776   -1.844312
     15          6           0       -2.838935   -2.259946   -2.671165
     16          8           0       -2.533798   -3.381586   -2.298997
     17          7           0       -2.045947   -1.480094   -3.474277
     18          1           0       -2.310958   -0.509564   -3.602748
     19          6           0       -0.680311   -1.855661   -3.740305
     20          1           0       -0.408081   -1.580778   -4.766984
     21          1           0       -0.611540   -2.943995   -3.654096
     22          6           0        0.325396   -1.183704   -2.791997
     23          8           0        0.034824   -0.180747   -2.113944
     24          7           0        1.560593   -1.712878   -2.775643
     25          1           0        1.720559   -2.571879   -3.286979
     26          6           0        2.727723   -1.066022   -2.168301
     27          1           0        2.681275    0.005241   -2.395925
     28          1           0        3.623816   -1.477433   -2.632413
     29          6           0        2.909604   -1.228820   -0.645449
     30          8           0        3.994550   -1.532705   -0.177478
     31          7           0        1.801500   -0.947458    0.103376
     32          1           0        0.986063   -0.576299   -0.370711
     33          6           0        1.866407   -0.859725    1.545305
     34          1           0        1.237169   -1.628081    2.018815
     35          1           0        2.901109   -1.051826    1.839969
     36          6           0        1.371207    0.502445    2.032566
     37          8           0        0.423161    1.083727    1.471384
     38          7           0        1.974341    0.998481    3.118178
     39          1           0        2.757354    0.519618    3.555824
     40          6           0        1.573779    2.234985    3.761883
     41          1           0        0.521125    2.203343    4.065652
     42          1           0        1.689183    3.092709    3.088653
     43          6           0        2.453965    2.431262    4.985780
     44          8           0        3.329106    1.661028    5.312511
     45          8           0        2.132830    3.555195    5.637674
     46          1           0        2.727988    3.633120    6.408699
 ---------------------------------------------------------------------

 SCF Done:  E(RB3LYP) =  -1324.88951476     A.U. after    3 cycles

 Alpha  occ. eigenvalues --  -19.30839 -19.26862 -19.26339 -19.25714 -19.25569
 Alpha  occ. eigenvalues --  -19.22762 -19.21806 -14.57926 -14.50886 -14.50312
 Alpha  occ. eigenvalues --  -14.49353 -14.47247 -14.46435 -10.43945 -10.43872
 Alpha  occ. eigenvalues --  -10.43253 -10.42441 -10.40093 -10.39903 -10.39417
 Alpha  occ. eigenvalues --  -10.35642 -10.35245 -10.34925 -10.34794 -10.34387
 Alpha  occ. eigenvalues --   -1.22040  -1.18823  -1.17978  -1.16972  -1.14756
 Alpha  occ. eigenvalues --   -1.13840  -1.13348  -1.12709  -1.06742  -1.06045
 Alpha  occ. eigenvalues --   -1.05538  -1.03677  -1.02878  -0.90268  -0.89000
 Alpha  occ. eigenvalues --   -0.87739  -0.85138  -0.82931  -0.80807  -0.74520
 Alpha  occ. eigenvalues --   -0.73642  -0.73277  -0.73198  -0.71510  -0.71218
 Alpha  occ. eigenvalues --   -0.69648  -0.69183  -0.66705  -0.66168  -0.65385
 Alpha  occ. eigenvalues --   -0.63242  -0.62762  -0.61831  -0.61224  -0.60701
 Alpha  occ. eigenvalues --   -0.60327  -0.59967  -0.58854  -0.58565  -0.58039
 Alpha  occ. eigenvalues --   -0.57420  -0.57275  -0.56832  -0.55452  -0.54794
 Alpha  occ. eigenvalues --   -0.54679  -0.53645  -0.52758  -0.52372  -0.52166
 Alpha  occ. eigenvalues --   -0.51501  -0.51136  -0.50525  -0.50029  -0.49556
 Alpha  occ. eigenvalues --   -0.49112  -0.48723  -0.46985  -0.43084  -0.41367
 Alpha  occ. eigenvalues --   -0.41267  -0.40735  -0.40467  -0.40325  -0.39273
 Alpha  occ. eigenvalues --   -0.39130  -0.37209  -0.35991  -0.35742  -0.35045
 Alpha virt. eigenvalues --   -0.13679  -0.12053  -0.11302  -0.09969  -0.09030
 Alpha virt. eigenvalues --   -0.08184  -0.07641  -0.05320  -0.04013  -0.02716
 Alpha virt. eigenvalues --   -0.02314  -0.01111  -0.00536  -0.00351   0.00722

 Mulliken charges:
               1
     1  N   -0.766277
     2  H    0.439175
     3  H    0.408741
     4  H    0.451257
     5  C   -0.271704
     6  H    0.240482
     7  H    0.221020
     8  C    0.626715
     9  O   -0.518585
    10  N   -0.575111
    11  H    0.356336
    12  C   -0.245229
    13  H    0.215281
    14  H    0.213190
    15  C    0.581313
    16  O   -0.482989
    17  N   -0.574826
    18  H    0.366659
    19  C   -0.252707
    20  H    0.210804
    21  H    0.223065
    22  C    0.629058
    23  O   -0.586009
    24  N   -0.565521
    25  H    0.366225
    26  C   -0.248332
    27  H    0.200729
    28  H    0.212425
    29  C    0.593802
    30  O   -0.478072
    31  N   -0.602392
    32  H    0.349913
    33  C   -0.227524
    34  H    0.198028
    35  H    0.217938
    36  C    0.635927
    37  O   -0.603806
    38  N   -0.594185
    39  H    0.379966
    40  C   -0.189985
    41  H    0.211525
    42  H    0.211505
    43  C    0.578167
    44  O   -0.442602
    45  O   -0.551168
    46  H    0.437779
 Sum of Mulliken charges =   1.00000

 Dipole moment (field-independent basis, Debye):
    X=             -3.4558    Y=              4.7729    Z=             -0.1048  Tot=              5.8936
 Quadrupole moment (field-independent basis, Debye-Ang):
   XX=           -124.2613   YY=           -124.1234   ZZ=            -85.9623
   XY=              4.9740   XZ=              2.6288   YZ=             26.1996

 Normal termination of Gaussian 16 at Thu Jul  7 14:59:34 2022.
