 Gaussian 16, Revision C.01,
 Gaussian 16:  ES64L-G16RevC.01  3-Jul-2019

 -------------------------------------------------------------------
 # B3LYP/6-31G* guess=read geom=check nosymm integral(ultrafinegrid)
 -------------------------------------------------------------------

 ------------------------------------------------------
 Candidate Structure: Conf:879 Charge calc in gas phase
 ------------------------------------------------------
 Structure from the checkpoint file:  "conf-879.chk"
 Charge =  1 Multiplicity = 1

                          Input orientation:
 ---------------------------------------------------------------------
 Center     Atomic      Atomic             Coordinates (Angstroms)
 Number     Number       Type             X           Y           Z
 ---------------------------------------------------------------------
      1          7           0       -3.389904    1.509749   -1.267399
      2          1           0       -2.762587    0.744745   -1.648054
      3          1           0       -2.939926    2.427307   -1.459771
      4          1           0       -4.316996    1.455459   -1.694358
      5          6           0       -3.408482    1.384914    0.223133
      6          1           0       -3.301269    0.331650    0.485943
      7          1           0       -4.351404    1.777713    0.612363
      8          6           0       -2.222992    2.243648    0.703973
      9          8           0       -1.762589    3.085244   -0.066681
     10          7           0       -1.796733    2.019585    1.959530
     11          1           0       -2.122493    1.195951    2.453087
     12          6           0       -0.569683    2.628622    2.473865
     13          1           0       -0.731862    2.953498    3.505586
     14          1           0       -0.341956    3.497598    1.856138
     15          6           0        0.523326    1.553102    2.461665
     16          8           0        0.335128    0.505566    3.092378
     17          7           0        1.621124    1.823836    1.732121
     18          1           0        1.610209    2.625308    1.110944
     19          6           0        2.649270    0.837387    1.446929
     20          1           0        2.387020   -0.087602    1.961960
     21          1           0        3.622146    1.184575    1.817074
     22          6           0        2.737686    0.629235   -0.069757
     23          8           0        2.306227    1.481699   -0.850888
     24          7           0        3.363089   -0.503352   -0.470848
     25          1           0        3.424885   -1.267312    0.190656
     26          6           0        3.497186   -0.839424   -1.887319
     27          1           0        4.270314   -1.600822   -1.995241
     28          1           0        3.797371    0.062238   -2.426593
     29          6           0        2.189250   -1.414450   -2.449607
     30          8           0        2.008037   -2.625133   -2.577247
     31          7           0        1.239261   -0.486624   -2.758108
     32          1           0        1.393957    0.464693   -2.428609
     33          6           0       -0.091079   -0.898695   -3.189622
     34          1           0       -0.579603   -0.063516   -3.693724
     35          1           0        0.015626   -1.728901   -3.893478
     36          6           0       -0.940952   -1.323151   -1.987368
     37          8           0       -1.837285   -0.599950   -1.505778
     38          7           0       -0.612288   -2.500227   -1.430224
     39          1           0        0.241186   -2.940768   -1.782479
     40          6           0       -1.066967   -2.826902   -0.086596
     41          1           0       -0.875051   -3.887164    0.101428
     42          1           0       -2.138110   -2.647207    0.003090
     43          6           0       -0.284804   -1.992790    0.932283
     44          8           0        0.901637   -1.761621    0.804162
     45          8           0       -1.036735   -1.544716    1.940549
     46          1           0       -0.458510   -0.975961    2.515908
 ---------------------------------------------------------------------

 SCF Done:  E(RB3LYP) =  -1324.90499854     A.U. after    1 cycles

 Alpha  occ. eigenvalues --  -19.29848 -19.27390 -19.26451 -19.24923 -19.24450
 Alpha  occ. eigenvalues --  -19.23780 -19.23024 -14.58555 -14.51283 -14.48962
 Alpha  occ. eigenvalues --  -14.48427 -14.47808 -14.47386 -10.44709 -10.43272
 Alpha  occ. eigenvalues --  -10.42393 -10.41933 -10.40700 -10.40347 -10.39951
 Alpha  occ. eigenvalues --  -10.35925 -10.34987 -10.34863 -10.34113 -10.33574
 Alpha  occ. eigenvalues --   -1.21173  -1.19751  -1.17365  -1.16351  -1.15465
 Alpha  occ. eigenvalues --   -1.14564  -1.13178  -1.12278  -1.07353  -1.05101
 Alpha  occ. eigenvalues --   -1.04936  -1.03973  -1.03180  -0.90741  -0.88625
 Alpha  occ. eigenvalues --   -0.87099  -0.85043  -0.82933  -0.80396  -0.74599
 Alpha  occ. eigenvalues --   -0.73919  -0.73706  -0.72791  -0.71360  -0.70463
 Alpha  occ. eigenvalues --   -0.69177  -0.68821  -0.67435  -0.65511  -0.65049
 Alpha  occ. eigenvalues --   -0.63554  -0.62827  -0.61818  -0.61365  -0.60773
 Alpha  occ. eigenvalues --   -0.60194  -0.59674  -0.59498  -0.58688  -0.58371
 Alpha  occ. eigenvalues --   -0.57949  -0.56565  -0.56335  -0.55261  -0.54320
 Alpha  occ. eigenvalues --   -0.53785  -0.53371  -0.52981  -0.52572  -0.51755
 Alpha  occ. eigenvalues --   -0.51561  -0.51240  -0.50397  -0.49983  -0.49590
 Alpha  occ. eigenvalues --   -0.49315  -0.48431  -0.47728  -0.42660  -0.42034
 Alpha  occ. eigenvalues --   -0.41404  -0.41300  -0.39838  -0.39303  -0.39027
 Alpha  occ. eigenvalues --   -0.38225  -0.37932  -0.37041  -0.36631  -0.35363
 Alpha virt. eigenvalues --   -0.13488  -0.12327  -0.10811  -0.10398  -0.10055
 Alpha virt. eigenvalues --   -0.09011  -0.08464  -0.05497  -0.03325  -0.02185
 Alpha virt. eigenvalues --   -0.01530  -0.00888  -0.00418  -0.00134   0.01186

 Mulliken charges:
               1
     1  N   -0.755260
     2  H    0.440072
     3  H    0.418042
     4  H    0.406872
     5  C   -0.277785
     6  H    0.242364
     7  H    0.239739
     8  C    0.634831
     9  O   -0.508202
    10  N   -0.581982
    11  H    0.361281
    12  C   -0.240065
    13  H    0.219241
    14  H    0.212631
    15  C    0.621209
    16  O   -0.554072
    17  N   -0.561623
    18  H    0.364088
    19  C   -0.245095
    20  H    0.226931
    21  H    0.212432
    22  C    0.621679
    23  O   -0.542237
    24  N   -0.569173
    25  H    0.363838
    26  C   -0.239210
    27  H    0.207059
    28  H    0.206426
    29  C    0.606905
    30  O   -0.519594
    31  N   -0.581256
    32  H    0.377953
    33  C   -0.234268
    34  H    0.178711
    35  H    0.218479
    36  C    0.619399
    37  O   -0.595768
    38  N   -0.554679
    39  H    0.398574
    40  C   -0.231847
    41  H    0.218221
    42  H    0.199625
    43  C    0.587950
    44  O   -0.479822
    45  O   -0.597166
    46  H    0.464550
 Sum of Mulliken charges =   1.00000

 Dipole moment (field-independent basis, Debye):
    X=             -7.4196    Y=              3.6005    Z=             -1.5082  Tot=              8.3838
 Quadrupole moment (field-independent basis, Debye-Ang):
   XX=            -80.2381   YY=           -127.3123   ZZ=           -122.3867
   XY=            -12.7506   XZ=              9.8399   YZ=              4.8674

 Normal termination of Gaussian 16 at Thu Jul  7 15:02:50 2022.
