 Gaussian 16, Revision C.01,
 Gaussian 16:  ES64L-G16RevC.01  3-Jul-2019

 -------------------------------------------------------------------
 # B3LYP/6-31G* guess=read geom=check nosymm integral(ultrafinegrid)
 -------------------------------------------------------------------

 ------------------------------------------------------
 Candidate Structure: Conf:607 Charge calc in gas phase
 ------------------------------------------------------
 Structure from the checkpoint file:  "conf-607.chk"
 Charge =  1 Multiplicity = 1

                          Input orientation:
 ---------------------------------------------------------------------
 Center     Atomic      Atomic             Coordinates (Angstroms)
 Number     Number       Type             X           Y           Z
 ---------------------------------------------------------------------
      1          7           0       -7.973055    4.533104   -1.959919
      2          1           0       -8.404252    5.307525   -1.447785
      3          1           0       -8.700376    4.062712   -2.505543
      4          1           0       -7.202479    4.904134   -2.612816
      5          6           0       -7.175919    3.602072   -1.087649
      6          1           0       -7.566550    2.587018   -1.177755
      7          1           0       -7.244894    3.922590   -0.046698
      8          6           0       -5.732220    3.729310   -1.647710
      9          8           0       -5.572823    4.504394   -2.603637
     10          7           0       -4.797809    3.003646   -1.060620
     11          1           0       -4.971824    2.370924   -0.271041
     12          6           0       -3.395058    2.992466   -1.448791
     13          1           0       -2.958884    3.993261   -1.355110
     14          1           0       -3.284062    2.673883   -2.491248
     15          6           0       -2.717937    1.996094   -0.484908
     16          8           0       -3.396734    1.427284    0.374627
     17          7           0       -1.404866    1.819217   -0.660176
     18          1           0       -0.864842    2.298196   -1.380740
     19          6           0       -0.607739    0.918923    0.149386
     20          1           0       -0.992919   -0.106104    0.086648
     21          1           0       -0.637471    1.213150    1.205735
     22          6           0        0.827581    0.996696   -0.395255
     23          8           0        1.100048    1.739665   -1.338521
     24          7           0        1.727050    0.212245    0.224220
     25          1           0        1.487600   -0.401892    0.998347
     26          6           0        3.118208    0.166301   -0.171106
     27          1           0        3.599409    1.142631   -0.027744
     28          1           0        3.209576   -0.081409   -1.236389
     29          6           0        3.809366   -0.896043    0.690454
     30          8           0        3.186197   -1.496470    1.571492
     31          7           0        5.115636   -1.106390    0.428940
     32          1           0        5.540922   -0.644219   -0.363951
     33          6           0        5.933874   -2.051117    1.191443
     34          1           0        6.980455   -1.766195    1.083585
     35          1           0        5.646987   -1.973084    2.244769
     36          6           0        5.808034   -3.511928    0.716404
     37          8           0        6.754293   -4.103203    0.218016
     38          7           0        4.567493   -4.052503    0.894809
     39          1           0        3.876394   -3.499132    1.390906
     40          6           0        4.300205   -5.442066    0.605928
     41          1           0        5.148179   -5.819887    0.025154
     42          1           0        3.400097   -5.560280   -0.006057
     43          6           0        4.136909   -6.350461    1.819473
     44          8           0        3.644361   -7.452807    1.760765
     45          8           0        4.616049   -5.804062    2.959093
     46          1           0        4.493826   -6.479686    3.653253
 ---------------------------------------------------------------------

 SCF Done:  E(RB3LYP) =  -1324.86072070     A.U. after    2 cycles

 Alpha  occ. eigenvalues --  -19.29101 -19.24890 -19.23463 -19.21575 -19.21346
 Alpha  occ. eigenvalues --  -19.18774 -19.17291 -14.62514 -14.51486 -14.46944
 Alpha  occ. eigenvalues --  -14.45795 -14.45334 -14.41646 -10.45935 -10.42988
 Alpha  occ. eigenvalues --  -10.40725 -10.38658 -10.38642 -10.37206 -10.36042
 Alpha  occ. eigenvalues --  -10.34691 -10.33098 -10.32384 -10.30228 -10.28770
 Alpha  occ. eigenvalues --   -1.21568  -1.16175  -1.15644  -1.15411  -1.13696
 Alpha  occ. eigenvalues --   -1.12945  -1.09190  -1.07993  -1.06573  -1.03446
 Alpha  occ. eigenvalues --   -1.01862  -1.01521  -0.98056  -0.92461  -0.87426
 Alpha  occ. eigenvalues --   -0.85153  -0.82561  -0.80081  -0.77261  -0.76409
 Alpha  occ. eigenvalues --   -0.76296  -0.74018  -0.70474  -0.68952  -0.68518
 Alpha  occ. eigenvalues --   -0.67845  -0.66890  -0.65399  -0.64515  -0.63546
 Alpha  occ. eigenvalues --   -0.62941  -0.61040  -0.60119  -0.59910  -0.59191
 Alpha  occ. eigenvalues --   -0.57718  -0.57452  -0.56403  -0.56179  -0.55696
 Alpha  occ. eigenvalues --   -0.54895  -0.54149  -0.53290  -0.53210  -0.53041
 Alpha  occ. eigenvalues --   -0.51296  -0.50932  -0.50571  -0.49373  -0.49030
 Alpha  occ. eigenvalues --   -0.48262  -0.47777  -0.47313  -0.46206  -0.45133
 Alpha  occ. eigenvalues --   -0.44824  -0.44186  -0.43877  -0.43021  -0.41404
 Alpha  occ. eigenvalues --   -0.38128  -0.36919  -0.36740  -0.36504  -0.36031
 Alpha  occ. eigenvalues --   -0.35119  -0.34495  -0.34026  -0.30569  -0.30318
 Alpha virt. eigenvalues --   -0.14140  -0.13688  -0.08980  -0.08160  -0.07473
 Alpha virt. eigenvalues --   -0.06665  -0.06398  -0.04201  -0.03684  -0.03189
 Alpha virt. eigenvalues --   -0.02279  -0.00577  -0.00177   0.00657   0.00791

 Mulliken charges:
               1
     1  N   -0.750428
     2  H    0.424522
     3  H    0.424562
     4  H    0.441490
     5  C   -0.277058
     6  H    0.250390
     7  H    0.250444
     8  C    0.640565
     9  O   -0.522746
    10  N   -0.605605
    11  H    0.381958
    12  C   -0.211557
    13  H    0.216759
    14  H    0.216680
    15  C    0.620869
    16  O   -0.532302
    17  N   -0.622629
    18  H    0.370032
    19  C   -0.199582
    20  H    0.202948
    21  H    0.203773
    22  C    0.613677
    23  O   -0.528412
    24  N   -0.625181
    25  H    0.365199
    26  C   -0.193485
    27  H    0.202836
    28  H    0.200578
    29  C    0.612808
    30  O   -0.542565
    31  N   -0.589504
    32  H    0.351510
    33  C   -0.246168
    34  H    0.196235
    35  H    0.203740
    36  C    0.595962
    37  O   -0.491322
    38  N   -0.592032
    39  H    0.363436
    40  C   -0.229118
    41  H    0.232940
    42  H    0.187959
    43  C    0.575162
    44  O   -0.449213
    45  O   -0.555683
    46  H    0.417553
 Sum of Mulliken charges =   1.00000

 Dipole moment (field-independent basis, Debye):
    X=            -27.0055    Y=             17.9999    Z=             -4.7662  Tot=             32.8026
 Quadrupole moment (field-independent basis, Debye-Ang):
   XX=            106.9957   YY=            -96.5095   ZZ=           -127.0664
   XY=           -114.5232   XZ=             56.1636   YZ=            -26.1722

 Normal termination of Gaussian 16 at Thu Jul  7 14:59:20 2022.
