 Gaussian 16, Revision C.01,
 Gaussian 16:  ES64L-G16RevC.01  3-Jul-2019

 -------------------------------------------------------------------
 # B3LYP/6-31G* guess=read geom=check nosymm integral(ultrafinegrid)
 -------------------------------------------------------------------

 ------------------------------------------------------
 Candidate Structure: Conf:883 Charge calc in gas phase
 ------------------------------------------------------
 Structure from the checkpoint file:  "conf-883.chk"
 Charge =  1 Multiplicity = 1

                          Input orientation:
 ---------------------------------------------------------------------
 Center     Atomic      Atomic             Coordinates (Angstroms)
 Number     Number       Type             X           Y           Z
 ---------------------------------------------------------------------
      1          7           0        1.353095    3.223956   -2.347652
      2          1           0        2.281949    3.462109   -2.703991
      3          1           0        0.803501    2.701328   -3.052085
      4          1           0        1.413460    2.584770   -1.501759
      5          6           0        0.523929    4.419470   -1.987570
      6          1           0        0.603935    5.160978   -2.787148
      7          1           0        0.901251    4.838662   -1.053620
      8          6           0       -0.905330    3.851942   -1.885720
      9          8           0       -1.174725    2.861853   -2.560108
     10          7           0       -1.752817    4.426523   -1.009342
     11          1           0       -1.476707    5.258796   -0.504464
     12          6           0       -3.006652    3.748031   -0.663615
     13          1           0       -3.602982    3.566502   -1.559055
     14          1           0       -3.573299    4.398053    0.007942
     15          6           0       -2.764359    2.370314   -0.003825
     16          8           0       -3.552789    1.456380   -0.154014
     17          7           0       -1.630237    2.293706    0.765948
     18          1           0       -0.981906    3.067099    0.719266
     19          6           0       -1.013029    1.024478    1.076330
     20          1           0       -1.711769    0.222364    0.828201
     21          1           0       -0.790323    0.948476    2.149092
     22          6           0        0.305269    0.872950    0.305924
     23          8           0        0.941219    1.885659   -0.069631
     24          7           0        0.735539   -0.377375    0.131259
     25          1           0        0.100575   -1.145485    0.369332
     26          6           0        2.012338   -0.710071   -0.504954
     27          1           0        2.804248   -0.092805   -0.067056
     28          1           0        1.975715   -0.530578   -1.583557
     29          6           0        2.256570   -2.210201   -0.303563
     30          8           0        2.020340   -3.014009   -1.200729
     31          7           0        2.667940   -2.570490    0.940131
     32          1           0        2.711763   -1.864915    1.664246
     33          6           0        2.635643   -3.969592    1.373168
     34          1           0        3.013682   -4.587340    0.555172
     35          1           0        3.277476   -4.085865    2.246416
     36          6           0        1.200896   -4.359069    1.771261
     37          8           0        0.838223   -4.406187    2.936267
     38          7           0        0.368957   -4.587955    0.706240
     39          1           0        0.725399   -4.399213   -0.225724
     40          6           0       -1.048586   -4.732898    0.905553
     41          1           0       -1.220590   -5.192580    1.883951
     42          1           0       -1.484059   -5.395004    0.150275
     43          6           0       -1.805117   -3.409496    0.879148
     44          8           0       -1.309813   -2.300541    0.764335
     45          8           0       -3.120236   -3.605937    1.001219
     46          1           0       -3.564584   -2.736131    0.980417
 ---------------------------------------------------------------------

 SCF Done:  E(RB3LYP) =  -1324.87471083     A.U. after    2 cycles

 Alpha  occ. eigenvalues --  -19.30113 -19.27672 -19.26544 -19.25575 -19.22976
 Alpha  occ. eigenvalues --  -19.22404 -19.20280 -14.60006 -14.51948 -14.49254
 Alpha  occ. eigenvalues --  -14.47760 -14.47085 -14.44760 -10.45139 -10.43174
 Alpha  occ. eigenvalues --  -10.42703 -10.41607 -10.40412 -10.40042 -10.37565
 Alpha  occ. eigenvalues --  -10.35472 -10.35252 -10.34361 -10.32771 -10.32351
 Alpha  occ. eigenvalues --   -1.21496  -1.20329  -1.17382  -1.14990  -1.14653
 Alpha  occ. eigenvalues --   -1.14119  -1.12608  -1.12083  -1.07873  -1.05706
 Alpha  occ. eigenvalues --   -1.03481  -1.03342  -1.01228  -0.91212  -0.88534
 Alpha  occ. eigenvalues --   -0.86001  -0.84829  -0.82279  -0.80036  -0.75347
 Alpha  occ. eigenvalues --   -0.74646  -0.73851  -0.72596  -0.71556  -0.69973
 Alpha  occ. eigenvalues --   -0.69423  -0.67569  -0.67215  -0.66624  -0.64232
 Alpha  occ. eigenvalues --   -0.63166  -0.62387  -0.61583  -0.61025  -0.60752
 Alpha  occ. eigenvalues --   -0.60283  -0.59457  -0.58815  -0.58236  -0.57312
 Alpha  occ. eigenvalues --   -0.56379  -0.56053  -0.55775  -0.55544  -0.54542
 Alpha  occ. eigenvalues --   -0.54391  -0.53335  -0.51998  -0.51773  -0.50829
 Alpha  occ. eigenvalues --   -0.50545  -0.50005  -0.49548  -0.49036  -0.48663
 Alpha  occ. eigenvalues --   -0.47436  -0.47389  -0.46290  -0.42751  -0.42245
 Alpha  occ. eigenvalues --   -0.41754  -0.40886  -0.39703  -0.39405  -0.37995
 Alpha  occ. eigenvalues --   -0.36949  -0.36509  -0.35835  -0.34765  -0.33205
 Alpha virt. eigenvalues --   -0.14362  -0.11546  -0.10386  -0.09959  -0.09623
 Alpha virt. eigenvalues --   -0.08958  -0.07096  -0.06722  -0.04205  -0.02877
 Alpha virt. eigenvalues --   -0.02356  -0.02083  -0.01862   0.00518   0.00780

 Mulliken charges:
               1
     1  N   -0.753879
     2  H    0.409157
     3  H    0.420508
     4  H    0.449821
     5  C   -0.280107
     6  H    0.244945
     7  H    0.225174
     8  C    0.642059
     9  O   -0.496124
    10  N   -0.610907
    11  H    0.356952
    12  C   -0.234897
    13  H    0.234894
    14  H    0.209677
    15  C    0.600254
    16  O   -0.477039
    17  N   -0.568025
    18  H    0.321371
    19  C   -0.246566
    20  H    0.230710
    21  H    0.206407
    22  C    0.630009
    23  O   -0.613351
    24  N   -0.630517
    25  H    0.427735
    26  C   -0.192672
    27  H    0.183570
    28  H    0.188029
    29  C    0.557061
    30  O   -0.499009
    31  N   -0.560330
    32  H    0.347900
    33  C   -0.243199
    34  H    0.208486
    35  H    0.201108
    36  C    0.583826
    37  O   -0.488802
    38  N   -0.583607
    39  H    0.369540
    40  C   -0.235880
    41  H    0.241347
    42  H    0.211372
    43  C    0.597965
    44  O   -0.486948
    45  O   -0.529891
    46  H    0.431876
 Sum of Mulliken charges =   1.00000

 Dipole moment (field-independent basis, Debye):
    X=              4.2502    Y=             12.9223    Z=             -4.6729  Tot=             14.3835
 Quadrupole moment (field-independent basis, Debye-Ang):
   XX=           -120.2072   YY=            -52.9803   ZZ=           -133.1807
   XY=              6.1901   XZ=            -11.3075   YZ=            -22.6449

 Normal termination of Gaussian 16 at Thu Jul  7 14:59:23 2022.
