 Gaussian 16, Revision C.01,
 Gaussian 16:  ES64L-G16RevC.01  3-Jul-2019

 -------------------------------------------------------------------
 # B3LYP/6-31G* guess=read geom=check nosymm integral(ultrafinegrid)
 -------------------------------------------------------------------

 ------------------------------------------------------
 Candidate Structure: Conf:472 Charge calc in gas phase
 ------------------------------------------------------
 Structure from the checkpoint file:  "conf-472.chk"
 Charge =  1 Multiplicity = 1

                          Input orientation:
 ---------------------------------------------------------------------
 Center     Atomic      Atomic             Coordinates (Angstroms)
 Number     Number       Type             X           Y           Z
 ---------------------------------------------------------------------
      1          7           0       -4.117442    2.758346    0.124657
      2          1           0       -4.062389    3.024305    1.111137
      3          1           0       -3.452543    1.959643   -0.097535
      4          1           0       -5.065997    2.430549   -0.114007
      5          6           0       -3.802597    3.882822   -0.816702
      6          1           0       -2.742030    4.121307   -0.726084
      7          1           0       -4.408502    4.752559   -0.549913
      8          6           0       -4.202107    3.317457   -2.188703
      9          8           0       -5.186307    2.575263   -2.228584
     10          7           0       -3.419172    3.617925   -3.238856
     11          1           0       -2.549822    4.109341   -3.067120
     12          6           0       -3.453373    2.778500   -4.448992
     13          1           0       -2.964880    3.311780   -5.263739
     14          1           0       -4.494856    2.579305   -4.706464
     15          6           0       -2.648271    1.509672   -4.109967
     16          8           0       -1.450502    1.428962   -4.330900
     17          7           0       -3.353426    0.556426   -3.425913
     18          1           0       -4.301539    0.776225   -3.146055
     19          6           0       -2.640244   -0.472203   -2.702300
     20          1           0       -1.932743   -0.963558   -3.375132
     21          1           0       -3.360701   -1.225027   -2.365184
     22          6           0       -1.892402    0.071247   -1.469834
     23          8           0       -2.298127    1.056601   -0.814714
     24          7           0       -0.798662   -0.602748   -1.126808
     25          1           0       -0.424111   -1.365305   -1.694102
     26          6           0        0.032737   -0.299162    0.020652
     27          1           0       -0.537577   -0.392627    0.952803
     28          1           0        0.409986    0.729052   -0.035300
     29          6           0        1.197788   -1.306869   -0.006441
     30          8           0        1.270743   -2.146200   -0.903256
     31          7           0        2.084760   -1.188191    0.993975
     32          1           0        2.012922   -0.482805    1.724292
     33          6           0        3.247372   -2.041146    1.120672
     34          1           0        2.951872   -3.092615    1.229702
     35          1           0        3.879340   -1.975141    0.226085
     36          6           0        4.015645   -1.566548    2.362505
     37          8           0        3.598723   -0.627292    3.037024
     38          7           0        5.154224   -2.246959    2.631360
     39          1           0        5.402411   -3.050910    2.069848
     40          6           0        5.956971   -1.977028    3.811281
     41          1           0        5.375224   -1.346104    4.486160
     42          1           0        6.867556   -1.418182    3.555033
     43          6           0        6.397687   -3.223055    4.563836
     44          8           0        6.892538   -3.199539    5.662520
     45          8           0        6.217985   -4.355500    3.840157
     46          1           0        6.560586   -5.092028    4.382131
 ---------------------------------------------------------------------

 SCF Done:  E(RB3LYP) =  -1324.87629014     A.U. after    3 cycles

 Alpha  occ. eigenvalues --  -19.27767 -19.27641 -19.25567 -19.22858 -19.21913
 Alpha  occ. eigenvalues --  -19.21442 -19.21162 -14.59804 -14.51721 -14.48356
 Alpha  occ. eigenvalues --  -14.47305 -14.45768 -14.45538 -10.45068 -10.42037
 Alpha  occ. eigenvalues --  -10.41259 -10.40122 -10.40077 -10.39276 -10.38517
 Alpha  occ. eigenvalues --  -10.35356 -10.34794 -10.34344 -10.32495 -10.31688
 Alpha  occ. eigenvalues --   -1.20122  -1.18383  -1.16619  -1.14943  -1.14168
 Alpha  occ. eigenvalues --   -1.13915  -1.12976  -1.09416  -1.07631  -1.04658
 Alpha  occ. eigenvalues --   -1.03611  -1.02324  -1.01731  -0.91034  -0.88021
 Alpha  occ. eigenvalues --   -0.85936  -0.84478  -0.81920  -0.79223  -0.75155
 Alpha  occ. eigenvalues --   -0.73998  -0.73771  -0.71149  -0.70180  -0.69816
 Alpha  occ. eigenvalues --   -0.69204  -0.67691  -0.67120  -0.65894  -0.64144
 Alpha  occ. eigenvalues --   -0.63435  -0.61831  -0.61264  -0.60471  -0.59470
 Alpha  occ. eigenvalues --   -0.58648  -0.58245  -0.57595  -0.57128  -0.56525
 Alpha  occ. eigenvalues --   -0.55921  -0.55608  -0.55229  -0.54501  -0.54060
 Alpha  occ. eigenvalues --   -0.53717  -0.52571  -0.52124  -0.51940  -0.51290
 Alpha  occ. eigenvalues --   -0.49801  -0.49429  -0.49057  -0.48470  -0.48142
 Alpha  occ. eigenvalues --   -0.47224  -0.46831  -0.44934  -0.42456  -0.41478
 Alpha  occ. eigenvalues --   -0.40275  -0.39601  -0.38760  -0.37122  -0.36879
 Alpha  occ. eigenvalues --   -0.36496  -0.35881  -0.35417  -0.35132  -0.33499
 Alpha virt. eigenvalues --   -0.14832  -0.10951  -0.09870  -0.08932  -0.07551
 Alpha virt. eigenvalues --   -0.06634  -0.06203  -0.05992  -0.03696  -0.02514
 Alpha virt. eigenvalues --   -0.01109  -0.00824  -0.00414  -0.00214   0.00172

 Mulliken charges:
               1
     1  N   -0.750545
     2  H    0.409976
     3  H    0.452964
     4  H    0.417729
     5  C   -0.273811
     6  H    0.226474
     7  H    0.246550
     8  C    0.642954
     9  O   -0.525700
    10  N   -0.567783
    11  H    0.361916
    12  C   -0.250946
    13  H    0.216395
    14  H    0.216301
    15  C    0.588320
    16  O   -0.485245
    17  N   -0.570903
    18  H    0.360980
    19  C   -0.248948
    20  H    0.215262
    21  H    0.202335
    22  C    0.652654
    23  O   -0.620049
    24  N   -0.583992
    25  H    0.381956
    26  C   -0.203181
    27  H    0.191117
    28  H    0.197682
    29  C    0.616409
    30  O   -0.521893
    31  N   -0.624974
    32  H    0.362830
    33  C   -0.197782
    34  H    0.200992
    35  H    0.202572
    36  C    0.604308
    37  O   -0.520632
    38  N   -0.603567
    39  H    0.356051
    40  C   -0.225123
    41  H    0.235697
    42  H    0.210962
    43  C    0.583412
    44  O   -0.431230
    45  O   -0.576014
    46  H    0.427520
 Sum of Mulliken charges =   1.00000

 Dipole moment (field-independent basis, Debye):
    X=            -10.3644    Y=              7.4752    Z=             -1.1051  Tot=             12.8266
 Quadrupole moment (field-independent basis, Debye-Ang):
   XX=            -56.8041   YY=            -75.9728   ZZ=           -139.3873
   XY=            -64.3079   XZ=             13.1507   YZ=            -18.1956

 Normal termination of Gaussian 16 at Thu Jul  7 14:59:26 2022.
