 Gaussian 16, Revision C.01,
 Gaussian 16:  ES64L-G16RevC.01  3-Jul-2019

 -------------------------------------------------------------------
 # B3LYP/6-31G* guess=read geom=check nosymm integral(ultrafinegrid)
 -------------------------------------------------------------------

 ------------------------------------------------------
 Candidate Structure: Conf:428 Charge calc in gas phase
 ------------------------------------------------------
 Structure from the checkpoint file:  "conf-428.chk"
 Charge =  1 Multiplicity = 1

                          Input orientation:
 ---------------------------------------------------------------------
 Center     Atomic      Atomic             Coordinates (Angstroms)
 Number     Number       Type             X           Y           Z
 ---------------------------------------------------------------------
      1          7           0       -3.430020    1.029568   -2.813088
      2          1           0       -2.929194    1.514036   -3.561796
      3          1           0       -3.900082    0.179062   -3.167971
      4          1           0       -2.775407    0.701832   -2.050304
      5          6           0       -4.505548    1.856765   -2.175839
      6          1           0       -5.092838    2.341195   -2.960461
      7          1           0       -4.036554    2.609168   -1.540523
      8          6           0       -5.347621    0.828523   -1.401209
      9          8           0       -5.422113   -0.311390   -1.865416
     10          7           0       -5.919863    1.238002   -0.257356
     11          1           0       -5.667337    2.148207    0.109784
     12          6           0       -6.390688    0.256680    0.734077
     13          1           0       -6.899573   -0.551733    0.206532
     14          1           0       -7.083227    0.747271    1.417263
     15          6           0       -5.146200   -0.205543    1.514631
     16          8           0       -4.803445    0.343225    2.548338
     17          7           0       -4.421968   -1.187188    0.887247
     18          1           0       -4.726509   -1.472194   -0.036219
     19          6           0       -3.041672   -1.410986    1.240830
     20          1           0       -2.808612   -2.481686    1.233517
     21          1           0       -2.906680   -1.046641    2.264488
     22          6           0       -2.062512   -0.664657    0.315328
     23          8           0       -2.455141    0.201194   -0.494841
     24          7           0       -0.781124   -0.998919    0.461337
     25          1           0       -0.471740   -1.686484    1.151997
     26          6           0        0.327665   -0.370406   -0.227853
     27          1           0        0.305978    0.717178   -0.089639
     28          1           0        0.287742   -0.571113   -1.306188
     29          6           0        1.612443   -0.973801    0.375404
     30          8           0        1.537242   -1.838399    1.247727
     31          7           0        2.762153   -0.493240   -0.120735
     32          1           0        2.805376    0.226530   -0.839819
     33          6           0        4.064684   -0.942743    0.324616
     34          1           0        4.193398   -0.765804    1.399793
     35          1           0        4.184621   -2.020677    0.158707
     36          6           0        5.104265   -0.151636   -0.483064
     37          8           0        4.753060    0.676646   -1.323329
     38          7           0        6.392041   -0.430909   -0.204486
     39          1           0        6.658416   -1.116724    0.494851
     40          6           0        7.488019    0.232893   -0.879555
     41          1           0        7.453177    1.318883   -0.730093
     42          1           0        7.453471    0.065011   -1.962860
     43          6           0        8.788280   -0.314548   -0.322630
     44          8           0        8.853239   -1.163061    0.540562
     45          8           0        9.850594    0.259133   -0.906324
     46          1           0       10.650535   -0.133241   -0.506529
 ---------------------------------------------------------------------

 SCF Done:  E(RB3LYP) =  -1324.88178080     A.U. after    1 cycles

 Alpha  occ. eigenvalues --  -19.28123 -19.27410 -19.25726 -19.22806 -19.22440
 Alpha  occ. eigenvalues --  -19.22080 -19.20999 -14.59864 -14.51390 -14.48434
 Alpha  occ. eigenvalues --  -14.46912 -14.45875 -14.45148 -10.44839 -10.42129
 Alpha  occ. eigenvalues --  -10.41142 -10.41015 -10.39807 -10.39458 -10.38271
 Alpha  occ. eigenvalues --  -10.35001 -10.34738 -10.34264 -10.32395 -10.32091
 Alpha  occ. eigenvalues --   -1.19897  -1.19281  -1.16723  -1.14614  -1.14227
 Alpha  occ. eigenvalues --   -1.13930  -1.12864  -1.10477  -1.07354  -1.04843
 Alpha  occ. eigenvalues --   -1.03267  -1.02413  -1.01534  -0.90884  -0.88063
 Alpha  occ. eigenvalues --   -0.85874  -0.84587  -0.81978  -0.79361  -0.75250
 Alpha  occ. eigenvalues --   -0.73770  -0.73522  -0.71433  -0.70604  -0.69514
 Alpha  occ. eigenvalues --   -0.68940  -0.67677  -0.67018  -0.66186  -0.63918
 Alpha  occ. eigenvalues --   -0.62803  -0.61391  -0.60852  -0.59992  -0.59581
 Alpha  occ. eigenvalues --   -0.58640  -0.57623  -0.57591  -0.57440  -0.57215
 Alpha  occ. eigenvalues --   -0.56011  -0.55918  -0.55636  -0.54785  -0.54209
 Alpha  occ. eigenvalues --   -0.53761  -0.53241  -0.52600  -0.51467  -0.51125
 Alpha  occ. eigenvalues --   -0.50205  -0.49759  -0.48849  -0.48235  -0.48215
 Alpha  occ. eigenvalues --   -0.47216  -0.47008  -0.44676  -0.42244  -0.41208
 Alpha  occ. eigenvalues --   -0.40375  -0.40168  -0.38867  -0.37035  -0.36801
 Alpha  occ. eigenvalues --   -0.36562  -0.35853  -0.35542  -0.34922  -0.34263
 Alpha virt. eigenvalues --   -0.14349  -0.10936  -0.09796  -0.08547  -0.07709
 Alpha virt. eigenvalues --   -0.07446  -0.06081  -0.05759  -0.03690  -0.02465
 Alpha virt. eigenvalues --   -0.00982  -0.00808  -0.00190   0.00056   0.00264

 Mulliken charges:
               1
     1  N   -0.746681
     2  H    0.408834
     3  H    0.418928
     4  H    0.444598
     5  C   -0.275762
     6  H    0.245338
     7  H    0.228526
     8  C    0.656122
     9  O   -0.528766
    10  N   -0.571587
    11  H    0.361691
    12  C   -0.250957
    13  H    0.214969
    14  H    0.215746
    15  C    0.585569
    16  O   -0.477736
    17  N   -0.568946
    18  H    0.355330
    19  C   -0.253465
    20  H    0.199393
    21  H    0.241112
    22  C    0.628732
    23  O   -0.605885
    24  N   -0.587738
    25  H    0.381618
    26  C   -0.205960
    27  H    0.196639
    28  H    0.182921
    29  C    0.617623
    30  O   -0.520935
    31  N   -0.624201
    32  H    0.361032
    33  C   -0.197551
    34  H    0.203420
    35  H    0.202493
    36  C    0.612529
    37  O   -0.529847
    38  N   -0.624916
    39  H    0.364280
    40  C   -0.179904
    41  H    0.214530
    42  H    0.213926
    43  C    0.571607
    44  O   -0.454167
    45  O   -0.552842
    46  H    0.430337
 Sum of Mulliken charges =   1.00000

 Dipole moment (field-independent basis, Debye):
    X=             -6.8979    Y=              3.9945    Z=             -9.2750  Tot=             12.2296
 Quadrupole moment (field-independent basis, Debye-Ang):
   XX=             -1.8760   YY=           -129.1725   ZZ=           -123.8170
   XY=            -21.6191   XZ=             25.4088   YZ=            -11.4259

 Normal termination of Gaussian 16 at Thu Jul  7 14:59:16 2022.
