 Gaussian 16, Revision C.01,
 Gaussian 16:  ES64L-G16RevC.01  3-Jul-2019

 -------------------------------------------------------------------
 # B3LYP/6-31G* guess=read geom=check nosymm integral(ultrafinegrid)
 -------------------------------------------------------------------

 ------------------------------------------------------
 Candidate Structure: Conf:549 Charge calc in gas phase
 ------------------------------------------------------
 Structure from the checkpoint file:  "conf-549.chk"
 Charge =  1 Multiplicity = 1

                          Input orientation:
 ---------------------------------------------------------------------
 Center     Atomic      Atomic             Coordinates (Angstroms)
 Number     Number       Type             X           Y           Z
 ---------------------------------------------------------------------
      1          7           0       -7.404800    2.936503    3.058059
      2          1           0       -8.083849    3.334270    2.403113
      3          1           0       -6.494287    3.506306    3.035300
      4          1           0       -7.811355    2.960217    3.997389
      5          6           0       -6.900672    1.578129    2.652711
      6          1           0       -7.404494    1.255215    1.740021
      7          1           0       -7.101935    0.858398    3.448106
      8          6           0       -5.379178    1.805066    2.436693
      9          8           0       -4.952909    2.952817    2.634256
     10          7           0       -4.665467    0.757949    2.060460
     11          1           0       -5.057294   -0.176856    1.903642
     12          6           0       -3.232648    0.789792    1.806900
     13          1           0       -2.685320    1.078988    2.711220
     14          1           0       -2.994665    1.518116    1.023605
     15          6           0       -2.864662   -0.641908    1.369505
     16          8           0       -3.739491   -1.509579    1.324169
     17          7           0       -1.577658   -0.844470    1.060588
     18          1           0       -0.876194   -0.106666    1.085159
     19          6           0       -1.069220   -2.125398    0.611537
     20          1           0       -1.660735   -2.498862   -0.233221
     21          1           0       -1.135005   -2.875342    1.410143
     22          6           0        0.393943   -1.911564    0.202716
     23          8           0        0.931482   -0.811090    0.362050
     24          7           0        1.028305   -2.985768   -0.306254
     25          1           0        0.501504   -3.826682   -0.503497
     26          6           0        2.431202   -2.940531   -0.728185
     27          1           0        2.816517   -3.960062   -0.745251
     28          1           0        2.987883   -2.355101    0.008948
     29          6           0        2.594408   -2.355751   -2.145453
     30          8           0        2.774517   -3.075832   -3.114966
     31          7           0        2.511600   -0.990353   -2.194914
     32          1           0        2.219901   -0.514204   -1.346637
     33          6           0        2.491322   -0.260545   -3.452653
     34          1           0        2.605829   -0.997999   -4.252895
     35          1           0        1.533693    0.249259   -3.601605
     36          6           0        3.586997    0.801591   -3.611967
     37          8           0        3.455631    1.718662   -4.412740
     38          7           0        4.690899    0.629734   -2.843073
     39          1           0        4.756705   -0.135978   -2.184392
     40          6           0        5.819430    1.524941   -2.926500
     41          1           0        5.503996    2.570017   -2.818725
     42          1           0        6.325012    1.459732   -3.899509
     43          6           0        6.805814    1.174778   -1.832433
     44          8           0        6.658781    0.274974   -1.032351
     45          8           0        7.877956    1.986106   -1.859058
     46          1           0        8.472590    1.697080   -1.140996
 ---------------------------------------------------------------------

 SCF Done:  E(RB3LYP) =  -1324.85878082     A.U. after    2 cycles

 Alpha  occ. eigenvalues --  -19.29494 -19.26111 -19.24230 -19.23213 -19.20737
 Alpha  occ. eigenvalues --  -19.18595 -19.16063 -14.62885 -14.51975 -14.47894
 Alpha  occ. eigenvalues --  -14.47334 -14.43031 -14.41297 -10.46360 -10.43357
 Alpha  occ. eigenvalues --  -10.41514 -10.40305 -10.38859 -10.36646 -10.36014
 Alpha  occ. eigenvalues --  -10.34339 -10.33778 -10.31543 -10.29300 -10.28541
 Alpha  occ. eigenvalues --   -1.21968  -1.17201  -1.16660  -1.16152  -1.14915
 Alpha  occ. eigenvalues --   -1.10519  -1.08537  -1.08482  -1.08008  -1.04370
 Alpha  occ. eigenvalues --   -1.03104  -0.99355  -0.97417  -0.92889  -0.88110
 Alpha  occ. eigenvalues --   -0.85028  -0.82300  -0.80463  -0.77056  -0.76746
 Alpha  occ. eigenvalues --   -0.76670  -0.74556  -0.71263  -0.69607  -0.69025
 Alpha  occ. eigenvalues --   -0.67998  -0.65937  -0.65378  -0.64276  -0.63743
 Alpha  occ. eigenvalues --   -0.63355  -0.61235  -0.60804  -0.60432  -0.58795
 Alpha  occ. eigenvalues --   -0.58555  -0.57959  -0.56988  -0.56206  -0.55157
 Alpha  occ. eigenvalues --   -0.55001  -0.54520  -0.54152  -0.53752  -0.52331
 Alpha  occ. eigenvalues --   -0.51914  -0.50736  -0.50416  -0.49449  -0.49365
 Alpha  occ. eigenvalues --   -0.48436  -0.47733  -0.46961  -0.46536  -0.45731
 Alpha  occ. eigenvalues --   -0.44729  -0.44564  -0.44190  -0.41866  -0.40839
 Alpha  occ. eigenvalues --   -0.38960  -0.38382  -0.38124  -0.37434  -0.36696
 Alpha  occ. eigenvalues --   -0.34796  -0.33438  -0.31875  -0.30768  -0.29474
 Alpha virt. eigenvalues --   -0.14546  -0.13995  -0.09778  -0.08723  -0.08376
 Alpha virt. eigenvalues --   -0.07059  -0.05448  -0.05347  -0.03592  -0.02678
 Alpha virt. eigenvalues --   -0.02285  -0.01687  -0.01049   0.00102   0.01184

 Mulliken charges:
               1
     1  N   -0.749950
     2  H    0.425609
     3  H    0.441843
     4  H    0.425434
     5  C   -0.277229
     6  H    0.251154
     7  H    0.251177
     8  C    0.640924
     9  O   -0.520712
    10  N   -0.606227
    11  H    0.382209
    12  C   -0.211187
    13  H    0.218304
    14  H    0.217576
    15  C    0.621074
    16  O   -0.528537
    17  N   -0.623259
    18  H    0.370581
    19  C   -0.198302
    20  H    0.205680
    21  H    0.208795
    22  C    0.613092
    23  O   -0.539402
    24  N   -0.589031
    25  H    0.354786
    26  C   -0.244112
    27  H    0.200406
    28  H    0.201844
    29  C    0.585280
    30  O   -0.482749
    31  N   -0.619020
    32  H    0.362701
    33  C   -0.228307
    34  H    0.225501
    35  H    0.177732
    36  C    0.595934
    37  O   -0.515686
    38  N   -0.609158
    39  H    0.353157
    40  C   -0.172496
    41  H    0.208489
    42  H    0.208817
    43  C    0.564444
    44  O   -0.464595
    45  O   -0.555110
    46  H    0.422525
 Sum of Mulliken charges =   1.00000

 Dipole moment (field-independent basis, Debye):
    X=            -26.6410    Y=              6.2512    Z=             14.6470  Tot=             31.0379
 Quadrupole moment (field-independent basis, Debye-Ang):
   XX=            101.1205   YY=           -113.6385   ZZ=           -126.3350
   XY=            -67.1205   XZ=            -77.2942   YZ=             27.4175

 Normal termination of Gaussian 16 at Thu Jul  7 14:59:20 2022.
