 Gaussian 16, Revision C.01,
 Gaussian 16:  ES64L-G16RevC.01  3-Jul-2019

 -------------------------------------------------------------------
 # B3LYP/6-31G* guess=read geom=check nosymm integral(ultrafinegrid)
 -------------------------------------------------------------------

 ------------------------------------------------------
 Candidate Structure: Conf:538 Charge calc in gas phase
 ------------------------------------------------------
 Structure from the checkpoint file:  "conf-538.chk"
 Charge =  1 Multiplicity = 1

                          Input orientation:
 ---------------------------------------------------------------------
 Center     Atomic      Atomic             Coordinates (Angstroms)
 Number     Number       Type             X           Y           Z
 ---------------------------------------------------------------------
      1          7           0       -5.101796    3.395714   -1.649141
      2          1           0       -5.701534    4.019111   -1.102126
      3          1           0       -5.411600    3.423031   -2.624150
      4          1           0       -4.071404    3.708953   -1.574051
      5          6           0       -5.001708    2.005479   -1.084588
      6          1           0       -5.315021    1.278728   -1.836019
      7          1           0       -5.644718    1.915198   -0.207509
      8          6           0       -3.494172    1.871062   -0.728215
      9          8           0       -2.777625    2.854500   -0.979474
     10          7           0       -3.109560    0.730159   -0.190207
     11          1           0       -3.746586   -0.050556    0.007607
     12          6           0       -1.747420    0.415763    0.223416
     13          1           0       -1.368878    1.174407    0.916590
     14          1           0       -1.068725    0.369545   -0.635112
     15          6           0       -1.845319   -0.968295    0.892051
     16          8           0       -2.920315   -1.574577    0.885949
     17          7           0       -0.715923   -1.429433    1.448198
     18          1           0        0.150755   -0.895459    1.374591
     19          6           0       -0.633852   -2.788909    1.998344
     20          1           0       -0.892568   -3.530236    1.239349
     21          1           0       -1.331479   -2.893161    2.837901
     22          6           0        0.816690   -3.015829    2.425204
     23          8           0        1.572990   -3.752989    1.818228
     24          7           0        1.215010   -2.259197    3.509087
     25          1           0        0.564318   -1.544581    3.812242
     26          6           0        2.609429   -1.883404    3.586520
     27          1           0        3.218122   -2.770665    3.394766
     28          1           0        2.840783   -1.521177    4.593842
     29          6           0        2.926361   -0.783156    2.553456
     30          8           0        2.019518   -0.178218    1.962036
     31          7           0        4.230000   -0.504935    2.360226
     32          1           0        4.926062   -1.102777    2.786794
     33          6           0        4.694220    0.539059    1.443190
     34          1           0        4.051018    1.414635    1.572906
     35          1           0        5.717804    0.802080    1.710152
     36          6           0        4.704168    0.091463   -0.032244
     37          8           0        5.744486   -0.095509   -0.646900
     38          7           0        3.468583   -0.067285   -0.578666
     39          1           0        2.641725    0.019556    0.005710
     40          6           0        3.317911   -0.579726   -1.918886
     41          1           0        3.823163   -1.546964   -2.045578
     42          1           0        3.771947    0.091915   -2.659136
     43          6           0        1.852164   -0.748362   -2.246059
     44          8           0        0.928463   -0.495309   -1.495292
     45          8           0        1.685220   -1.222701   -3.490536
     46          1           0        0.727166   -1.331596   -3.637418
 ---------------------------------------------------------------------

 SCF Done:  E(RB3LYP) =  -1324.86232040     A.U. after    1 cycles

 Alpha  occ. eigenvalues --  -19.29201 -19.28592 -19.24156 -19.22800 -19.22675
 Alpha  occ. eigenvalues --  -19.20786 -19.18527 -14.62049 -14.50867 -14.46807
 Alpha  occ. eigenvalues --  -14.46310 -14.45021 -14.43004 -10.45375 -10.42558
 Alpha  occ. eigenvalues --  -10.42116 -10.39852 -10.39324 -10.37882 -10.35921
 Alpha  occ. eigenvalues --  -10.34687 -10.32528 -10.31958 -10.31569 -10.31430
 Alpha  occ. eigenvalues --   -1.21053  -1.20400  -1.15646  -1.14701  -1.14249
 Alpha  occ. eigenvalues --   -1.12584  -1.11481  -1.10453  -1.07355  -1.02947
 Alpha  occ. eigenvalues --   -1.02440  -1.01218  -0.99684  -0.91890  -0.86717
 Alpha  occ. eigenvalues --   -0.85348  -0.83393  -0.81276  -0.78053  -0.76021
 Alpha  occ. eigenvalues --   -0.75834  -0.73318  -0.71276  -0.69455  -0.68686
 Alpha  occ. eigenvalues --   -0.68235  -0.66972  -0.66122  -0.64765  -0.63241
 Alpha  occ. eigenvalues --   -0.62398  -0.61833  -0.60522  -0.59780  -0.59218
 Alpha  occ. eigenvalues --   -0.58590  -0.57827  -0.57078  -0.56579  -0.56379
 Alpha  occ. eigenvalues --   -0.55886  -0.55231  -0.54189  -0.54170  -0.53266
 Alpha  occ. eigenvalues --   -0.52845  -0.51768  -0.51090  -0.50196  -0.50040
 Alpha  occ. eigenvalues --   -0.49037  -0.48589  -0.48232  -0.47120  -0.46735
 Alpha  occ. eigenvalues --   -0.46364  -0.45902  -0.43973  -0.43704  -0.41633
 Alpha  occ. eigenvalues --   -0.40666  -0.38073  -0.37641  -0.37119  -0.36688
 Alpha  occ. eigenvalues --   -0.36147  -0.35249  -0.33759  -0.32762  -0.31702
 Alpha virt. eigenvalues --   -0.13599  -0.13352  -0.08670  -0.08622  -0.08160
 Alpha virt. eigenvalues --   -0.07884  -0.07184  -0.06226  -0.05147  -0.02696
 Alpha virt. eigenvalues --   -0.01774  -0.01500  -0.00821  -0.00441   0.01540

 Mulliken charges:
               1
     1  N   -0.751377
     2  H    0.422819
     3  H    0.422522
     4  H    0.440705
     5  C   -0.277003
     6  H    0.248328
     7  H    0.248488
     8  C    0.639829
     9  O   -0.526685
    10  N   -0.605874
    11  H    0.379567
    12  C   -0.230819
    13  H    0.209252
    14  H    0.248135
    15  C    0.620655
    16  O   -0.534001
    17  N   -0.659212
    18  H    0.400132
    19  C   -0.188773
    20  H    0.208391
    21  H    0.190179
    22  C    0.539064
    23  O   -0.470555
    24  N   -0.542087
    25  H    0.335460
    26  C   -0.259654
    27  H    0.219697
    28  H    0.199566
    29  C    0.625578
    30  O   -0.559158
    31  N   -0.577056
    32  H    0.356553
    33  C   -0.240813
    34  H    0.194233
    35  H    0.198648
    36  C    0.597791
    37  O   -0.493727
    38  N   -0.624224
    39  H    0.377275
    40  C   -0.175270
    41  H    0.216678
    42  H    0.214412
    43  C    0.570992
    44  O   -0.483685
    45  O   -0.543077
    46  H    0.418102
 Sum of Mulliken charges =   1.00000

 Dipole moment (field-independent basis, Debye):
    X=            -16.9733    Y=             10.2836    Z=             -1.3510  Tot=             19.8915
 Quadrupole moment (field-independent basis, Debye-Ang):
   XX=            -32.8990   YY=           -114.3778   ZZ=            -99.3627
   XY=            -62.1975   XZ=             53.7121   YZ=            -18.7254

 Normal termination of Gaussian 16 at Thu Jul  7 14:59:17 2022.
