 Gaussian 16, Revision C.01,
 Gaussian 16:  ES64L-G16RevC.01  3-Jul-2019

 -------------------------------------------------------------------
 # B3LYP/6-31G* guess=read geom=check nosymm integral(ultrafinegrid)
 -------------------------------------------------------------------

 ------------------------------------------------------
 Candidate Structure: Conf:669 Charge calc in gas phase
 ------------------------------------------------------
 Structure from the checkpoint file:  "conf-669.chk"
 Charge =  1 Multiplicity = 1

                          Input orientation:
 ---------------------------------------------------------------------
 Center     Atomic      Atomic             Coordinates (Angstroms)
 Number     Number       Type             X           Y           Z
 ---------------------------------------------------------------------
      1          7           0       -5.244404    3.053684   -0.330059
      2          1           0       -6.052724    2.757965    0.224779
      3          1           0       -4.772868    2.202426   -0.777558
      4          1           0       -5.572332    3.690970   -1.061800
      5          6           0       -4.118216    3.616826    0.494277
      6          1           0       -4.394624    3.596232    1.550350
      7          1           0       -3.922989    4.647558    0.192934
      8          6           0       -2.925531    2.672099    0.183740
      9          8           0       -3.155179    1.722094   -0.579621
     10          7           0       -1.756446    2.952019    0.746612
     11          1           0       -1.696075    3.719857    1.405041
     12          6           0       -0.537637    2.155282    0.515819
     13          1           0        0.322304    2.807183    0.660414
     14          1           0       -0.529124    1.793807   -0.514458
     15          6           0       -0.393685    0.968941    1.487989
     16          8           0        0.544203    0.901982    2.268892
     17          7           0       -1.400952    0.045123    1.411996
     18          1           0       -1.950929    0.023728    0.557203
     19          6           0       -1.257682   -1.254447    2.058993
     20          1           0       -2.193455   -1.530810    2.558790
     21          1           0       -0.470669   -1.170380    2.810207
     22          6           0       -0.953937   -2.293088    0.974199
     23          8           0       -1.585427   -2.262974   -0.086037
     24          7           0        0.023991   -3.190899    1.234960
     25          1           0        0.600890   -3.058155    2.055477
     26          6           0        0.522974   -4.104016    0.200875
     27          1           0       -0.334460   -4.499496   -0.348729
     28          1           0        1.061285   -4.921363    0.680682
     29          6           0        1.498590   -3.350915   -0.721551
     30          8           0        2.714659   -3.449277   -0.598988
     31          7           0        0.890950   -2.524149   -1.619611
     32          1           0       -0.109775   -2.378013   -1.515106
     33          6           0        1.666984   -1.521236   -2.340567
     34          1           0        2.583380   -1.990315   -2.706177
     35          1           0        1.080257   -1.165410   -3.188997
     36          6           0        1.973687   -0.316939   -1.435912
     37          8           0        1.214649    0.656251   -1.370114
     38          7           0        3.100374   -0.423586   -0.700158
     39          1           0        3.624427   -1.295838   -0.686662
     40          6           0        3.491606    0.603657    0.242355
     41          1           0        2.742213    0.740852    1.034030
     42          1           0        3.595585    1.572102   -0.260851
     43          6           0        4.814336    0.222659    0.874474
     44          8           0        5.393142   -0.823706    0.689919
     45          8           0        5.263156    1.201209    1.684610
     46          1           0        6.107133    0.888917    2.063177
 ---------------------------------------------------------------------

 SCF Done:  E(RB3LYP) =  -1324.85392022     A.U. after    1 cycles

 Alpha  occ. eigenvalues --  -19.30415 -19.26844 -19.22340 -19.21847 -19.21357
 Alpha  occ. eigenvalues --  -19.19317 -19.19072 -14.63718 -14.53497 -14.46779
 Alpha  occ. eigenvalues --  -14.46288 -14.43466 -14.43186 -10.47242 -10.44297
 Alpha  occ. eigenvalues --  -10.39687 -10.39577 -10.39058 -10.36428 -10.36096
 Alpha  occ. eigenvalues --  -10.34686 -10.32902 -10.31417 -10.30513 -10.30008
 Alpha  occ. eigenvalues --   -1.22850  -1.17885  -1.17330  -1.14399  -1.13574
 Alpha  occ. eigenvalues --   -1.11274  -1.10410  -1.09395  -1.09024  -1.02499
 Alpha  occ. eigenvalues --   -1.02353  -0.99855  -0.99249  -0.93401  -0.86924
 Alpha  occ. eigenvalues --   -0.84581  -0.83052  -0.80457  -0.77658  -0.77521
 Alpha  occ. eigenvalues --   -0.77412  -0.75226  -0.70218  -0.69596  -0.68737
 Alpha  occ. eigenvalues --   -0.68036  -0.66109  -0.66012  -0.65335  -0.64654
 Alpha  occ. eigenvalues --   -0.63581  -0.62013  -0.60984  -0.60382  -0.58315
 Alpha  occ. eigenvalues --   -0.57764  -0.56933  -0.56168  -0.56022  -0.55808
 Alpha  occ. eigenvalues --   -0.55323  -0.54546  -0.53714  -0.53542  -0.53218
 Alpha  occ. eigenvalues --   -0.52121  -0.51467  -0.49736  -0.49698  -0.49017
 Alpha  occ. eigenvalues --   -0.48356  -0.48047  -0.47437  -0.46793  -0.46299
 Alpha  occ. eigenvalues --   -0.45665  -0.45273  -0.45200  -0.43894  -0.43136
 Alpha  occ. eigenvalues --   -0.39063  -0.37303  -0.37138  -0.36128  -0.35613
 Alpha  occ. eigenvalues --   -0.34832  -0.34589  -0.33017  -0.32391  -0.31339
 Alpha virt. eigenvalues --   -0.15605  -0.14675  -0.10086  -0.09281  -0.08635
 Alpha virt. eigenvalues --   -0.07814  -0.06235  -0.05884  -0.04753  -0.04606
 Alpha virt. eigenvalues --   -0.03646  -0.02632  -0.00911   0.01028   0.01409

 Mulliken charges:
               1
     1  N   -0.749039
     2  H    0.427432
     3  H    0.445060
     4  H    0.428398
     5  C   -0.279292
     6  H    0.251707
     7  H    0.251688
     8  C    0.644703
     9  O   -0.524932
    10  N   -0.574495
    11  H    0.365913
    12  C   -0.267099
    13  H    0.210414
    14  H    0.261143
    15  C    0.607832
    16  O   -0.488911
    17  N   -0.592818
    18  H    0.362692
    19  C   -0.236828
    20  H    0.191303
    21  H    0.200560
    22  C    0.617306
    23  O   -0.539149
    24  N   -0.576924
    25  H    0.354489
    26  C   -0.240149
    27  H    0.203389
    28  H    0.200308
    29  C    0.585175
    30  O   -0.503023
    31  N   -0.583641
    32  H    0.370243
    33  C   -0.226249
    34  H    0.197181
    35  H    0.180999
    36  C    0.594012
    37  O   -0.556396
    38  N   -0.596510
    39  H    0.385318
    40  C   -0.203705
    41  H    0.219341
    42  H    0.198689
    43  C    0.566260
    44  O   -0.444907
    45  O   -0.561787
    46  H    0.424296
 Sum of Mulliken charges =   1.00000

 Dipole moment (field-independent basis, Debye):
    X=            -19.5286    Y=             13.7868    Z=              3.0557  Tot=             24.0993
 Quadrupole moment (field-independent basis, Debye-Ang):
   XX=            -31.2424   YY=            -76.5841   ZZ=           -130.2033
   XY=            -60.9833   XZ=              1.9723   YZ=             -2.2106

 Normal termination of Gaussian 16 at Thu Jul  7 14:59:18 2022.
