 Gaussian 16, Revision C.01,
 Gaussian 16:  ES64L-G16RevC.01  3-Jul-2019

 -------------------------------------------------------------------
 # B3LYP/6-31G* guess=read geom=check nosymm integral(ultrafinegrid)
 -------------------------------------------------------------------

 ------------------------------------------------------
 Candidate Structure: Conf:824 Charge calc in gas phase
 ------------------------------------------------------
 Structure from the checkpoint file:  "conf-824.chk"
 Charge =  1 Multiplicity = 1

                          Input orientation:
 ---------------------------------------------------------------------
 Center     Atomic      Atomic             Coordinates (Angstroms)
 Number     Number       Type             X           Y           Z
 ---------------------------------------------------------------------
      1          7           0        0.082703    1.950756    2.196098
      2          1           0        0.136660    0.907767    2.042219
      3          1           0        0.462367    2.160828    3.123215
      4          1           0        0.780840    2.303583    1.502339
      5          6           0       -1.302751    2.475238    2.035768
      6          1           0       -1.284847    3.562090    2.160117
      7          1           0       -1.927491    2.042621    2.821323
      8          6           0       -1.790817    2.111837    0.628119
      9          8           0       -0.978764    1.942526   -0.275471
     10          7           0       -3.130985    2.037595    0.455318
     11          1           0       -3.728333    1.946558    1.267018
     12          6           0       -3.654715    1.531801   -0.808348
     13          1           0       -3.164782    2.061589   -1.627942
     14          1           0       -4.725962    1.747835   -0.847676
     15          6           0       -3.449915    0.009530   -0.887253
     16          8           0       -3.653073   -0.689837    0.105800
     17          7           0       -3.055678   -0.486772   -2.083965
     18          1           0       -2.762287    0.151460   -2.811414
     19          6           0       -2.796652   -1.915251   -2.279867
     20          1           0       -2.753878   -2.118325   -3.350009
     21          1           0       -3.618899   -2.482149   -1.835183
     22          6           0       -1.446104   -2.316980   -1.662064
     23          8           0       -0.420068   -2.406839   -2.336919
     24          7           0       -1.480108   -2.517809   -0.316936
     25          1           0       -2.313785   -2.199779    0.174769
     26          6           0       -0.252661   -2.730992    0.440938
     27          1           0        0.360677   -3.470905   -0.079811
     28          1           0       -0.508457   -3.105459    1.432546
     29          6           0        0.493480   -1.401516    0.600349
     30          8           0        0.326854   -0.699600    1.610289
     31          7           0        1.284232   -1.060211   -0.442800
     32          1           0        1.135278   -1.614286   -1.287983
     33          6           0        1.806346    0.295910   -0.612853
     34          1           0        2.376709    0.307899   -1.546942
     35          1           0        0.994927    1.021571   -0.697362
     36          6           0        2.721198    0.762751    0.524832
     37          8           0        2.521683    1.839655    1.109218
     38          7           0        3.766275   -0.028315    0.815875
     39          1           0        3.894128   -0.905784    0.327698
     40          6           0        4.722234    0.311585    1.859264
     41          1           0        4.202991    0.527867    2.798698
     42          1           0        5.277085    1.220271    1.595916
     43          6           0        5.736755   -0.786142    2.129563
     44          8           0        6.556151   -0.725457    3.009267
     45          8           0        5.622376   -1.826137    1.266981
     46          1           0        6.316920   -2.471570    1.501536
 ---------------------------------------------------------------------

 SCF Done:  E(RB3LYP) =  -1324.89537792     A.U. after    1 cycles

 Alpha  occ. eigenvalues --  -19.30334 -19.26660 -19.25774 -19.24415 -19.24355
 Alpha  occ. eigenvalues --  -19.23839 -19.23399 -14.56791 -14.50679 -14.49320
 Alpha  occ. eigenvalues --  -14.48764 -14.48359 -14.47410 -10.44111 -10.42697
 Alpha  occ. eigenvalues --  -10.42057 -10.41626 -10.41430 -10.40314 -10.39911
 Alpha  occ. eigenvalues --  -10.36131 -10.34680 -10.34489 -10.34468 -10.34463
 Alpha  occ. eigenvalues --   -1.20907  -1.18969  -1.17038  -1.16334  -1.15741
 Alpha  occ. eigenvalues --   -1.14827  -1.11962  -1.11847  -1.06717  -1.05434
 Alpha  occ. eigenvalues --   -1.04963  -1.04240  -1.03429  -0.90462  -0.88853
 Alpha  occ. eigenvalues --   -0.87135  -0.84952  -0.82964  -0.80769  -0.73693
 Alpha  occ. eigenvalues --   -0.73117  -0.72845  -0.71946  -0.71251  -0.70787
 Alpha  occ. eigenvalues --   -0.69336  -0.68763  -0.66807  -0.65556  -0.64949
 Alpha  occ. eigenvalues --   -0.64023  -0.63472  -0.62969  -0.61051  -0.60542
 Alpha  occ. eigenvalues --   -0.59396  -0.59272  -0.58556  -0.57898  -0.57524
 Alpha  occ. eigenvalues --   -0.56996  -0.56835  -0.55656  -0.55618  -0.54749
 Alpha  occ. eigenvalues --   -0.53913  -0.53754  -0.52747  -0.52426  -0.51864
 Alpha  occ. eigenvalues --   -0.51529  -0.51081  -0.50269  -0.49973  -0.49509
 Alpha  occ. eigenvalues --   -0.49343  -0.49229  -0.48062  -0.42143  -0.41442
 Alpha  occ. eigenvalues --   -0.40771  -0.40469  -0.39990  -0.39743  -0.38351
 Alpha  occ. eigenvalues --   -0.37971  -0.37910  -0.37251  -0.36646  -0.35739
 Alpha virt. eigenvalues --   -0.13316  -0.11786  -0.10923  -0.10613  -0.09343
 Alpha virt. eigenvalues --   -0.08962  -0.07781  -0.04862  -0.03507  -0.02822
 Alpha virt. eigenvalues --   -0.00928  -0.00795   0.00014   0.00784   0.01090

 Mulliken charges:
               1
     1  N   -0.775246
     2  H    0.452612
     3  H    0.402002
     4  H    0.436385
     5  C   -0.269982
     6  H    0.242787
     7  H    0.215003
     8  C    0.635676
     9  O   -0.505088
    10  N   -0.567283
    11  H    0.359459
    12  C   -0.248281
    13  H    0.200511
    14  H    0.216182
    15  C    0.628001
    16  O   -0.532997
    17  N   -0.579797
    18  H    0.357170
    19  C   -0.236995
    20  H    0.207246
    21  H    0.209947
    22  C    0.594517
    23  O   -0.519698
    24  N   -0.578334
    25  H    0.383060
    26  C   -0.233767
    27  H    0.205002
    28  H    0.201410
    29  C    0.608675
    30  O   -0.564181
    31  N   -0.584690
    32  H    0.388861
    33  C   -0.274342
    34  H    0.202133
    35  H    0.233703
    36  C    0.632660
    37  O   -0.574007
    38  N   -0.586133
    39  H    0.371707
    40  C   -0.198192
    41  H    0.210062
    42  H    0.226028
    43  C    0.579307
    44  O   -0.424901
    45  O   -0.581099
    46  H    0.434908
 Sum of Mulliken charges =   1.00000

 Dipole moment (field-independent basis, Debye):
    X=             -3.2384    Y=              2.9849    Z=              2.7687  Tot=              5.2022
 Quadrupole moment (field-independent basis, Debye-Ang):
   XX=            -98.0401   YY=           -114.8602   ZZ=           -120.2988
   XY=            -21.4383   XZ=              0.6464   YZ=             12.5994

 Normal termination of Gaussian 16 at Thu Jul  7 14:59:19 2022.
