 Gaussian 16, Revision C.01,
 Gaussian 16:  ES64L-G16RevC.01  3-Jul-2019

 -------------------------------------------------------------------
 # B3LYP/6-31G* guess=read geom=check nosymm integral(ultrafinegrid)
 -------------------------------------------------------------------

 -----------------------------------------------------
 Candidate Structure: Conf:35 Charge calc in gas phase
 -----------------------------------------------------
 Structure from the checkpoint file:  "conf-35.chk"
 Charge =  1 Multiplicity = 1

                          Input orientation:
 ---------------------------------------------------------------------
 Center     Atomic      Atomic             Coordinates (Angstroms)
 Number     Number       Type             X           Y           Z
 ---------------------------------------------------------------------
      1          7           0       -2.684761   -2.048405    1.588292
      2          1           0       -1.683252   -2.053848    1.895534
      3          1           0       -2.911791   -2.970581    1.207568
      4          1           0       -3.261208   -1.811708    2.406541
      5          6           0       -2.846409   -0.965616    0.565538
      6          1           0       -3.879171   -0.982613    0.207500
      7          1           0       -2.160422   -1.172444   -0.253379
      8          6           0       -2.564334    0.343139    1.312429
      9          8           0       -2.995615    0.483949    2.450906
     10          7           0       -1.833687    1.244326    0.623200
     11          1           0       -1.398907    0.949599   -0.249845
     12          6           0       -1.361162    2.475373    1.249403
     13          1           0       -1.305051    2.317457    2.330079
     14          1           0       -2.054145    3.304572    1.062851
     15          6           0        0.030039    2.762647    0.692474
     16          8           0        1.000871    2.031371    0.945124
     17          7           0        0.125911    3.804671   -0.155873
     18          1           0       -0.711872    4.321794   -0.388923
     19          6           0        1.312880    4.034723   -0.983416
     20          1           0        2.201634    3.867258   -0.370582
     21          1           0        1.301534    5.065590   -1.336429
     22          6           0        1.270338    3.101736   -2.209684
     23          8           0        0.872731    3.477243   -3.299691
     24          7           0        1.663039    1.815119   -1.941624
     25          1           0        1.861024    1.574163   -0.976485
     26          6           0        1.471285    0.758772   -2.904502
     27          1           0        2.430864    0.337882   -3.233552
     28          1           0        0.994772    1.213540   -3.782199
     29          6           0        0.571351   -0.352160   -2.358699
     30          8           0       -0.317344   -0.155639   -1.526602
     31          7           0        0.831978   -1.607223   -2.822860
     32          1           0        1.486860   -1.724409   -3.585486
     33          6           0       -0.017285   -2.730636   -2.439396
     34          1           0       -1.062573   -2.550655   -2.703786
     35          1           0        0.326506   -3.618895   -2.977634
     36          6           0        0.016154   -3.001410   -0.925843
     37          8           0       -0.999849   -3.318233   -0.309470
     38          7           0        1.238694   -2.891033   -0.340403
     39          1           0        1.983425   -2.481047   -0.889116
     40          6           0        1.375951   -2.842101    1.110986
     41          1           0        2.422954   -3.009052    1.373503
     42          1           0        0.758103   -3.619624    1.558849
     43          6           0        0.915110   -1.471886    1.606081
     44          8           0       -0.141394   -1.280455    2.196437
     45          8           0        1.749186   -0.509003    1.256091
     46          1           0        1.349422    0.392679    1.414319
 ---------------------------------------------------------------------

 SCF Done:  E(RB3LYP) =  -1324.90401412     A.U. after    1 cycles

 Alpha  occ. eigenvalues --  -19.31019 -19.27351 -19.26581 -19.25972 -19.25340
 Alpha  occ. eigenvalues --  -19.24331 -19.22398 -14.57473 -14.50878 -14.50218
 Alpha  occ. eigenvalues --  -14.49780 -14.48746 -14.47087 -10.45215 -10.43237
 Alpha  occ. eigenvalues --  -10.42827 -10.42623 -10.41872 -10.39740 -10.37705
 Alpha  occ. eigenvalues --  -10.36509 -10.36017 -10.35407 -10.35174 -10.34458
 Alpha  occ. eigenvalues --   -1.22898  -1.18258  -1.17553  -1.16918  -1.16698
 Alpha  occ. eigenvalues --   -1.14360  -1.14075  -1.11768  -1.07048  -1.05927
 Alpha  occ. eigenvalues --   -1.05399  -1.05033  -1.03430  -0.90122  -0.89265
 Alpha  occ. eigenvalues --   -0.87127  -0.85697  -0.83093  -0.80845  -0.75336
 Alpha  occ. eigenvalues --   -0.73501  -0.72670  -0.72225  -0.71823  -0.71287
 Alpha  occ. eigenvalues --   -0.70803  -0.69625  -0.67356  -0.66511  -0.65185
 Alpha  occ. eigenvalues --   -0.63248  -0.62775  -0.62458  -0.61857  -0.61215
 Alpha  occ. eigenvalues --   -0.60518  -0.59961  -0.59415  -0.59145  -0.58379
 Alpha  occ. eigenvalues --   -0.57792  -0.56467  -0.56129  -0.55396  -0.55230
 Alpha  occ. eigenvalues --   -0.54833  -0.54167  -0.53342  -0.53026  -0.52397
 Alpha  occ. eigenvalues --   -0.51764  -0.51556  -0.50769  -0.50696  -0.50150
 Alpha  occ. eigenvalues --   -0.49278  -0.48725  -0.47948  -0.44404  -0.42542
 Alpha  occ. eigenvalues --   -0.41581  -0.40760  -0.40483  -0.40195  -0.38857
 Alpha  occ. eigenvalues --   -0.38466  -0.38222  -0.37891  -0.36659  -0.35503
 Alpha virt. eigenvalues --   -0.13376  -0.12588  -0.12293  -0.11152  -0.10442
 Alpha virt. eigenvalues --   -0.08528  -0.06372  -0.05284  -0.03943  -0.02519
 Alpha virt. eigenvalues --   -0.01461  -0.00933  -0.00363   0.00436   0.00970

 Mulliken charges:
               1
     1  N   -0.735093
     2  H    0.443896
     3  H    0.418485
     4  H    0.412256
     5  C   -0.305357
     6  H    0.228680
     7  H    0.245837
     8  C    0.643088
     9  O   -0.508656
    10  N   -0.634022
    11  H    0.396236
    12  C   -0.194245
    13  H    0.232271
    14  H    0.183438
    15  C    0.595734
    16  O   -0.556994
    17  N   -0.559834
    18  H    0.363739
    19  C   -0.244491
    20  H    0.210029
    21  H    0.212505
    22  C    0.585372
    23  O   -0.476561
    24  N   -0.584359
    25  H    0.360478
    26  C   -0.234413
    27  H    0.178047
    28  H    0.241679
    29  C    0.609424
    30  O   -0.530180
    31  N   -0.613094
    32  H    0.360690
    33  C   -0.225071
    34  H    0.209558
    35  H    0.209349
    36  C    0.626785
    37  O   -0.558342
    38  N   -0.562782
    39  H    0.349986
    40  C   -0.215028
    41  H    0.210750
    42  H    0.208367
    43  C    0.610858
    44  O   -0.502072
    45  O   -0.568274
    46  H    0.461328
 Sum of Mulliken charges =   1.00000

 Dipole moment (field-independent basis, Debye):
    X=             -1.5406    Y=             -4.6706    Z=             -2.2375  Tot=              5.4032
 Quadrupole moment (field-independent basis, Debye-Ang):
   XX=           -111.8060   YY=            -96.6758   ZZ=           -129.7316
   XY=              3.1419   XZ=            -11.5571   YZ=              7.5054

 Normal termination of Gaussian 16 at Thu Jul  7 14:59:23 2022.
