 Gaussian 16, Revision C.01,
 Gaussian 16:  ES64L-G16RevC.01  3-Jul-2019

 -------------------------------------------------------------------
 # B3LYP/6-31G* guess=read geom=check nosymm integral(ultrafinegrid)
 -------------------------------------------------------------------

 ------------------------------------------------------
 Candidate Structure: Conf:727 Charge calc in gas phase
 ------------------------------------------------------
 Structure from the checkpoint file:  "conf-727.chk"
 Charge =  1 Multiplicity = 1

                          Input orientation:
 ---------------------------------------------------------------------
 Center     Atomic      Atomic             Coordinates (Angstroms)
 Number     Number       Type             X           Y           Z
 ---------------------------------------------------------------------
      1          7           0       -0.689291    7.590374    2.186044
      2          1           0       -1.422108    7.982751    2.784092
      3          1           0       -0.885626    7.830589    1.160157
      4          1           0        0.208414    7.991154    2.472823
      5          6           0       -0.689825    6.086230    2.140116
      6          1           0       -1.471988    5.698944    2.795524
      7          1           0        0.278129    5.707716    2.473367
      8          6           0       -0.964198    5.765940    0.645606
      9          8           0       -1.115631    6.731467   -0.115854
     10          7           0       -1.013798    4.487666    0.304999
     11          1           0       -0.879507    3.716699    0.965033
     12          6           0       -1.255388    4.018388   -1.051381
     13          1           0       -0.503004    4.423493   -1.737911
     14          1           0       -2.240481    4.345473   -1.403399
     15          6           0       -1.176316    2.482819   -0.984558
     16          8           0       -0.969351    1.930953    0.101386
     17          7           0       -1.362371    1.827989   -2.141920
     18          1           0       -1.423029    2.350043   -3.006975
     19          6           0       -1.295164    0.364791   -2.230213
     20          1           0       -1.831025    0.054054   -3.127169
     21          1           0       -1.791619   -0.050908   -1.349699
     22          6           0        0.160022   -0.128779   -2.356614
     23          8           0        0.657263   -0.356889   -3.447963
     24          7           0        0.810233   -0.259003   -1.161168
     25          1           0        0.339220    0.084131   -0.331543
     26          6           0        2.217514   -0.617736   -1.071784
     27          1           0        2.804899    0.189738   -0.622677
     28          1           0        2.575434   -0.762938   -2.095289
     29          6           0        2.518872   -1.888848   -0.264121
     30          8           0        3.636946   -2.077800    0.199393
     31          7           0        1.492784   -2.763584   -0.143241
     32          1           0        0.565064   -2.550753   -0.491027
     33          6           0        1.617863   -4.003702    0.581013
     34          1           0        2.232326   -4.730130    0.029328
     35          1           0        2.119735   -3.835541    1.542351
     36          6           0        0.213052   -4.573773    0.793643
     37          8           0       -0.783842   -4.001664    0.362211
     38          7           0        0.166802   -5.734467    1.504728
     39          1           0        1.038318   -6.208388    1.702665
     40          6           0       -1.059539   -6.489781    1.650841
     41          1           0       -1.887542   -5.829087    1.383567
     42          1           0       -1.207541   -6.796291    2.692504
     43          6           0       -1.170600   -7.745473    0.792015
     44          8           0       -2.140907   -8.463455    0.793852
     45          8           0       -0.062870   -7.975845    0.050292
     46          1           0       -0.234175   -8.797087   -0.449583
 ---------------------------------------------------------------------

 SCF Done:  E(RB3LYP) =  -1324.84984290     A.U. after    1 cycles

 Alpha  occ. eigenvalues --  -19.30126 -19.26107 -19.25648 -19.19863 -19.19848
 Alpha  occ. eigenvalues --  -19.19260 -19.16785 -14.63469 -14.52770 -14.49516
 Alpha  occ. eigenvalues --  -14.44536 -14.43677 -14.41816 -10.47038 -10.43935
 Alpha  occ. eigenvalues --  -10.42765 -10.38372 -10.37643 -10.37397 -10.36469
 Alpha  occ. eigenvalues --  -10.34545 -10.33129 -10.30147 -10.29699 -10.29611
 Alpha  occ. eigenvalues --   -1.22608  -1.17614  -1.16962  -1.16777  -1.11874
 Alpha  occ. eigenvalues --   -1.11215  -1.09249  -1.08858  -1.07758  -1.05321
 Alpha  occ. eigenvalues --   -1.00659  -0.99965  -0.98020  -0.93540  -0.88367
 Alpha  occ. eigenvalues --   -0.84185  -0.82926  -0.80005  -0.77281  -0.77264
 Alpha  occ. eigenvalues --   -0.76689  -0.75269  -0.71824  -0.69752  -0.68435
 Alpha  occ. eigenvalues --   -0.67096  -0.66518  -0.66146  -0.64738  -0.64050
 Alpha  occ. eigenvalues --   -0.63631  -0.62022  -0.61596  -0.61131  -0.60196
 Alpha  occ. eigenvalues --   -0.58448  -0.56899  -0.56230  -0.55616  -0.55162
 Alpha  occ. eigenvalues --   -0.54618  -0.54280  -0.53476  -0.53168  -0.52419
 Alpha  occ. eigenvalues --   -0.51430  -0.51134  -0.50325  -0.49743  -0.49472
 Alpha  occ. eigenvalues --   -0.48293  -0.47448  -0.46652  -0.45834  -0.45424
 Alpha  occ. eigenvalues --   -0.45180  -0.45009  -0.44329  -0.42617  -0.41491
 Alpha  occ. eigenvalues --   -0.40175  -0.39247  -0.37830  -0.35716  -0.34873
 Alpha  occ. eigenvalues --   -0.33346  -0.33244  -0.32202  -0.31021  -0.30284
 Alpha virt. eigenvalues --   -0.15194  -0.14472  -0.11057  -0.09056  -0.07721
 Alpha virt. eigenvalues --   -0.06902  -0.05068  -0.04757  -0.04212  -0.03653
 Alpha virt. eigenvalues --   -0.02967  -0.02856  -0.00548  -0.00188   0.00720

 Mulliken charges:
               1
     1  N   -0.749210
     2  H    0.427053
     3  H    0.442372
     4  H    0.427251
     5  C   -0.277659
     6  H    0.252690
     7  H    0.252525
     8  C    0.641732
     9  O   -0.517494
    10  N   -0.607278
    11  H    0.382777
    12  C   -0.210206
    13  H    0.219507
    14  H    0.221727
    15  C    0.619532
    16  O   -0.537900
    17  N   -0.587049
    18  H    0.359614
    19  C   -0.247547
    20  H    0.206779
    21  H    0.205505
    22  C    0.588375
    23  O   -0.480513
    24  N   -0.612635
    25  H    0.355766
    26  C   -0.227813
    27  H    0.176843
    28  H    0.227514
    29  C    0.592995
    30  O   -0.516827
    31  N   -0.606528
    32  H    0.353151
    33  C   -0.192532
    34  H    0.193108
    35  H    0.195640
    36  C    0.597660
    37  O   -0.522139
    38  N   -0.587678
    39  H    0.344585
    40  C   -0.239112
    41  H    0.233422
    42  H    0.202455
    43  C    0.582201
    44  O   -0.439843
    45  O   -0.565174
    46  H    0.422356
 Sum of Mulliken charges =   1.00000

 Dipole moment (field-independent basis, Debye):
    X=             -4.6449    Y=             26.5991    Z=              8.9678  Tot=             28.4518
 Quadrupole moment (field-independent basis, Debye-Ang):
   XX=           -152.9147   YY=             92.2515   ZZ=           -112.5383
   XY=            -34.4263   XZ=              3.1280   YZ=             57.4581

 Normal termination of Gaussian 16 at Thu Jul  7 14:59:17 2022.
