 Gaussian 16, Revision C.01,
 Gaussian 16:  ES64L-G16RevC.01  3-Jul-2019

 -------------------------------------------------------------------
 # B3LYP/6-31G* guess=read geom=check nosymm integral(ultrafinegrid)
 -------------------------------------------------------------------

 ------------------------------------------------------
 Candidate Structure: Conf:197 Charge calc in gas phase
 ------------------------------------------------------
 Structure from the checkpoint file:  "conf-197.chk"
 Charge =  1 Multiplicity = 1

                          Input orientation:
 ---------------------------------------------------------------------
 Center     Atomic      Atomic             Coordinates (Angstroms)
 Number     Number       Type             X           Y           Z
 ---------------------------------------------------------------------
      1          7           0       -4.931028    8.311421    2.714258
      2          1           0       -5.053593    9.158193    2.152381
      3          1           0       -3.919840    8.252110    3.080874
      4          1           0       -5.589055    8.345665    3.497568
      5          6           0       -5.009487    7.039654    1.914813
      6          1           0       -5.226994    7.272575    0.871050
      7          1           0       -5.800123    6.401466    2.313075
      8          6           0       -3.599412    6.412511    2.096474
      9          8           0       -2.796365    7.046619    2.799510
     10          7           0       -3.375450    5.261901    1.489595
     11          1           0       -4.068976    4.768509    0.914292
     12          6           0       -2.120303    4.526854    1.543221
     13          1           0       -1.870706    4.260488    2.576272
     14          1           0       -1.299040    5.132400    1.144161
     15          6           0       -2.356271    3.267443    0.682500
     16          8           0       -3.454930    3.100362    0.144114
     17          7           0       -1.320641    2.430707    0.584630
     18          1           0       -0.420756    2.592729    1.038438
     19          6           0       -1.352399    1.199555   -0.180407
     20          1           0       -1.574643    1.400942   -1.235313
     21          1           0       -2.133008    0.526502    0.194445
     22          6           0        0.038887    0.560230   -0.027619
     23          8           0        0.905807    1.113114    0.651890
     24          7           0        0.215032   -0.602978   -0.672840
     25          1           0       -0.510657   -1.046926   -1.232359
     26          6           0        1.460066   -1.340458   -0.640239
     27          1           0        1.724655   -1.617167    0.388165
     28          1           0        2.285526   -0.732158   -1.030902
     29          6           0        1.260151   -2.596003   -1.501451
     30          8           0        0.184291   -2.816162   -2.058422
     31          7           0        2.328243   -3.409775   -1.592705
     32          1           0        3.212916   -3.217447   -1.129943
     33          6           0        2.310411   -4.631089   -2.365934
     34          1           0        1.556250   -5.329839   -1.979156
     35          1           0        2.049956   -4.427268   -3.412376
     36          6           0        3.705797   -5.257751   -2.269885
     37          8           0        4.586480   -4.741961   -1.589111
     38          7           0        3.880046   -6.388961   -3.004206
     39          1           0        3.068667   -6.812389   -3.434890
     40          6           0        5.085869   -7.185306   -2.904789
     41          1           0        5.843231   -6.575626   -2.405881
     42          1           0        5.471234   -7.436428   -3.899108
     43          6           0        4.951400   -8.491156   -2.128799
     44          8           0        5.862459   -9.268203   -1.979773
     45          8           0        3.703439   -8.690605   -1.643365
     46          1           0        3.729066   -9.546201   -1.173274
 ---------------------------------------------------------------------

 SCF Done:  E(RB3LYP) =  -1324.86529748     A.U. after    2 cycles

 Alpha  occ. eigenvalues --  -19.28717 -19.25987 -19.22841 -19.20218 -19.19702
 Alpha  occ. eigenvalues --  -19.19405 -19.19194 -14.62143 -14.51040 -14.46214
 Alpha  occ. eigenvalues --  -14.44004 -14.43818 -14.43219 -10.45529 -10.42624
 Alpha  occ. eigenvalues --  -10.40089 -10.38235 -10.37504 -10.36684 -10.36472
 Alpha  occ. eigenvalues --  -10.35512 -10.32203 -10.30668 -10.30426 -10.30024
 Alpha  occ. eigenvalues --   -1.21184  -1.16643  -1.15768  -1.14783  -1.12266
 Alpha  occ. eigenvalues --   -1.11597  -1.10784  -1.07622  -1.07546  -1.02714
 Alpha  occ. eigenvalues --   -1.00516  -1.00143  -0.99598  -0.92058  -0.86742
 Alpha  occ. eigenvalues --   -0.84409  -0.82749  -0.80120  -0.76831  -0.76067
 Alpha  occ. eigenvalues --   -0.75923  -0.73510  -0.69686  -0.68406  -0.68088
 Alpha  occ. eigenvalues --   -0.67484  -0.66576  -0.65606  -0.64880  -0.62983
 Alpha  occ. eigenvalues --   -0.62547  -0.60938  -0.59774  -0.59391  -0.57734
 Alpha  occ. eigenvalues --   -0.56753  -0.56604  -0.55632  -0.55219  -0.54794
 Alpha  occ. eigenvalues --   -0.54410  -0.54307  -0.53617  -0.53366  -0.52664
 Alpha  occ. eigenvalues --   -0.52279  -0.51208  -0.50933  -0.50012  -0.48160
 Alpha  occ. eigenvalues --   -0.47930  -0.47287  -0.46562  -0.46079  -0.45542
 Alpha  occ. eigenvalues --   -0.45272  -0.44245  -0.43815  -0.42615  -0.40973
 Alpha  occ. eigenvalues --   -0.37695  -0.37503  -0.36128  -0.35658  -0.34834
 Alpha  occ. eigenvalues --   -0.34007  -0.33947  -0.32844  -0.32689  -0.31537
 Alpha virt. eigenvalues --   -0.13747  -0.13368  -0.08415  -0.07738  -0.06284
 Alpha virt. eigenvalues --   -0.05791  -0.05173  -0.04807  -0.04083  -0.02800
 Alpha virt. eigenvalues --   -0.01894   0.00184   0.00589   0.01153   0.01581

 Mulliken charges:
               1
     1  N   -0.750799
     2  H    0.423791
     3  H    0.441359
     4  H    0.423788
     5  C   -0.276928
     6  H    0.249838
     7  H    0.249861
     8  C    0.640489
     9  O   -0.523976
    10  N   -0.605182
    11  H    0.381750
    12  C   -0.212048
    13  H    0.216267
    14  H    0.216222
    15  C    0.620603
    16  O   -0.534535
    17  N   -0.621901
    18  H    0.369873
    19  C   -0.200266
    20  H    0.201986
    21  H    0.201984
    22  C    0.612984
    23  O   -0.532287
    24  N   -0.623786
    25  H    0.364305
    26  C   -0.195132
    27  H    0.198290
    28  H    0.198322
    29  C    0.609636
    30  O   -0.531666
    31  N   -0.625019
    32  H    0.364432
    33  C   -0.195110
    34  H    0.197103
    35  H    0.196760
    36  C    0.602846
    37  O   -0.512981
    38  N   -0.589355
    39  H    0.344051
    40  C   -0.239900
    41  H    0.239639
    42  H    0.205781
    43  C    0.581592
    44  O   -0.437443
    45  O   -0.567002
    46  H    0.421765
 Sum of Mulliken charges =   1.00000

 Dipole moment (field-independent basis, Debye):
    X=            -18.6654    Y=             24.5064    Z=              6.0611  Tot=             31.3958
 Quadrupole moment (field-independent basis, Debye-Ang):
   XX=            -55.2814   YY=            139.5243   ZZ=           -106.5272
   XY=           -160.7444   XZ=            -60.6267   YZ=             88.6441

 Normal termination of Gaussian 16 at Thu Jul  7 14:59:22 2022.
