 Gaussian 16, Revision C.01,
 Gaussian 16:  ES64L-G16RevC.01  3-Jul-2019

 -------------------------------------------------------------------
 # B3LYP/6-31G* guess=read geom=check nosymm integral(ultrafinegrid)
 -------------------------------------------------------------------

 ------------------------------------------------------
 Candidate Structure: Conf:112 Charge calc in gas phase
 ------------------------------------------------------
 Structure from the checkpoint file:  "conf-112.chk"
 Charge =  1 Multiplicity = 1

                          Input orientation:
 ---------------------------------------------------------------------
 Center     Atomic      Atomic             Coordinates (Angstroms)
 Number     Number       Type             X           Y           Z
 ---------------------------------------------------------------------
      1          7           0       -2.343435    5.421415   -3.211959
      2          1           0       -3.163764    6.032139   -3.253113
      3          1           0       -1.679631    5.723689   -3.930285
      4          1           0       -1.884301    5.476384   -2.239496
      5          6           0       -2.675654    3.955861   -3.278085
      6          1           0       -2.183498    3.503315   -4.140583
      7          1           0       -3.755409    3.827367   -3.371714
      8          6           0       -2.133351    3.401863   -1.931358
      9          8           0       -1.615592    4.225803   -1.160154
     10          7           0       -2.268937    2.105621   -1.722666
     11          1           0       -2.687941    1.459394   -2.400656
     12          6           0       -1.785763    1.400365   -0.544401
     13          1           0       -2.294831    1.748891    0.360477
     14          1           0       -0.711792    1.561581   -0.405130
     15          6           0       -2.083575   -0.087117   -0.811518
     16          8           0       -2.655044   -0.413581   -1.851739
     17          7           0       -1.703994   -0.928753    0.169628
     18          1           0       -1.121612   -0.552234    0.916605
     19          6           0       -1.661755   -2.360244   -0.050104
     20          1           0       -2.353152   -2.594631   -0.864575
     21          1           0       -1.999902   -2.885700    0.849734
     22          6           0       -0.244233   -2.786029   -0.464862
     23          8           0        0.452222   -2.052311   -1.166258
     24          7           0        0.175014   -3.988822   -0.003143
     25          1           0       -0.425671   -4.523186    0.609679
     26          6           0        1.476732   -4.559602   -0.356066
     27          1           0        1.659436   -4.367246   -1.418551
     28          1           0        1.443801   -5.635999   -0.188372
     29          6           0        2.643136   -4.000056    0.485805
     30          8           0        3.313841   -4.716936    1.211513
     31          7           0        2.830633   -2.650558    0.342733
     32          1           0        2.260611   -2.173697   -0.352852
     33          6           0        3.930548   -1.943735    0.970266
     34          1           0        4.522754   -2.683955    1.518784
     35          1           0        4.583161   -1.478111    0.225362
     36          6           0        3.516394   -0.840135    1.948025
     37          8           0        4.258728    0.096125    2.201703
     38          7           0        2.286674   -1.002746    2.536024
     39          1           0        1.746086   -1.820950    2.294802
     40          6           0        1.843733   -0.115682    3.575253
     41          1           0        2.625893    0.639751    3.708551
     42          1           0        1.729676   -0.626327    4.541957
     43          6           0        0.532905    0.586090    3.272206
     44          8           0       -0.187954    0.401992    2.306799
     45          8           0        0.230227    1.457540    4.245039
     46          1           0       -0.628075    1.866491    4.025535
 ---------------------------------------------------------------------

 SCF Done:  E(RB3LYP) =  -1324.86530258     A.U. after    2 cycles

 Alpha  occ. eigenvalues --  -19.30035 -19.28876 -19.25271 -19.23291 -19.21881
 Alpha  occ. eigenvalues --  -19.19112 -19.18729 -14.62314 -14.51201 -14.46979
 Alpha  occ. eigenvalues --  -14.46482 -14.44228 -14.43328 -10.45680 -10.43031
 Alpha  occ. eigenvalues --  -10.42771 -10.40434 -10.39126 -10.36474 -10.36256
 Alpha  occ. eigenvalues --  -10.35444 -10.33298 -10.32308 -10.31636 -10.29770
 Alpha  occ. eigenvalues --   -1.21335  -1.21329  -1.15964  -1.15256  -1.13762
 Alpha  occ. eigenvalues --   -1.12302  -1.11157  -1.10680  -1.07720  -1.03297
 Alpha  occ. eigenvalues --   -1.02509  -1.00898  -0.99180  -0.92205  -0.87195
 Alpha  occ. eigenvalues --   -0.85127  -0.83907  -0.80929  -0.78083  -0.76240
 Alpha  occ. eigenvalues --   -0.76081  -0.73753  -0.71745  -0.70060  -0.69106
 Alpha  occ. eigenvalues --   -0.68107  -0.66630  -0.65854  -0.65047  -0.63415
 Alpha  occ. eigenvalues --   -0.62659  -0.61968  -0.61006  -0.60152  -0.59798
 Alpha  occ. eigenvalues --   -0.59444  -0.59096  -0.58109  -0.57431  -0.56334
 Alpha  occ. eigenvalues --   -0.55758  -0.55194  -0.54475  -0.53329  -0.52739
 Alpha  occ. eigenvalues --   -0.52010  -0.51379  -0.51153  -0.50653  -0.49930
 Alpha  occ. eigenvalues --   -0.48830  -0.48599  -0.47906  -0.47727  -0.46904
 Alpha  occ. eigenvalues --   -0.46460  -0.44906  -0.43975  -0.43416  -0.42666
 Alpha  occ. eigenvalues --   -0.41099  -0.39027  -0.37840  -0.37302  -0.37157
 Alpha  occ. eigenvalues --   -0.35137  -0.34663  -0.33638  -0.32352  -0.31423
 Alpha virt. eigenvalues --   -0.13914  -0.13504  -0.09640  -0.09241  -0.08184
 Alpha virt. eigenvalues --   -0.07519  -0.06429  -0.05476  -0.04786  -0.02940
 Alpha virt. eigenvalues --   -0.02442  -0.02075  -0.01809   0.00023   0.01062

 Mulliken charges:
               1
     1  N   -0.750669
     2  H    0.423545
     3  H    0.424354
     4  H    0.440756
     5  C   -0.277410
     6  H    0.250545
     7  H    0.249847
     8  C    0.640931
     9  O   -0.525998
    10  N   -0.605671
    11  H    0.381997
    12  C   -0.212439
    13  H    0.211725
    14  H    0.225441
    15  C    0.610007
    16  O   -0.525327
    17  N   -0.606782
    18  H    0.396846
    19  C   -0.254662
    20  H    0.232270
    21  H    0.171713
    22  C    0.618631
    23  O   -0.525964
    24  N   -0.590844
    25  H    0.348529
    26  C   -0.242409
    27  H    0.204731
    28  H    0.198954
    29  C    0.579196
    30  O   -0.481818
    31  N   -0.629538
    32  H    0.374031
    33  C   -0.228460
    34  H    0.229328
    35  H    0.193668
    36  C    0.588608
    37  O   -0.498250
    38  N   -0.584051
    39  H    0.337038
    40  C   -0.222471
    41  H    0.245262
    42  H    0.206440
    43  C    0.583309
    44  O   -0.493233
    45  O   -0.532524
    46  H    0.420819
 Sum of Mulliken charges =   1.00000

 Dipole moment (field-independent basis, Debye):
    X=            -13.4094    Y=             14.8555    Z=             -9.3606  Tot=             22.0934
 Quadrupole moment (field-independent basis, Debye-Ang):
   XX=           -130.0442   YY=            -29.1621   ZZ=            -85.2306
   XY=            -43.3499   XZ=             18.2070   YZ=            -66.6902

 Normal termination of Gaussian 16 at Thu Jul  7 14:59:26 2022.
