 Gaussian 16, Revision C.01,
 Gaussian 16:  ES64L-G16RevC.01  3-Jul-2019

 -------------------------------------------------------------------
 # B3LYP/6-31G* guess=read geom=check nosymm integral(ultrafinegrid)
 -------------------------------------------------------------------

 ------------------------------------------------------
 Candidate Structure: Conf:962 Charge calc in gas phase
 ------------------------------------------------------
 Structure from the checkpoint file:  "conf-962.chk"
 Charge =  1 Multiplicity = 1

                          Input orientation:
 ---------------------------------------------------------------------
 Center     Atomic      Atomic             Coordinates (Angstroms)
 Number     Number       Type             X           Y           Z
 ---------------------------------------------------------------------
      1          7           0       -3.534658   -0.359076   -5.311887
      2          1           0       -3.640655   -0.264381   -6.325070
      3          1           0       -2.518089   -0.241187   -5.064759
      4          1           0       -3.900202   -1.282459   -5.027209
      5          6           0       -4.220247    0.742994   -4.535454
      6          1           0       -4.885286    1.271305   -5.222598
      7          6           0       -3.046621    1.628505   -4.053503
      8          6           0       -5.005917    0.145229   -3.333378
      9          1           0       -4.281272   -0.107162   -2.552250
     10          1           0       -5.652884    0.940632   -2.948042
     11          8           0       -1.891509    1.220725   -4.254071
     12          6           0       -5.807814   -1.082107   -3.710817
     13          6           0       -7.016145   -0.984917   -4.417655
     14          1           0       -7.427034   -0.006619   -4.659426
     15          6           0       -5.305908   -2.354752   -3.387941
     16          1           0       -4.394968   -2.433693   -2.796418
     17          6           0       -7.710035   -2.135253   -4.790354
     18          1           0       -8.651810   -2.048065   -5.324250
     19          6           0       -6.001551   -3.507466   -3.768735
     20          1           0       -5.611791   -4.485167   -3.500986
     21          6           0       -7.201444   -3.398317   -4.470879
     22          1           0       -7.746641   -4.291792   -4.759933
     23          7           0       -3.356352    2.731114   -3.372933
     24          1           0       -4.298177    3.104304   -3.406257
     25          6           0       -2.342105    3.590985   -2.731048
     26          1           0       -1.494259    3.669180   -3.418520
     27          6           0       -1.912155    2.922378   -1.394067
     28          6           0       -2.959286    4.964096   -2.465460
     29          1           0       -2.148858    5.670832   -2.245134
     30          1           0       -3.600817    4.901953   -1.578009
     31          8           0       -2.359357    3.297034   -0.318338
     32          8           0       -3.693522    5.328245   -3.630604
     33          1           0       -4.092960    6.197730   -3.474449
     34          7           0       -1.051889    1.879041   -1.541098
     35          1           0       -0.882693    1.529844   -2.480206
     36          6           0       -0.847913    0.921047   -0.455106
     37          1           0       -0.763509    1.480062    0.480208
     38          6           0        0.423080    0.128303   -0.773172
     39          6           0       -2.039094   -0.064593   -0.352889
     40          1           0       -2.937562    0.492605   -0.074514
     41          1           0       -1.833613   -0.799170    0.440368
     42          8           0        0.434733   -0.628110   -1.761473
     43          8           0       -2.300172   -0.705181   -1.597923
     44          1           0       -1.418662   -0.999106   -1.918108
     45          7           0        1.464317    0.282483    0.053119
     46          1           0        1.440232    0.910636    0.855311
     47          6           0        2.720576   -0.441930   -0.074559
     48          1           0        2.513635   -1.505082   -0.232268
     49          6           0        3.453116   -0.216567    1.268427
     50          6           0        3.549081    0.089510   -1.269126
     51          1           0        2.877848    0.253115   -2.118246
     52          1           0        4.013217    1.052206   -1.027467
     53          8           0        3.087201    0.684024    2.022545
     54          6           0        4.634347   -0.857796   -1.730134
     55          8           0        4.935214   -1.914235   -1.203362
     56          8           0        5.238171   -0.406793   -2.840646
     57          7           0        4.490849   -1.048309    1.516430
     58          1           0        4.791745   -1.629596    0.735010
     59          6           0        5.503086   -0.682369    2.494837
     60          1           0        4.992771   -0.247222    3.359622
     61          6           0        6.398541    0.414378    1.901036
     62          6           0        6.329580   -1.904992    2.937086
     63          1           0        7.164609   -1.546661    3.545563
     64          1           0        6.776578   -2.380199    2.053425
     65          8           0        6.366405    0.795772    0.750694
     66          6           0        5.503318   -2.929583    3.725666
     67          1           0        4.632529   -3.244229    3.135151
     68          1           0        5.102268   -2.452510    4.632417
     69          6           0        6.293407   -4.189492    4.123812
     70          1           0        5.615009   -4.893672    4.620469
     71          1           0        6.667991   -4.687496    3.226196
     72          7           0        7.428236   -3.953397    5.018891
     73          1           0        7.170100   -3.513097    5.894675
     74          7           0        9.074202   -4.130931    3.360928
     75          1           0       10.040782   -3.892052    3.164837
     76          1           0        8.933513   -5.136436    3.334997
     77          7           0        9.483029   -2.716290    5.148834
     78          1           0        9.031375   -2.258022    5.943241
     79          6           0        8.686509   -3.541212    4.570889
     80          8           0        7.242798    0.907917    2.825825
     81          1           0        5.938881   -1.048773   -3.065768
     82          1           0        7.794217    1.581499    2.384098
 ---------------------------------------------------------------------

 SCF Done:  E(RB3LYP) =  -2166.26328269     A.U. after    3 cycles

 Alpha  occ. eigenvalues --  -19.27438 -19.27399 -19.26023 -19.25354 -19.23514
 Alpha  occ. eigenvalues --  -19.22352 -19.21570 -19.21529 -19.20585 -19.19738
 Alpha  occ. eigenvalues --  -14.59308 -14.50583 -14.45391 -14.45369 -14.42705
 Alpha  occ. eigenvalues --  -14.39344 -14.38000 -14.32344 -10.44114 -10.40777
 Alpha  occ. eigenvalues --  -10.40582 -10.38821 -10.38528 -10.38410 -10.36627
 Alpha  occ. eigenvalues --  -10.34945 -10.33809 -10.33023 -10.32741 -10.32551
 Alpha  occ. eigenvalues --  -10.32306 -10.31926 -10.31800 -10.30403 -10.30352
 Alpha  occ. eigenvalues --  -10.30324 -10.29975 -10.29961 -10.29702 -10.28450
 Alpha  occ. eigenvalues --  -10.27345 -10.25091 -10.24528  -1.19651  -1.18693
 Alpha  occ. eigenvalues --   -1.17010  -1.14043  -1.13621  -1.13182  -1.12527
 Alpha  occ. eigenvalues --   -1.11622  -1.10286  -1.09627  -1.08029  -1.06617
 Alpha  occ. eigenvalues --   -1.01984  -1.01636  -1.01440  -0.99939  -0.97238
 Alpha  occ. eigenvalues --   -0.92984  -0.92836  -0.88923  -0.88192  -0.87906
 Alpha  occ. eigenvalues --   -0.85961  -0.85533  -0.85389  -0.84175  -0.80284
 Alpha  occ. eigenvalues --   -0.79197  -0.78037  -0.75837  -0.74030  -0.73790
 Alpha  occ. eigenvalues --   -0.73029  -0.72789  -0.72251  -0.71383  -0.69781
 Alpha  occ. eigenvalues --   -0.69336  -0.69126  -0.67632  -0.66402  -0.66018
 Alpha  occ. eigenvalues --   -0.65641  -0.64607  -0.64162  -0.63938  -0.62981
 Alpha  occ. eigenvalues --   -0.62262  -0.61971  -0.60578  -0.60263  -0.58853
 Alpha  occ. eigenvalues --   -0.58497  -0.58448  -0.57974  -0.56988  -0.56873
 Alpha  occ. eigenvalues --   -0.56763  -0.56225  -0.56154  -0.55949  -0.54928
 Alpha  occ. eigenvalues --   -0.54405  -0.54154  -0.53766  -0.53716  -0.53277
 Alpha  occ. eigenvalues --   -0.53103  -0.52973  -0.52511  -0.52198  -0.52120
 Alpha  occ. eigenvalues --   -0.51605  -0.51524  -0.51199  -0.50536  -0.50106
 Alpha  occ. eigenvalues --   -0.49882  -0.49444  -0.49209  -0.48957  -0.48198
 Alpha  occ. eigenvalues --   -0.48069  -0.47638  -0.47577  -0.47181  -0.47014
 Alpha  occ. eigenvalues --   -0.46613  -0.46127  -0.45487  -0.45130  -0.44961
 Alpha  occ. eigenvalues --   -0.44697  -0.44439  -0.43434  -0.42995  -0.42477
 Alpha  occ. eigenvalues --   -0.41850  -0.41579  -0.40624  -0.40273  -0.39797
 Alpha  occ. eigenvalues --   -0.39740  -0.38126  -0.37849  -0.36959  -0.36398
 Alpha  occ. eigenvalues --   -0.36349  -0.36052  -0.35880  -0.35342  -0.34808
 Alpha  occ. eigenvalues --   -0.34375  -0.33921  -0.33661  -0.32709  -0.30413
 Alpha  occ. eigenvalues --   -0.29644  -0.26524
 Alpha virt. eigenvalues --   -0.13423  -0.12093  -0.11195  -0.09772  -0.08780
 Alpha virt. eigenvalues --   -0.07530  -0.07082  -0.05644  -0.05243  -0.04878
 Alpha virt. eigenvalues --   -0.03147  -0.02221  -0.01759  -0.01115  -0.00342

 Mulliken charges:
               1
     1  N   -0.752176
     2  H    0.413904
     3  H    0.433573
     4  H    0.408123
     5  C   -0.109321
     6  H    0.213108
     7  C    0.672937
     8  C   -0.408263
     9  H    0.252173
    10  H    0.187556
    11  O   -0.553308
    12  C    0.119186
    13  C   -0.181879
    14  H    0.140897
    15  C   -0.234868
    16  H    0.176161
    17  C   -0.123790
    18  H    0.165415
    19  C   -0.121307
    20  H    0.166194
    21  C   -0.123771
    22  H    0.167408
    23  N   -0.585015
    24  H    0.365633
    25  C   -0.080871
    26  H    0.202168
    27  C    0.626521
    28  C   -0.072185
    29  H    0.172840
    30  H    0.180767
    31  O   -0.505843
    32  O   -0.636328
    33  H    0.419312
    34  N   -0.613933
    35  H    0.377550
    36  C   -0.081707
    37  H    0.191425
    38  C    0.633083
    39  C   -0.041023
    40  H    0.170881
    41  H    0.152734
    42  O   -0.574019
    43  O   -0.662941
    44  H    0.421480
    45  N   -0.620437
    46  H    0.372072
    47  C   -0.047651
    48  H    0.197510
    49  C    0.611519
    50  C   -0.371647
    51  H    0.209866
    52  H    0.221657
    53  O   -0.531624
    54  C    0.621648
    55  O   -0.485907
    56  O   -0.552796
    57  N   -0.608950
    58  H    0.378932
    59  C   -0.059362
    60  H    0.202491
    61  C    0.599747
    62  C   -0.296279
    63  H    0.192652
    64  H    0.161253
    65  O   -0.478938
    66  C   -0.263339
    67  H    0.145726
    68  H    0.136186
    69  C   -0.148568
    70  H    0.153121
    71  H    0.163502
    72  N   -0.582746
    73  H    0.311280
    74  N   -0.740116
    75  H    0.339751
    76  H    0.323559
    77  N   -0.632337
    78  H    0.263772
    79  C    0.553731
    80  O   -0.554571
    81  H    0.424242
    82  H    0.422569
 Sum of Mulliken charges =   1.00000

 Dipole moment (field-independent basis, Debye):
    X=            -13.9653    Y=             -0.4891    Z=            -18.6252  Tot=             23.2845
 Quadrupole moment (field-independent basis, Debye-Ang):
   XX=           -135.8739   YY=           -192.2653   ZZ=           -139.0657
   XY=            -16.9081   XZ=             87.3834   YZ=            -10.2138

 Normal termination of Gaussian 16 at Thu May 26 21:15:50 2022.
