 Gaussian 16, Revision C.01,
 Gaussian 16:  ES64L-G16RevC.01  3-Jul-2019

 -------------------------------------------------------------------
 # B3LYP/6-31G* guess=read geom=check nosymm integral(ultrafinegrid)
 -------------------------------------------------------------------

 ------------------------------------------------------
 Candidate Structure: Conf:315 Charge calc in gas phase
 ------------------------------------------------------
 Structure from the checkpoint file:  "conf-315.chk"
 Charge =  1 Multiplicity = 1

                          Input orientation:
 ---------------------------------------------------------------------
 Center     Atomic      Atomic             Coordinates (Angstroms)
 Number     Number       Type             X           Y           Z
 ---------------------------------------------------------------------
      1          7           0       -5.299368   -0.275414   -3.169805
      2          1           0       -5.907902    0.339960   -3.716318
      3          1           0       -4.789073   -0.918527   -3.834237
      4          1           0       -5.872598   -0.785321   -2.481671
      5          6           0       -4.163276    0.461758   -2.494832
      6          1           0       -4.445122    1.511064   -2.395483
      7          6           0       -2.980310    0.253546   -3.469585
      8          6           0       -3.872975   -0.169432   -1.109390
      9          1           0       -3.393048   -1.144902   -1.255842
     10          1           0       -3.131820    0.485180   -0.636534
     11          8           0       -3.086339   -0.672064   -4.292840
     12          6           0       -5.124420   -0.304405   -0.266985
     13          6           0       -5.708586    0.815074    0.346577
     14          1           0       -5.230352    1.788856    0.259922
     15          6           0       -5.755170   -1.551773   -0.130211
     16          1           0       -5.294415   -2.437850   -0.563973
     17          6           0       -6.886988    0.690110    1.080488
     18          1           0       -7.320966    1.563834    1.557996
     19          6           0       -6.939864   -1.677506    0.603420
     20          1           0       -7.407339   -2.651957    0.710336
     21          6           0       -7.507430   -0.556671    1.207684
     22          1           0       -8.423950   -0.652104    1.781998
     23          7           0       -1.931314    1.057702   -3.312105
     24          1           0       -1.922464    1.743302   -2.511582
     25          6           0       -0.682337    0.833561   -4.057876
     26          1           0       -0.870430    0.053889   -4.799357
     27          6           0        0.347875    0.352458   -3.018550
     28          6           0       -0.214462    2.115972   -4.766893
     29          1           0       -0.208170    2.954963   -4.057069
     30          1           0       -0.927411    2.357056   -5.560717
     31          8           0        1.157314    1.157562   -2.541701
     32          8           0        1.041020    1.917428   -5.375949
     33          1           0        1.702969    1.939268   -4.665433
     34          7           0        0.219122   -0.933811   -2.618755
     35          1           0       -0.533935   -1.450653   -3.069031
     36          6           0        0.427422   -1.451899   -1.250335
     37          1           0       -0.177789   -0.830221   -0.571095
     38          6           0        1.845711   -1.480951   -0.609216
     39          6           0       -0.138122   -2.876572   -1.228675
     40          1           0       -0.168859   -3.234114   -0.197103
     41          1           0        0.518448   -3.540229   -1.803225
     42          8           0        2.189799   -2.489039    0.001268
     43          8           0       -1.451240   -2.824309   -1.809786
     44          1           0       -1.710877   -3.730448   -2.034126
     45          7           0        2.550415   -0.324997   -0.622226
     46          1           0        2.194120    0.464301   -1.162006
     47          6           0        3.623408   -0.072987    0.332059
     48          1           0        3.635182   -0.910226    1.031960
     49          6           0        3.245531    1.238740    1.052031
     50          6           0        5.000643    0.024121   -0.345714
     51          1           0        5.121407   -0.813342   -1.042263
     52          1           0        5.089951    0.941245   -0.939732
     53          8           0        2.810326    2.192165    0.394479
     54          6           0        6.123381   -0.033097    0.669142
     55          8           0        5.971192   -0.153899    1.868334
     56          8           0        7.332092    0.051687    0.084870
     57          7           0        3.349776    1.257567    2.397353
     58          1           0        3.952333    0.571975    2.848589
     59          6           0        3.018982    2.449499    3.169834
     60          1           0        3.091787    3.318149    2.509275
     61          6           0        4.051049    2.586230    4.283898
     62          6           0        1.600080    2.375774    3.800619
     63          1           0        1.465303    3.258968    4.437042
     64          1           0        1.582252    1.503164    4.464591
     65          8           0        4.785754    1.697471    4.649383
     66          6           0        0.434707    2.262135    2.801622
     67          1           0       -0.437111    1.870550    3.343065
     68          1           0        0.672328    1.520610    2.030700
     69          6           0        0.021557    3.587938    2.133235
     70          1           0       -0.307151    4.301140    2.898046
     71          1           0        0.861811    4.060441    1.618398
     72          7           0       -1.075322    3.436681    1.175008
     73          1           0       -1.967364    3.190042    1.581842
     74          7           0        0.320699    3.139075   -0.660974
     75          1           0        0.435686    2.774644   -1.597565
     76          1           0        1.141586    2.974598   -0.085362
     77          7           0       -1.940181    2.706850   -0.915209
     78          1           0       -2.823011    2.904299   -0.442064
     79          6           0       -0.929539    3.059341   -0.143958
     80          8           0        4.012688    3.811843    4.841992
     81          1           0        7.998155   -0.007415    0.796868
     82          1           0        4.668284    3.817027    5.566075
 ---------------------------------------------------------------------

 SCF Done:  E(RB3LYP) =  -2166.27678963     A.U. after    2 cycles

 Alpha  occ. eigenvalues --  -19.27807 -19.26844 -19.26283 -19.25725 -19.23892
 Alpha  occ. eigenvalues --  -19.22289 -19.22222 -19.21605 -19.20833 -19.19780
 Alpha  occ. eigenvalues --  -14.58828 -14.47901 -14.46725 -14.44619 -14.44171
 Alpha  occ. eigenvalues --  -14.43298 -14.41148 -14.38172 -10.42402 -10.40260
 Alpha  occ. eigenvalues --  -10.40244 -10.39797 -10.39693 -10.37771 -10.37746
 Alpha  occ. eigenvalues --  -10.37515 -10.33892 -10.33546 -10.33369 -10.32627
 Alpha  occ. eigenvalues --  -10.32327 -10.32128 -10.32048 -10.31771 -10.30898
 Alpha  occ. eigenvalues --  -10.30870 -10.30707 -10.30331 -10.30310 -10.29999
 Alpha  occ. eigenvalues --  -10.28172 -10.27969 -10.27535  -1.18784  -1.18063
 Alpha  occ. eigenvalues --   -1.17965  -1.15418  -1.13114  -1.12834  -1.12742
 Alpha  occ. eigenvalues --   -1.11582  -1.09934  -1.09918  -1.09001  -1.06449
 Alpha  occ. eigenvalues --   -1.04898  -1.02935  -1.01205  -1.00280  -0.97452
 Alpha  occ. eigenvalues --   -0.96983  -0.92830  -0.92452  -0.88836  -0.88149
 Alpha  occ. eigenvalues --   -0.86942  -0.85959  -0.85794  -0.84086  -0.82909
 Alpha  occ. eigenvalues --   -0.78792  -0.77993  -0.76035  -0.74959  -0.73152
 Alpha  occ. eigenvalues --   -0.72834  -0.72516  -0.71644  -0.71028  -0.70085
 Alpha  occ. eigenvalues --   -0.69931  -0.69547  -0.69248  -0.68716  -0.66919
 Alpha  occ. eigenvalues --   -0.66615  -0.66239  -0.65184  -0.64059  -0.63181
 Alpha  occ. eigenvalues --   -0.62631  -0.62191  -0.61565  -0.60624  -0.59389
 Alpha  occ. eigenvalues --   -0.59331  -0.58634  -0.58264  -0.57573  -0.57284
 Alpha  occ. eigenvalues --   -0.57196  -0.56876  -0.56577  -0.56344  -0.56006
 Alpha  occ. eigenvalues --   -0.55724  -0.55490  -0.55281  -0.54691  -0.53805
 Alpha  occ. eigenvalues --   -0.53571  -0.53537  -0.53349  -0.52966  -0.52760
 Alpha  occ. eigenvalues --   -0.52317  -0.52060  -0.51871  -0.51582  -0.51046
 Alpha  occ. eigenvalues --   -0.50695  -0.50414  -0.49845  -0.49687  -0.49455
 Alpha  occ. eigenvalues --   -0.48705  -0.48287  -0.48115  -0.48029  -0.47465
 Alpha  occ. eigenvalues --   -0.47312  -0.46454  -0.46013  -0.45696  -0.45560
 Alpha  occ. eigenvalues --   -0.45350  -0.44992  -0.44771  -0.44534  -0.43881
 Alpha  occ. eigenvalues --   -0.43291  -0.42410  -0.41993  -0.40408  -0.39846
 Alpha  occ. eigenvalues --   -0.39806  -0.39208  -0.38591  -0.37658  -0.37580
 Alpha  occ. eigenvalues --   -0.36710  -0.36613  -0.36192  -0.36150  -0.35598
 Alpha  occ. eigenvalues --   -0.35353  -0.34853  -0.34251  -0.33483  -0.32993
 Alpha  occ. eigenvalues --   -0.32885  -0.30959
 Alpha virt. eigenvalues --   -0.13107  -0.12269  -0.11259  -0.09354  -0.08923
 Alpha virt. eigenvalues --   -0.08177  -0.07183  -0.06425  -0.05783  -0.04909
 Alpha virt. eigenvalues --   -0.04002  -0.03173  -0.02777  -0.01376  -0.00726

 Mulliken charges:
               1
     1  N   -0.752099
     2  H    0.413041
     3  H    0.424964
     4  H    0.402893
     5  C   -0.105313
     6  H    0.213570
     7  C    0.639614
     8  C   -0.414178
     9  H    0.207289
    10  H    0.212746
    11  O   -0.555757
    12  C    0.132781
    13  C   -0.185635
    14  H    0.135997
    15  C   -0.224607
    16  H    0.147555
    17  C   -0.123007
    18  H    0.163866
    19  C   -0.119831
    20  H    0.165193
    21  C   -0.125452
    22  H    0.167698
    23  N   -0.634290
    24  H    0.423308
    25  C   -0.106223
    26  H    0.209433
    27  C    0.634894
    28  C   -0.034278
    29  H    0.152276
    30  H    0.166002
    31  O   -0.548488
    32  O   -0.606318
    33  H    0.414357
    34  N   -0.609637
    35  H    0.371215
    36  C   -0.075610
    37  H    0.179128
    38  C    0.618409
    39  C   -0.067562
    40  H    0.184422
    41  H    0.174496
    42  O   -0.510678
    43  O   -0.645242
    44  H    0.417315
    45  N   -0.646683
    46  H    0.397348
    47  C   -0.041031
    48  H    0.203351
    49  C    0.610293
    50  C   -0.371067
    51  H    0.210341
    52  H    0.202790
    53  O   -0.556760
    54  C    0.595779
    55  O   -0.465259
    56  O   -0.556798
    57  N   -0.596325
    58  H    0.387852
    59  C   -0.050329
    60  H    0.200866
    61  C    0.581488
    62  C   -0.274416
    63  H    0.170125
    64  H    0.161943
    65  O   -0.445365
    66  C   -0.265641
    67  H    0.140103
    68  H    0.150995
    69  C   -0.166136
    70  H    0.166282
    71  H    0.186300
    72  N   -0.592755
    73  H    0.315198
    74  N   -0.803476
    75  H    0.367123
    76  H    0.400578
    77  N   -0.776447
    78  H    0.267878
    79  C    0.675086
    80  O   -0.562075
    81  H    0.423563
    82  H    0.427024
 Sum of Mulliken charges =   1.00000

 Dipole moment (field-independent basis, Debye):
    X=            -16.2736    Y=              1.5035    Z=             -2.4866  Tot=             16.5310
 Quadrupole moment (field-independent basis, Debye-Ang):
   XX=            -97.5996   YY=           -226.6039   ZZ=           -213.3344
   XY=             16.6783   XZ=             44.1465   YZ=             30.0054

 Normal termination of Gaussian 16 at Thu May 26 21:15:41 2022.
