 Gaussian 16, Revision C.01,
 Gaussian 16:  ES64L-G16RevC.01  3-Jul-2019

 -------------------------------------------------------------------
 # B3LYP/6-31G* guess=read geom=check nosymm integral(ultrafinegrid)
 -------------------------------------------------------------------

 ------------------------------------------------------
 Candidate Structure: Conf:752 Charge calc in gas phase
 ------------------------------------------------------
 Structure from the checkpoint file:  "conf-752.chk"
 Charge =  1 Multiplicity = 1

                          Input orientation:
 ---------------------------------------------------------------------
 Center     Atomic      Atomic             Coordinates (Angstroms)
 Number     Number       Type             X           Y           Z
 ---------------------------------------------------------------------
      1          7           0       -3.595677   -4.630338    0.507976
      2          1           0       -3.886310   -5.586814    0.721372
      3          1           0       -2.685528   -4.384765    0.988055
      4          1           0       -4.324245   -3.965245    0.822549
      5          6           0       -3.279729   -4.389177   -0.950457
      6          1           0       -3.176176   -5.367354   -1.429261
      7          6           0       -1.874841   -3.717189   -0.899820
      8          6           0       -4.415161   -3.577852   -1.627967
      9          1           0       -4.067496   -3.272086   -2.620050
     10          1           0       -5.257278   -4.258361   -1.798653
     11          8           0       -1.321292   -3.628732    0.209891
     12          6           0       -4.866683   -2.381904   -0.812905
     13          6           0       -5.973490   -2.505474    0.046377
     14          1           0       -6.558728   -3.425002    0.048838
     15          6           0       -4.175978   -1.161093   -0.865331
     16          1           0       -3.327817   -1.031104   -1.533993
     17          6           0       -6.377107   -1.432692    0.847942
     18          1           0       -7.242736   -1.537710    1.495319
     19          6           0       -4.588288   -0.092016   -0.069053
     20          1           0       -4.056177    0.852858   -0.129696
     21          6           0       -5.681141   -0.225642    0.792222
     22          1           0       -5.996280    0.612915    1.405907
     23          7           0       -1.361556   -3.342444   -2.062524
     24          1           0       -1.921010   -3.354801   -2.914329
     25          6           0       -0.103591   -2.608438   -2.247690
     26          1           0        0.692543   -3.056351   -1.645666
     27          6           0       -0.318722   -1.125789   -1.888148
     28          6           0        0.195935   -2.694304   -3.763573
     29          1           0        0.484735   -3.714056   -4.033950
     30          1           0        1.028165   -2.022262   -4.009249
     31          8           0       -1.266007   -0.505856   -2.404796
     32          8           0       -0.977307   -2.391992   -4.505166
     33          1           0       -1.248118   -1.492349   -4.227742
     34          7           0        0.596651   -0.597798   -1.070217
     35          1           0        1.337003   -1.212622   -0.679035
     36          6           0        0.569907    0.792667   -0.656681
     37          1           0        0.031354    1.374243   -1.410579
     38          6           0        2.004077    1.301168   -0.506046
     39          6           0       -0.195563    0.923558    0.702244
     40          1           0        0.246538    0.220346    1.420634
     41          1           0       -1.229186    0.612546    0.517220
     42          8           0        2.973983    0.551478   -0.460506
     43          8           0       -0.221333    2.243429    1.205072
     44          1           0        0.570362    2.357221    1.774499
     45          7           0        2.111094    2.660364   -0.352614
     46          1           0        1.239217    3.121856   -0.102166
     47          6           0        3.313618    3.155755    0.302800
     48          1           0        4.171469    2.797401   -0.268038
     49          6           0        3.378713    2.573866    1.737610
     50          6           0        3.309644    4.693565    0.318093
     51          1           0        3.170668    5.046351   -0.711988
     52          1           0        2.481718    5.083926    0.917064
     53          8           0        2.354059    2.388282    2.405187
     54          6           0        4.583647    5.324683    0.849650
     55          8           0        4.638611    6.336278    1.502793
     56          8           0        5.694096    4.629307    0.472561
     57          7           0        4.615753    2.286900    2.190098
     58          1           0        5.405239    2.525196    1.602922
     59          6           0        4.885630    1.727256    3.509226
     60          1           0        4.083513    2.069677    4.174056
     61          6           0        6.184272    2.274545    4.102980
     62          6           0        4.906581    0.174957    3.518222
     63          1           0        5.518130   -0.148152    4.367450
     64          1           0        5.413947   -0.159428    2.602959
     65          8           0        6.643011    1.897971    5.154238
     66          6           0        3.509479   -0.453818    3.636231
     67          1           0        2.828737   -0.042018    2.885844
     68          1           0        3.093020   -0.181641    4.615343
     69          6           0        3.515503   -1.990104    3.520329
     70          1           0        4.371550   -2.413743    4.058958
     71          1           0        2.622973   -2.390976    4.004980
     72          7           0        3.563607   -2.505931    2.146699
     73          1           0        4.424414   -2.308746    1.651695
     74          7           0        1.242182   -2.757229    1.938962
     75          1           0        0.504882   -3.002181    1.284755
     76          1           0        1.251517   -3.356444    2.755259
     77          7           0        2.496291   -2.506827    0.014775
     78          1           0        3.406917   -2.192032   -0.319030
     79          6           0        2.466433   -2.581844    1.310437
     80          8           0        6.774672    3.225339    3.337440
     81          1           0        6.456619    5.109724    0.848202
     82          1           0        7.576806    3.500726    3.822627
 ---------------------------------------------------------------------

 SCF Done:  E(RB3LYP) =  -2166.28150882     A.U. after    2 cycles

 Alpha  occ. eigenvalues --  -19.28386 -19.27598 -19.27363 -19.24054 -19.22063
 Alpha  occ. eigenvalues --  -19.21547 -19.21478 -19.21091 -19.20978 -19.20263
 Alpha  occ. eigenvalues --  -14.59323 -14.49609 -14.45174 -14.44237 -14.43692
 Alpha  occ. eigenvalues --  -14.43335 -14.42332 -14.36924 -10.43900 -10.40919
 Alpha  occ. eigenvalues --  -10.40529 -10.40014 -10.38001 -10.37856 -10.36950
 Alpha  occ. eigenvalues --  -10.36839 -10.34081 -10.33426 -10.33369 -10.32630
 Alpha  occ. eigenvalues --  -10.32309 -10.31728 -10.31306 -10.31149 -10.30637
 Alpha  occ. eigenvalues --  -10.30341 -10.29840 -10.29394 -10.29359 -10.29312
 Alpha  occ. eigenvalues --  -10.28977 -10.27179 -10.26095  -1.19361  -1.19040
 Alpha  occ. eigenvalues --   -1.18175  -1.13731  -1.13196  -1.12930  -1.11771
 Alpha  occ. eigenvalues --   -1.10956  -1.09948  -1.09261  -1.08930  -1.05967
 Alpha  occ. eigenvalues --   -1.05850  -1.01744  -1.01074  -1.00710  -0.97075
 Alpha  occ. eigenvalues --   -0.96784  -0.92886  -0.92398  -0.88756  -0.87994
 Alpha  occ. eigenvalues --   -0.86945  -0.85599  -0.85141  -0.83000  -0.82591
 Alpha  occ. eigenvalues --   -0.79555  -0.77016  -0.75617  -0.74771  -0.74282
 Alpha  occ. eigenvalues --   -0.73592  -0.72495  -0.71475  -0.70830  -0.70171
 Alpha  occ. eigenvalues --   -0.69706  -0.69343  -0.68616  -0.67788  -0.67283
 Alpha  occ. eigenvalues --   -0.66478  -0.65840  -0.65206  -0.63469  -0.63177
 Alpha  occ. eigenvalues --   -0.62804  -0.61766  -0.61131  -0.60482  -0.59570
 Alpha  occ. eigenvalues --   -0.59124  -0.58978  -0.58551  -0.57325  -0.56894
 Alpha  occ. eigenvalues --   -0.56556  -0.56389  -0.56188  -0.56050  -0.55556
 Alpha  occ. eigenvalues --   -0.55165  -0.54742  -0.54355  -0.54236  -0.53583
 Alpha  occ. eigenvalues --   -0.53449  -0.53209  -0.52894  -0.52782  -0.52611
 Alpha  occ. eigenvalues --   -0.51944  -0.51905  -0.51473  -0.51204  -0.51007
 Alpha  occ. eigenvalues --   -0.50904  -0.50569  -0.50118  -0.49755  -0.49124
 Alpha  occ. eigenvalues --   -0.48697  -0.48415  -0.47759  -0.47491  -0.47007
 Alpha  occ. eigenvalues --   -0.46937  -0.46830  -0.46270  -0.45811  -0.45005
 Alpha  occ. eigenvalues --   -0.44863  -0.44576  -0.44328  -0.43369  -0.43260
 Alpha  occ. eigenvalues --   -0.42262  -0.41962  -0.41859  -0.40533  -0.40281
 Alpha  occ. eigenvalues --   -0.39870  -0.39617  -0.37290  -0.37064  -0.36673
 Alpha  occ. eigenvalues --   -0.36098  -0.35772  -0.35691  -0.35431  -0.35197
 Alpha  occ. eigenvalues --   -0.34613  -0.34261  -0.34189  -0.33777  -0.33304
 Alpha  occ. eigenvalues --   -0.32359  -0.30533
 Alpha virt. eigenvalues --   -0.13036  -0.12032  -0.11693  -0.08961  -0.07892
 Alpha virt. eigenvalues --   -0.07447  -0.07385  -0.06701  -0.05825  -0.04368
 Alpha virt. eigenvalues --   -0.03543  -0.03421  -0.01749  -0.01611  -0.01316

 Mulliken charges:
               1
     1  N   -0.758419
     2  H    0.409810
     3  H    0.428785
     4  H    0.404771
     5  C   -0.114059
     6  H    0.225920
     7  C    0.676934
     8  C   -0.386533
     9  H    0.208406
    10  H    0.189125
    11  O   -0.553508
    12  C    0.118172
    13  C   -0.233044
    14  H    0.142409
    15  C   -0.193399
    16  H    0.198557
    17  C   -0.119345
    18  H    0.163436
    19  C   -0.138730
    20  H    0.174071
    21  C   -0.121972
    22  H    0.167582
    23  N   -0.589002
    24  H    0.368762
    25  C   -0.129145
    26  H    0.225193
    27  C    0.632378
    28  C   -0.066901
    29  H    0.176813
    30  H    0.175481
    31  O   -0.571882
    32  O   -0.629050
    33  H    0.422464
    34  N   -0.628455
    35  H    0.435396
    36  C   -0.097410
    37  H    0.195929
    38  C    0.609719
    39  C   -0.048758
    40  H    0.159866
    41  H    0.152693
    42  O   -0.533744
    43  O   -0.647397
    44  H    0.439473
    45  N   -0.603637
    46  H    0.348383
    47  C   -0.055912
    48  H    0.199184
    49  C    0.645912
    50  C   -0.379798
    51  H    0.211430
    52  H    0.200063
    53  O   -0.566756
    54  C    0.582734
    55  O   -0.433702
    56  O   -0.576005
    57  N   -0.598083
    58  H    0.365997
    59  C   -0.052246
    60  H    0.217937
    61  C    0.585320
    62  C   -0.273302
    63  H    0.183816
    64  H    0.138153
    65  O   -0.441279
    66  C   -0.273651
    67  H    0.182183
    68  H    0.152357
    69  C   -0.156563
    70  H    0.164649
    71  H    0.152971
    72  N   -0.589177
    73  H    0.327846
    74  N   -0.771334
    75  H    0.367886
    76  H    0.328039
    77  N   -0.719117
    78  H    0.296076
    79  C    0.629440
    80  O   -0.580768
    81  H    0.422584
    82  H    0.426977
 Sum of Mulliken charges =   1.00000

 Dipole moment (field-independent basis, Debye):
    X=             -5.4262    Y=            -14.7036    Z=              2.4326  Tot=             15.8606
 Quadrupole moment (field-independent basis, Debye-Ang):
   XX=           -123.7448   YY=           -158.3095   ZZ=           -243.5834
   XY=             79.9233   XZ=              3.1148   YZ=             -9.2469

 Normal termination of Gaussian 16 at Thu May 26 21:36:10 2022.
