 Gaussian 16, Revision C.01,
 Gaussian 16:  ES64L-G16RevC.01  3-Jul-2019

 -------------------------------------------------------------------
 # B3LYP/6-31G* guess=read geom=check nosymm integral(ultrafinegrid)
 -------------------------------------------------------------------

 ------------------------------------------------------
 Candidate Structure: Conf:497 Charge calc in gas phase
 ------------------------------------------------------
 Structure from the checkpoint file:  "conf-497.chk"
 Charge =  1 Multiplicity = 1

                          Input orientation:
 ---------------------------------------------------------------------
 Center     Atomic      Atomic             Coordinates (Angstroms)
 Number     Number       Type             X           Y           Z
 ---------------------------------------------------------------------
      1          7           0       -5.267334   -2.240485   -5.756216
      2          1           0       -5.941602   -1.706972   -6.312331
      3          1           0       -4.318472   -2.216236   -6.246341
      4          1           0       -5.611610   -3.199605   -5.655739
      5          6           0       -4.932914   -1.587039   -4.426069
      6          1           0       -5.664041   -0.796443   -4.245647
      7          6           0       -3.529070   -0.978570   -4.708356
      8          6           0       -4.976992   -2.636200   -3.291141
      9          1           0       -5.993592   -3.053809   -3.265783
     10          1           0       -4.289954   -3.454242   -3.541327
     11          8           0       -2.947754   -1.342347   -5.745632
     12          6           0       -4.607352   -2.049135   -1.943135
     13          6           0       -3.438160   -2.459260   -1.290856
     14          1           0       -2.818665   -3.234856   -1.736392
     15          6           0       -5.407965   -1.059730   -1.352091
     16          1           0       -6.339983   -0.751441   -1.823849
     17          6           0       -3.057062   -1.884451   -0.076437
     18          1           0       -2.150569   -2.213049    0.430882
     19          6           0       -5.021549   -0.469805   -0.147321
     20          1           0       -5.642736    0.302273    0.297280
     21          6           0       -3.843397   -0.874765    0.485060
     22          1           0       -3.529582   -0.397702    1.408025
     23          7           0       -3.060723   -0.113027   -3.821469
     24          1           0       -3.623637    0.163477   -3.020588
     25          6           0       -1.810151    0.632295   -3.979361
     26          1           0       -1.052259   -0.024513   -4.414760
     27          6           0       -1.435852    1.117042   -2.575767
     28          6           0       -2.036922    1.865194   -4.899448
     29          1           0       -2.208098    1.512682   -5.920488
     30          1           0       -1.118247    2.472708   -4.900882
     31          8           0       -2.337506    1.631499   -1.886679
     32          8           0       -3.178700    2.599072   -4.525897
     33          1           0       -3.076795    2.857033   -3.592239
     34          7           0       -0.158850    0.998943   -2.213462
     35          1           0        0.523879    0.520150   -2.803959
     36          6           0        0.440057    1.478169   -0.965951
     37          1           0        0.314613    2.565757   -0.888285
     38          6           0        1.941495    1.139383   -1.112025
     39          6           0       -0.187284    0.846891    0.310066
     40          1           0        0.524266    0.930770    1.137441
     41          1           0       -0.343547   -0.227363    0.131361
     42          8           0        2.344462    0.468791   -2.064578
     43          8           0       -1.357201    1.508943    0.731776
     44          1           0       -1.948184    1.575363   -0.043410
     45          7           0        2.742886    1.622233   -0.140126
     46          1           0        2.344421    2.034434    0.701349
     47          6           0        4.096568    1.124850    0.066388
     48          1           0        4.189530    0.160887   -0.440934
     49          6           0        4.225212    0.929636    1.597746
     50          6           0        5.151826    2.083064   -0.524163
     51          1           0        4.803396    2.430649   -1.503458
     52          1           0        5.278836    2.980026    0.093468
     53          8           0        3.416480    1.474698    2.353661
     54          6           0        6.497892    1.419876   -0.729685
     55          8           0        6.760390    0.262627   -0.462716
     56          8           0        7.388504    2.263513   -1.276478
     57          7           0        5.222011    0.122578    2.012995
     58          1           0        5.918121   -0.193508    1.339357
     59          6           0        5.431783   -0.172514    3.421929
     60          1           0        4.977675    0.636456    4.002715
     61          6           0        6.931235   -0.187225    3.692308
     62          6           0        4.785732   -1.516627    3.851405
     63          1           0        5.002791   -1.669233    4.915151
     64          1           0        5.276012   -2.332915    3.302799
     65          8           0        7.790058   -0.170913    2.839747
     66          6           0        3.274177   -1.554495    3.598304
     67          1           0        3.077336   -1.396066    2.533017
     68          1           0        2.786542   -0.731424    4.136010
     69          6           0        2.627011   -2.886424    4.001944
     70          1           0        3.126185   -3.716346    3.492434
     71          1           0        2.741875   -3.069103    5.076355
     72          7           0        1.187628   -2.946007    3.709305
     73          1           0        0.633447   -2.361275    4.324286
     74          7           0        1.468305   -3.680687    1.508929
     75          1           0        0.989605   -3.785882    0.622410
     76          1           0        1.810165   -4.566680    1.864511
     77          7           0       -0.374178   -2.360982    1.988558
     78          1           0       -0.756622   -1.745121    2.708212
     79          6           0        0.696148   -2.948450    2.407414
     80          8           0        7.189583   -0.249902    5.014696
     81          1           0        8.225650    1.770056   -1.376847
     82          1           0        8.160641   -0.281595    5.112217
 ---------------------------------------------------------------------

 SCF Done:  E(RB3LYP) =  -2166.26552682     A.U. after    1 cycles

 Alpha  occ. eigenvalues --  -19.27153 -19.26937 -19.26648 -19.23362 -19.23174
 Alpha  occ. eigenvalues --  -19.21996 -19.21062 -19.21038 -19.19992 -19.19559
 Alpha  occ. eigenvalues --  -14.60059 -14.49655 -14.46645 -14.44308 -14.43203
 Alpha  occ. eigenvalues --  -14.41617 -14.40865 -14.35475 -10.43603 -10.40883
 Alpha  occ. eigenvalues --  -10.40210 -10.40135 -10.39099 -10.38022 -10.36669
 Alpha  occ. eigenvalues --  -10.34920 -10.34891 -10.34071 -10.33504 -10.32465
 Alpha  occ. eigenvalues --  -10.31821 -10.30996 -10.30675 -10.30388 -10.28916
 Alpha  occ. eigenvalues --  -10.28915 -10.28471 -10.28435 -10.28145 -10.27448
 Alpha  occ. eigenvalues --  -10.27035 -10.26278 -10.24992  -1.19344  -1.18353
 Alpha  occ. eigenvalues --   -1.17619  -1.15078  -1.13801  -1.12968  -1.11409
 Alpha  occ. eigenvalues --   -1.11027  -1.09350  -1.08715  -1.07795  -1.06085
 Alpha  occ. eigenvalues --   -1.04158  -1.02934  -1.01170  -1.00020  -0.96165
 Alpha  occ. eigenvalues --   -0.95211  -0.92383  -0.90913  -0.88666  -0.87763
 Alpha  occ. eigenvalues --   -0.86202  -0.84904  -0.83601  -0.83387  -0.81379
 Alpha  occ. eigenvalues --   -0.79429  -0.77344  -0.76357  -0.74062  -0.73913
 Alpha  occ. eigenvalues --   -0.73804  -0.72886  -0.70861  -0.69836  -0.69616
 Alpha  occ. eigenvalues --   -0.69068  -0.67891  -0.67654  -0.67369  -0.66734
 Alpha  occ. eigenvalues --   -0.66230  -0.66164  -0.65114  -0.63283  -0.62410
 Alpha  occ. eigenvalues --   -0.61444  -0.61407  -0.60476  -0.60128  -0.59372
 Alpha  occ. eigenvalues --   -0.58521  -0.58278  -0.57827  -0.56943  -0.56740
 Alpha  occ. eigenvalues --   -0.56257  -0.55941  -0.55777  -0.55486  -0.55008
 Alpha  occ. eigenvalues --   -0.54957  -0.54758  -0.54292  -0.53668  -0.53321
 Alpha  occ. eigenvalues --   -0.52781  -0.52437  -0.52390  -0.52116  -0.51809
 Alpha  occ. eigenvalues --   -0.51494  -0.51276  -0.50841  -0.50749  -0.50588
 Alpha  occ. eigenvalues --   -0.50050  -0.49811  -0.49468  -0.49321  -0.48800
 Alpha  occ. eigenvalues --   -0.48642  -0.48009  -0.47896  -0.47060  -0.46407
 Alpha  occ. eigenvalues --   -0.46115  -0.45318  -0.44964  -0.44824  -0.43892
 Alpha  occ. eigenvalues --   -0.43670  -0.43576  -0.43427  -0.43038  -0.42569
 Alpha  occ. eigenvalues --   -0.42021  -0.41618  -0.41305  -0.40452  -0.39528
 Alpha  occ. eigenvalues --   -0.39244  -0.38714  -0.37187  -0.36319  -0.35934
 Alpha  occ. eigenvalues --   -0.35638  -0.35376  -0.34938  -0.34602  -0.34269
 Alpha  occ. eigenvalues --   -0.34080  -0.33675  -0.33407  -0.32947  -0.32513
 Alpha  occ. eigenvalues --   -0.32169  -0.29196
 Alpha virt. eigenvalues --   -0.12571  -0.11233  -0.10417  -0.09577  -0.09055
 Alpha virt. eigenvalues --   -0.06951  -0.06743  -0.06095  -0.06012  -0.05244
 Alpha virt. eigenvalues --   -0.02999  -0.01751  -0.01437  -0.00795  -0.00496

 Mulliken charges:
               1
     1  N   -0.761153
     2  H    0.418423
     3  H    0.435097
     4  H    0.414002
     5  C   -0.113018
     6  H    0.223264
     7  C    0.658505
     8  C   -0.375474
     9  H    0.184478
    10  H    0.179532
    11  O   -0.548146
    12  C    0.149345
    13  C   -0.190517
    14  H    0.134259
    15  C   -0.211776
    16  H    0.128903
    17  C   -0.149425
    18  H    0.218529
    19  C   -0.119548
    20  H    0.158384
    21  C   -0.139991
    22  H    0.169929
    23  N   -0.577809
    24  H    0.384104
    25  C   -0.079209
    26  H    0.190866
    27  C    0.631269
    28  C   -0.034138
    29  H    0.177444
    30  H    0.156773
    31  O   -0.576471
    32  O   -0.616376
    33  H    0.414370
    34  N   -0.628486
    35  H    0.372330
    36  C   -0.073580
    37  H    0.195285
    38  C    0.602505
    39  C   -0.040567
    40  H    0.162173
    41  H    0.161155
    42  O   -0.534841
    43  O   -0.644638
    44  H    0.429821
    45  N   -0.614500
    46  H    0.369094
    47  C   -0.063321
    48  H    0.207975
    49  C    0.608819
    50  C   -0.363619
    51  H    0.212096
    52  H    0.203217
    53  O   -0.542120
    54  C    0.606106
    55  O   -0.469743
    56  O   -0.553671
    57  N   -0.618351
    58  H    0.392713
    59  C   -0.051144
    60  H    0.206394
    61  C    0.581252
    62  C   -0.271831
    63  H    0.168954
    64  H    0.149353
    65  O   -0.454766
    66  C   -0.264067
    67  H    0.163143
    68  H    0.152494
    69  C   -0.148777
    70  H    0.153386
    71  H    0.159586
    72  N   -0.583378
    73  H    0.319098
    74  N   -0.732412
    75  H    0.332671
    76  H    0.332210
    77  N   -0.665099
    78  H    0.275635
    79  C    0.579191
    80  O   -0.562039
    81  H    0.426297
    82  H    0.423577
 Sum of Mulliken charges =   1.00000

 Dipole moment (field-independent basis, Debye):
    X=            -10.2471    Y=             -8.4067    Z=            -13.4325  Tot=             18.8708
 Quadrupole moment (field-independent basis, Debye-Ang):
   XX=            -92.3591   YY=           -216.3675   ZZ=           -128.9677
   XY=             45.7462   XZ=            117.9360   YZ=             26.9379

 Normal termination of Gaussian 16 at Thu May 26 21:15:21 2022.
