 Gaussian 16, Revision C.01,
 Gaussian 16:  ES64L-G16RevC.01  3-Jul-2019

 -------------------------------------------------------------------
 # B3LYP/6-31G* guess=read geom=check nosymm integral(ultrafinegrid)
 -------------------------------------------------------------------

 ------------------------------------------------------
 Candidate Structure: Conf:288 Charge calc in gas phase
 ------------------------------------------------------
 Structure from the checkpoint file:  "conf-288.chk"
 Charge =  1 Multiplicity = 1

                          Input orientation:
 ---------------------------------------------------------------------
 Center     Atomic      Atomic             Coordinates (Angstroms)
 Number     Number       Type             X           Y           Z
 ---------------------------------------------------------------------
      1          7           0       -4.863327   -2.410379   -3.880116
      2          1           0       -5.475097   -1.900175   -4.523906
      3          1           0       -3.881898   -2.438316   -4.292012
      4          1           0       -5.239942   -3.353621   -3.747994
      5          6           0       -4.623365   -1.678807   -2.569407
      6          1           0       -5.405466   -0.927028   -2.446534
      7          6           0       -3.233642   -1.031088   -2.808620
      8          6           0       -4.647159   -2.690476   -1.398939
      9          1           0       -5.630200   -3.181961   -1.406365
     10          1           0       -3.889178   -3.460375   -1.589549
     11          8           0       -2.550099   -1.489102   -3.742718
     12          6           0       -4.395900   -2.036303   -0.055402
     13          6           0       -3.167085   -2.204194    0.594757
     14          1           0       -2.397652   -2.828568    0.146199
     15          6           0       -5.380166   -1.232746    0.539357
     16          1           0       -6.351111   -1.110557    0.061608
     17          6           0       -2.910050   -1.575965    1.815106
     18          1           0       -1.936758   -1.712386    2.286298
     19          6           0       -5.128923   -0.602562    1.758859
     20          1           0       -5.897698    0.015040    2.214028
     21          6           0       -3.895425   -0.771920    2.393241
     22          1           0       -3.704057   -0.278067    3.341664
     23          7           0       -2.874312   -0.034759   -2.011010
     24          1           0       -3.439795    0.239297   -1.207916
     25          6           0       -1.560394    0.621235   -2.059508
     26          1           0       -1.218452    0.648760   -3.097032
     27          6           0       -0.553258   -0.169682   -1.195464
     28          6           0       -1.745918    2.037323   -1.493206
     29          1           0       -2.366322    2.627519   -2.173764
     30          1           0       -0.763555    2.513593   -1.409252
     31          8           0       -0.270214    0.214377   -0.051346
     32          8           0       -2.434093    1.974363   -0.254346
     33          1           0       -1.805803    1.549771    0.361249
     34          7           0       -0.057129   -1.287956   -1.754379
     35          1           0       -0.226329   -1.489145   -2.736823
     36          6           0        0.971301   -2.123241   -1.123875
     37          1           0        0.741935   -2.223525   -0.055877
     38          6           0        2.343366   -1.435528   -1.309766
     39          6           0        0.965100   -3.491255   -1.815718
     40          1           0        0.014525   -3.997125   -1.618290
     41          1           0        1.772995   -4.108290   -1.401303
     42          8           0        3.150079   -1.795673   -2.169422
     43          8           0        1.073445   -3.345074   -3.221626
     44          1           0        1.966563   -2.971742   -3.358220
     45          7           0        2.547743   -0.398752   -0.462774
     46          1           0        1.772626   -0.110767    0.129076
     47          6           0        3.685137    0.502812   -0.533251
     48          1           0        4.436853    0.028119   -1.168072
     49          6           0        4.167211    0.671777    0.918524
     50          6           0        3.282322    1.883882   -1.113020
     51          1           0        2.537498    2.333674   -0.452132
     52          1           0        4.164612    2.529978   -1.152224
     53          8           0        3.388004    1.104649    1.772782
     54          6           0        2.686763    1.743880   -2.496701
     55          8           0        1.508183    1.567089   -2.741803
     56          8           0        3.631573    1.799426   -3.454387
     57          7           0        5.425505    0.274395    1.179422
     58          1           0        6.033079   -0.078206    0.446406
     59          6           0        5.977682    0.217792    2.528784
     60          1           0        5.911488    1.211965    2.987143
     61          6           0        7.455767   -0.114168    2.366400
     62          6           0        5.240869   -0.815052    3.441796
     63          1           0        5.968818   -1.502273    3.884918
     64          1           0        4.598805   -1.415981    2.790572
     65          8           0        7.979285   -0.421872    1.316928
     66          6           0        4.394481   -0.179043    4.562745
     67          1           0        4.079292    0.828294    4.268416
     68          1           0        4.993513   -0.068866    5.473787
     69          6           0        3.140684   -1.000272    4.891088
     70          1           0        3.411425   -2.053056    5.038061
     71          1           0        2.710673   -0.635654    5.837356
     72          7           0        2.173364   -0.906415    3.803234
     73          1           0        2.249634   -0.094676    3.200813
     74          7           0        1.197573   -2.980069    4.261836
     75          1           0        0.373801   -3.535763    4.065526
     76          1           0        1.331824   -2.840186    5.255932
     77          7           0        0.370409   -1.739492    2.490352
     78          1           0        0.500706   -0.873649    1.966966
     79          6           0        1.210958   -1.828380    3.476155
     80          8           0        8.109840   -0.032302    3.536773
     81          1           0        3.186489    1.653915   -4.311038
     82          1           0        9.041400   -0.269679    3.364793
 ---------------------------------------------------------------------

 SCF Done:  E(RB3LYP) =  -2166.27281843     A.U. after    2 cycles

 Alpha  occ. eigenvalues --  -19.28045 -19.27770 -19.27101 -19.23051 -19.22671
 Alpha  occ. eigenvalues --  -19.22464 -19.22360 -19.21535 -19.20462 -19.20394
 Alpha  occ. eigenvalues --  -14.60345 -14.49819 -14.45959 -14.44937 -14.44223
 Alpha  occ. eigenvalues --  -14.40785 -14.40144 -14.33888 -10.43733 -10.41060
 Alpha  occ. eigenvalues --  -10.40647 -10.40627 -10.39208 -10.37640 -10.37369
 Alpha  occ. eigenvalues --  -10.34280 -10.34069 -10.33978 -10.32769 -10.32401
 Alpha  occ. eigenvalues --  -10.32375 -10.31495 -10.31289 -10.30271 -10.28912
 Alpha  occ. eigenvalues --  -10.28827 -10.28584 -10.28204 -10.28073 -10.27558
 Alpha  occ. eigenvalues --  -10.26824 -10.26627 -10.25730  -1.19473  -1.19162
 Alpha  occ. eigenvalues --   -1.18750  -1.14358  -1.13894  -1.12583  -1.11955
 Alpha  occ. eigenvalues --   -1.10542  -1.10291  -1.09652  -1.08991  -1.06069
 Alpha  occ. eigenvalues --   -1.03421  -1.02150  -1.01363  -1.01004  -0.96117
 Alpha  occ. eigenvalues --   -0.94648  -0.92396  -0.89883  -0.88561  -0.87525
 Alpha  occ. eigenvalues --   -0.86530  -0.84783  -0.83499  -0.83373  -0.82080
 Alpha  occ. eigenvalues --   -0.79391  -0.78032  -0.74658  -0.74590  -0.74322
 Alpha  occ. eigenvalues --   -0.73389  -0.72962  -0.71894  -0.70272  -0.69671
 Alpha  occ. eigenvalues --   -0.69184  -0.68051  -0.67636  -0.67449  -0.66978
 Alpha  occ. eigenvalues --   -0.66482  -0.66318  -0.66037  -0.63150  -0.62960
 Alpha  occ. eigenvalues --   -0.61800  -0.60833  -0.60383  -0.60237  -0.59576
 Alpha  occ. eigenvalues --   -0.58553  -0.58120  -0.57772  -0.57528  -0.56959
 Alpha  occ. eigenvalues --   -0.56599  -0.56305  -0.55697  -0.55418  -0.55190
 Alpha  occ. eigenvalues --   -0.54850  -0.54722  -0.54461  -0.53674  -0.53525
 Alpha  occ. eigenvalues --   -0.53387  -0.52476  -0.52212  -0.52131  -0.51375
 Alpha  occ. eigenvalues --   -0.51249  -0.51108  -0.51008  -0.50659  -0.50347
 Alpha  occ. eigenvalues --   -0.50222  -0.49954  -0.49850  -0.49721  -0.48970
 Alpha  occ. eigenvalues --   -0.48830  -0.48285  -0.47602  -0.47461  -0.47032
 Alpha  occ. eigenvalues --   -0.46852  -0.45730  -0.45273  -0.45103  -0.44614
 Alpha  occ. eigenvalues --   -0.43829  -0.43550  -0.43033  -0.42609  -0.42606
 Alpha  occ. eigenvalues --   -0.41882  -0.41855  -0.41333  -0.41007  -0.40715
 Alpha  occ. eigenvalues --   -0.40146  -0.39958  -0.37379  -0.36674  -0.36374
 Alpha  occ. eigenvalues --   -0.36086  -0.35449  -0.35018  -0.34791  -0.34408
 Alpha  occ. eigenvalues --   -0.34058  -0.34017  -0.33026  -0.32815  -0.32519
 Alpha  occ. eigenvalues --   -0.31594  -0.27525
 Alpha virt. eigenvalues --   -0.12923  -0.11303  -0.10455  -0.09452  -0.09053
 Alpha virt. eigenvalues --   -0.08238  -0.07445  -0.06674  -0.06048  -0.05048
 Alpha virt. eigenvalues --   -0.02872  -0.02115  -0.00960  -0.00709  -0.00387

 Mulliken charges:
               1
     1  N   -0.757513
     2  H    0.417565
     3  H    0.436331
     4  H    0.415068
     5  C   -0.109107
     6  H    0.218368
     7  C    0.659220
     8  C   -0.380475
     9  H    0.182151
    10  H    0.185200
    11  O   -0.552457
    12  C    0.141657
    13  C   -0.202490
    14  H    0.142487
    15  C   -0.198417
    16  H    0.127225
    17  C   -0.141218
    18  H    0.218710
    19  C   -0.118580
    20  H    0.156388
    21  C   -0.135210
    22  H    0.156810
    23  N   -0.581285
    24  H    0.379926
    25  C   -0.104767
    26  H    0.206024
    27  C    0.681196
    28  C   -0.056243
    29  H    0.161198
    30  H    0.183378
    31  O   -0.563654
    32  O   -0.634614
    33  H    0.426496
    34  N   -0.603639
    35  H    0.369563
    36  C   -0.122579
    37  H    0.220582
    38  C    0.636263
    39  C   -0.052649
    40  H    0.145099
    41  H    0.163740
    42  O   -0.541992
    43  O   -0.637747
    44  H    0.424001
    45  N   -0.614106
    46  H    0.384664
    47  C   -0.081265
    48  H    0.201038
    49  C    0.653658
    50  C   -0.337069
    51  H    0.199023
    52  H    0.189697
    53  O   -0.553705
    54  C    0.586253
    55  O   -0.487339
    56  O   -0.544121
    57  N   -0.627448
    58  H    0.366377
    59  C   -0.006528
    60  H    0.203338
    61  C    0.564011
    62  C   -0.284005
    63  H    0.171679
    64  H    0.176856
    65  O   -0.457791
    66  C   -0.301398
    67  H    0.172210
    68  H    0.158679
    69  C   -0.132909
    70  H    0.164761
    71  H    0.149354
    72  N   -0.630039
    73  H    0.362228
    74  N   -0.741687
    75  H    0.334937
    76  H    0.328344
    77  N   -0.714044
    78  H    0.289955
    79  C    0.604844
    80  O   -0.557447
    81  H    0.419255
    82  H    0.429729
 Sum of Mulliken charges =   1.00000

 Dipole moment (field-independent basis, Debye):
    X=            -10.2484    Y=             -6.2234    Z=             -6.2139  Tot=             13.5045
 Quadrupole moment (field-independent basis, Debye-Ang):
   XX=            -93.3259   YY=           -227.0352   ZZ=           -166.6109
   XY=             46.2299   XZ=             89.0878   YZ=              8.8523

 Normal termination of Gaussian 16 at Thu May 26 21:15:42 2022.
