 Gaussian 16, Revision C.01,
 Gaussian 16:  ES64L-G16RevC.01  3-Jul-2019

 -------------------------------------------------------------------
 # B3LYP/6-31G* guess=read geom=check nosymm integral(ultrafinegrid)
 -------------------------------------------------------------------

 ------------------------------------------------------
 Candidate Structure: Conf:883 Charge calc in gas phase
 ------------------------------------------------------
 Structure from the checkpoint file:  "conf-883.chk"
 Charge =  1 Multiplicity = 1

                          Input orientation:
 ---------------------------------------------------------------------
 Center     Atomic      Atomic             Coordinates (Angstroms)
 Number     Number       Type             X           Y           Z
 ---------------------------------------------------------------------
      1          7           0       -5.409015   -0.513636   -5.085624
      2          1           0       -4.780142   -1.016983   -4.406113
      3          1           0       -6.149421   -0.035170   -4.542244
      4          1           0       -5.821903   -1.178142   -5.744559
      5          6           0       -4.484191    0.497729   -5.725616
      6          1           0       -4.546909    0.381226   -6.810384
      7          6           0       -3.084859    0.091133   -5.207921
      8          6           0       -4.889383    1.948857   -5.303299
      9          1           0       -4.005372    2.581183   -5.431960
     10          1           0       -5.649804    2.304290   -6.006644
     11          8           0       -3.022777   -0.693930   -4.248360
     12          6           0       -5.415806    2.022139   -3.883865
     13          6           0       -6.805186    2.033380   -3.661478
     14          1           0       -7.489303    2.106153   -4.506371
     15          6           0       -4.545867    1.989228   -2.782615
     16          1           0       -3.468545    1.996093   -2.926636
     17          6           0       -7.315827    2.012704   -2.359386
     18          1           0       -8.389814    2.040745   -2.200155
     19          6           0       -5.061492    1.959062   -1.486666
     20          1           0       -4.373393    1.913543   -0.648855
     21          6           0       -6.442707    1.969122   -1.272198
     22          1           0       -6.836516    1.949071   -0.260327
     23          7           0       -2.040364    0.650093   -5.812206
     24          1           0       -2.145138    1.177135   -6.673701
     25          6           0       -0.666765    0.541718   -5.313695
     26          1           0       -0.309635   -0.483001   -5.464983
     27          6           0       -0.658701    0.944998   -3.818959
     28          6           0        0.189516    1.531300   -6.115011
     29          1           0        1.249243    1.309812   -5.933942
     30          1           0       -0.025716    2.548577   -5.761613
     31          8           0       -1.245759    1.965729   -3.470067
     32          8           0       -0.164147    1.369843   -7.485027
     33          1           0        0.326935    2.019682   -8.011218
     34          7           0        0.007655    0.111271   -2.998167
     35          1           0        0.578497   -0.652454   -3.351929
     36          6           0        0.114838    0.308958   -1.560461
     37          1           0       -0.006965    1.374662   -1.347934
     38          6           0        1.499408   -0.217307   -1.147578
     39          6           0       -0.994794   -0.489283   -0.823449
     40          1           0       -0.941323   -0.272312    0.247672
     41          1           0       -0.800458   -1.564352   -0.960528
     42          8           0        2.086678   -1.035366   -1.860474
     43          8           0       -2.294382   -0.135797   -1.245316
     44          1           0       -2.402052   -0.423631   -2.167786
     45          7           0        1.967018    0.229358    0.032096
     46          1           0        1.469285    0.912474    0.600124
     47          6           0        3.191618   -0.255565    0.648585
     48          1           0        3.214003   -1.349312    0.604477
     49          6           0        3.128305    0.229059    2.114838
     50          6           0        4.438851    0.296515   -0.084625
     51          1           0        4.257548    0.250754   -1.162894
     52          1           0        4.613838    1.346985    0.174605
     53          8           0        2.327725    1.104659    2.441573
     54          6           0        5.709203   -0.476639    0.190130
     55          8           0        5.841713   -1.378856    0.998509
     56          8           0        6.713843   -0.063086   -0.598155
     57          7           0        4.000437   -0.363150    2.963684
     58          1           0        4.719443   -0.942169    2.530436
     59          6           0        4.325969    0.261437    4.234788
     60          1           0        3.402030    0.676996    4.649102
     61          6           0        5.275356    1.442095    3.985569
     62          6           0        4.927123   -0.751148    5.226905
     63          1           0        5.245571   -0.211396    6.122991
     64          1           0        5.832448   -1.191883    4.783480
     65          8           0        5.771125    1.727538    2.917378
     66          6           0        3.948348   -1.862869    5.622336
     67          1           0        3.647847   -2.437599    4.737886
     68          1           0        3.027392   -1.411156    6.020254
     69          6           0        4.527821   -2.834161    6.657196
     70          1           0        3.822380   -3.666725    6.808372
     71          1           0        5.454297   -3.278287    6.285567
     72          7           0        4.829662   -2.155473    7.924099
     73          1           0        3.992259   -1.830003    8.395960
     74          7           0        6.910021   -3.188389    8.250617
     75          1           0        7.580184   -3.443399    8.968108
     76          1           0        7.321761   -2.568999    7.559776
     77          7           0        5.625713   -2.723411   10.120372
     78          1           0        4.681525   -2.462580   10.412440
     79          6           0        5.748942   -2.684563    8.844594
     80          8           0        5.500391    2.137948    5.117917
     81          1           0        7.501309   -0.587880   -0.356768
     82          1           0        6.107488    2.867232    4.888447
 ---------------------------------------------------------------------

 SCF Done:  E(RB3LYP) =  -2166.25777151     A.U. after    3 cycles

 Alpha  occ. eigenvalues --  -19.27842 -19.27037 -19.26764 -19.26129 -19.22538
 Alpha  occ. eigenvalues --  -19.21982 -19.21650 -19.20631 -19.20327 -19.19400
 Alpha  occ. eigenvalues --  -14.59614 -14.50628 -14.46150 -14.44274 -14.42414
 Alpha  occ. eigenvalues --  -14.38951 -14.37401 -14.31911 -10.44403 -10.41212
 Alpha  occ. eigenvalues --  -10.40171 -10.39399 -10.38448 -10.37505 -10.36278
 Alpha  occ. eigenvalues --  -10.35651 -10.35347 -10.33879 -10.32087 -10.32024
 Alpha  occ. eigenvalues --  -10.31726 -10.31371 -10.31331 -10.30323 -10.30227
 Alpha  occ. eigenvalues --  -10.29459 -10.28959 -10.28804 -10.28705 -10.27905
 Alpha  occ. eigenvalues --  -10.26846 -10.25304 -10.24514  -1.19935  -1.18296
 Alpha  occ. eigenvalues --   -1.17075  -1.14526  -1.13819  -1.13591  -1.12309
 Alpha  occ. eigenvalues --   -1.11153  -1.09993  -1.09221  -1.08079  -1.06903
 Alpha  occ. eigenvalues --   -1.02352  -1.00899  -1.00863  -0.99684  -0.96748
 Alpha  occ. eigenvalues --   -0.93063  -0.92414  -0.89321  -0.87881  -0.87518
 Alpha  occ. eigenvalues --   -0.85937  -0.85345  -0.84677  -0.83975  -0.80189
 Alpha  occ. eigenvalues --   -0.79395  -0.77415  -0.76186  -0.74821  -0.74264
 Alpha  occ. eigenvalues --   -0.72814  -0.72429  -0.72116  -0.70645  -0.69381
 Alpha  occ. eigenvalues --   -0.69085  -0.68926  -0.67825  -0.65959  -0.65806
 Alpha  occ. eigenvalues --   -0.65337  -0.64794  -0.64306  -0.63707  -0.63371
 Alpha  occ. eigenvalues --   -0.62290  -0.61712  -0.60887  -0.60124  -0.58948
 Alpha  occ. eigenvalues --   -0.58714  -0.58141  -0.57882  -0.56904  -0.56628
 Alpha  occ. eigenvalues --   -0.56561  -0.56198  -0.55908  -0.55691  -0.54789
 Alpha  occ. eigenvalues --   -0.54710  -0.54228  -0.53878  -0.53671  -0.53262
 Alpha  occ. eigenvalues --   -0.52961  -0.52540  -0.52227  -0.51800  -0.51734
 Alpha  occ. eigenvalues --   -0.51638  -0.51385  -0.50744  -0.50582  -0.50405
 Alpha  occ. eigenvalues --   -0.50071  -0.48987  -0.48870  -0.48620  -0.48383
 Alpha  occ. eigenvalues --   -0.47769  -0.47316  -0.47073  -0.46591  -0.46541
 Alpha  occ. eigenvalues --   -0.46371  -0.45818  -0.45170  -0.44590  -0.44557
 Alpha  occ. eigenvalues --   -0.44105  -0.43798  -0.42910  -0.42504  -0.42334
 Alpha  occ. eigenvalues --   -0.41345  -0.41055  -0.40390  -0.39980  -0.39695
 Alpha  occ. eigenvalues --   -0.39357  -0.39183  -0.38213  -0.37174  -0.36173
 Alpha  occ. eigenvalues --   -0.35797  -0.35664  -0.35271  -0.34899  -0.34741
 Alpha  occ. eigenvalues --   -0.34187  -0.33263  -0.33135  -0.32423  -0.30044
 Alpha  occ. eigenvalues --   -0.28952  -0.26290
 Alpha virt. eigenvalues --   -0.13657  -0.11647  -0.11286  -0.09723  -0.09059
 Alpha virt. eigenvalues --   -0.06710  -0.06590  -0.05529  -0.05006  -0.04827
 Alpha virt. eigenvalues --   -0.03663  -0.02210  -0.01968  -0.00962  -0.00497

 Mulliken charges:
               1
     1  N   -0.758684
     2  H    0.433149
     3  H    0.408337
     4  H    0.411375
     5  C   -0.106597
     6  H    0.211749
     7  C    0.678692
     8  C   -0.376476
     9  H    0.212995
    10  H    0.187740
    11  O   -0.555930
    12  C    0.092595
    13  C   -0.229976
    14  H    0.144451
    15  C   -0.197524
    16  H    0.214365
    17  C   -0.119503
    18  H    0.161945
    19  C   -0.125003
    20  H    0.178935
    21  C   -0.125580
    22  H    0.164671
    23  N   -0.594937
    24  H    0.368956
    25  C   -0.034372
    26  H    0.186471
    27  C    0.612509
    28  C   -0.073145
    29  H    0.173231
    30  H    0.176512
    31  O   -0.524291
    32  O   -0.632812
    33  H    0.423452
    34  N   -0.610304
    35  H    0.359070
    36  C   -0.082063
    37  H    0.192926
    38  C    0.627913
    39  C   -0.030124
    40  H    0.166186
    41  H    0.143039
    42  O   -0.547178
    43  O   -0.631211
    44  H    0.422908
    45  N   -0.632153
    46  H    0.364900
    47  C   -0.043387
    48  H    0.197436
    49  C    0.609674
    50  C   -0.371865
    51  H    0.213250
    52  H    0.218248
    53  O   -0.534504
    54  C    0.621254
    55  O   -0.487084
    56  O   -0.552245
    57  N   -0.608982
    58  H    0.379911
    59  C   -0.061115
    60  H    0.203736
    61  C    0.597464
    62  C   -0.286699
    63  H    0.190988
    64  H    0.142405
    65  O   -0.475045
    66  C   -0.268322
    67  H    0.150566
    68  H    0.137296
    69  C   -0.139294
    70  H    0.146732
    71  H    0.171578
    72  N   -0.594487
    73  H    0.308688
    74  N   -0.732857
    75  H    0.340906
    76  H    0.317113
    77  N   -0.624465
    78  H    0.263665
    79  C    0.551904
    80  O   -0.558370
    81  H    0.423624
    82  H    0.421070
 Sum of Mulliken charges =   1.00000

 Dipole moment (field-independent basis, Debye):
    X=            -13.4387    Y=              2.2908    Z=            -23.0836  Tot=             26.8086
 Quadrupole moment (field-independent basis, Debye-Ang):
   XX=            -92.7609   YY=           -246.5404   ZZ=           -116.4466
   XY=             11.0032   XZ=             89.6205   YZ=             -0.6167

 Normal termination of Gaussian 16 at Thu May 26 21:15:47 2022.
