 Gaussian 16, Revision C.01,
 Gaussian 16:  ES64L-G16RevC.01  3-Jul-2019

 -------------------------------------------------------------------
 # B3LYP/6-31G* guess=read geom=check nosymm integral(ultrafinegrid)
 -------------------------------------------------------------------

 ------------------------------------------------------
 Candidate Structure: Conf:684 Charge calc in gas phase
 ------------------------------------------------------
 Structure from the checkpoint file:  "conf-684.chk"
 Charge =  1 Multiplicity = 1

                          Input orientation:
 ---------------------------------------------------------------------
 Center     Atomic      Atomic             Coordinates (Angstroms)
 Number     Number       Type             X           Y           Z
 ---------------------------------------------------------------------
      1          7           0       -3.780082   -0.835887   -6.860914
      2          1           0       -3.170369   -1.011761   -7.664304
      3          1           0       -3.758730   -1.687214   -6.236247
      4          1           0       -4.726287   -0.614094   -7.206810
      5          6           0       -3.260333    0.255415   -5.953757
      6          1           0       -2.577377    0.881240   -6.531864
      7          6           0       -2.537213   -0.534091   -4.831927
      8          6           0       -4.445002    1.092803   -5.408059
      9          1           0       -5.011418    0.476194   -4.699920
     10          1           0       -4.014879    1.919600   -4.832824
     11          8           0       -2.795072   -1.742225   -4.728423
     12          6           0       -5.349560    1.600660   -6.511734
     13          6           0       -4.978201    2.701585   -7.298275
     14          1           0       -4.058424    3.239635   -7.078266
     15          6           0       -6.553209    0.936122   -6.799271
     16          1           0       -6.882694    0.113491   -6.165783
     17          6           0       -5.792584    3.128388   -8.346058
     18          1           0       -5.500738    3.990661   -8.938242
     19          6           0       -7.367120    1.362138   -7.854416
     20          1           0       -8.302290    0.848061   -8.055532
     21          6           0       -6.985838    2.456577   -8.629363
     22          1           0       -7.619529    2.794394   -9.443713
     23          7           0       -1.727654    0.166557   -4.046390
     24          1           0       -1.590183    1.175413   -4.149444
     25          6           0       -1.057955   -0.351174   -2.858532
     26          1           0       -1.746325   -0.985029   -2.290605
     27          6           0       -0.651721    0.895010   -2.055929
     28          6           0        0.201218   -1.199934   -3.223362
     29          1           0        0.865671   -0.589646   -3.850208
     30          1           0       -0.137898   -2.059522   -3.809748
     31          8           0       -0.699011    2.010474   -2.576709
     32          8           0        0.850155   -1.678946   -2.070349
     33          1           0        1.537363   -1.022418   -1.814611
     34          7           0       -0.222508    0.641814   -0.796566
     35          1           0       -0.051051   -0.341681   -0.602388
     36          6           0        0.631314    1.585744   -0.093145
     37          1           0        0.277420    2.596007   -0.311893
     38          6           0        2.085024    1.431607   -0.575779
     39          6           0        0.526843    1.348209    1.440894
     40          1           0        0.829787    0.314464    1.666828
     41          1           0       -0.527531    1.456648    1.715701
     42          8           0        2.456755    0.469859   -1.259069
     43          8           0        1.273695    2.285681    2.175436
     44          1           0        2.178661    1.927331    2.300973
     45          7           0        2.922558    2.416350   -0.168637
     46          1           0        2.567074    3.059159    0.536452
     47          6           0        4.357773    2.200499   -0.139330
     48          1           0        4.572833    1.442408   -0.898932
     49          6           0        4.748253    1.587813    1.236180
     50          6           0        5.124444    3.483099   -0.502865
     51          1           0        6.202020    3.307465   -0.586842
     52          1           0        4.800253    3.824430   -1.493390
     53          8           0        3.899790    1.248329    2.064938
     54          6           0        4.886350    4.612125    0.480197
     55          8           0        4.038095    4.608970    1.348515
     56          8           0        5.722634    5.643597    0.265359
     57          7           0        6.068426    1.411907    1.441652
     58          1           0        6.758021    1.659550    0.741475
     59          6           0        6.612115    0.812272    2.656906
     60          1           0        6.056584    1.200541    3.516134
     61          6           0        8.059484    1.280903    2.736181
     62          6           0        6.488740   -0.734082    2.623841
     63          1           0        7.087466   -1.114167    1.788072
     64          1           0        5.442354   -0.948080    2.383924
     65          8           0        8.690142    1.692198    1.783956
     66          6           0        6.864769   -1.446256    3.930408
     67          1           0        6.315486   -0.996098    4.769456
     68          1           0        7.929374   -1.305785    4.155248
     69          6           0        6.547623   -2.953424    3.910138
     70          1           0        6.764878   -3.376515    4.898006
     71          1           0        5.481173   -3.103798    3.726110
     72          7           0        7.295208   -3.729650    2.917112
     73          1           0        8.300789   -3.673082    3.031098
     74          7           0        5.534528   -3.910694    1.383012
     75          1           0        5.341378   -4.118436    0.408891
     76          1           0        5.077523   -4.576770    1.998374
     77          7           0        7.695284   -3.854068    0.551988
     78          1           0        8.662617   -3.653996    0.815494
     79          6           0        6.919137   -3.826570    1.575644
     80          8           0        8.571863    1.170613    3.973709
     81          1           0        5.495405    6.336888    0.914841
     82          1           0        9.502996    1.462883    3.924001
 ---------------------------------------------------------------------

 SCF Done:  E(RB3LYP) =  -2166.27270770     A.U. after    1 cycles

 Alpha  occ. eigenvalues --  -19.27605 -19.27335 -19.26403 -19.22096 -19.22078
 Alpha  occ. eigenvalues --  -19.22018 -19.21999 -19.21025 -19.20217 -19.20216
 Alpha  occ. eigenvalues --  -14.59547 -14.49300 -14.45078 -14.44177 -14.43693
 Alpha  occ. eigenvalues --  -14.39683 -14.38449 -14.32783 -10.43338 -10.40710
 Alpha  occ. eigenvalues --  -10.40236 -10.39969 -10.38761 -10.37394 -10.37281
 Alpha  occ. eigenvalues --  -10.34169 -10.33732 -10.32633 -10.32365 -10.32360
 Alpha  occ. eigenvalues --  -10.32195 -10.31385 -10.31260 -10.31083 -10.30916
 Alpha  occ. eigenvalues --  -10.30731 -10.30402 -10.30297 -10.30032 -10.29160
 Alpha  occ. eigenvalues --  -10.27522 -10.25272 -10.24587  -1.18853  -1.18614
 Alpha  occ. eigenvalues --   -1.18436  -1.14173  -1.13509  -1.12622  -1.11649
 Alpha  occ. eigenvalues --   -1.09782  -1.09636  -1.09481  -1.08024  -1.05761
 Alpha  occ. eigenvalues --   -1.01918  -1.01840  -1.00791  -1.00697  -0.97747
 Alpha  occ. eigenvalues --   -0.93223  -0.93199  -0.88649  -0.88434  -0.87996
 Alpha  occ. eigenvalues --   -0.86070  -0.85907  -0.85457  -0.82822  -0.80765
 Alpha  occ. eigenvalues --   -0.79484  -0.77392  -0.75400  -0.73753  -0.73642
 Alpha  occ. eigenvalues --   -0.73218  -0.72158  -0.71754  -0.70945  -0.70265
 Alpha  occ. eigenvalues --   -0.69934  -0.68501  -0.67586  -0.66811  -0.66564
 Alpha  occ. eigenvalues --   -0.65776  -0.64895  -0.64559  -0.63173  -0.62941
 Alpha  occ. eigenvalues --   -0.62197  -0.61261  -0.59777  -0.58901  -0.58772
 Alpha  occ. eigenvalues --   -0.58265  -0.57842  -0.57543  -0.57059  -0.56853
 Alpha  occ. eigenvalues --   -0.56667  -0.56395  -0.56098  -0.55977  -0.55170
 Alpha  occ. eigenvalues --   -0.54432  -0.54285  -0.54113  -0.53843  -0.53648
 Alpha  occ. eigenvalues --   -0.53350  -0.52851  -0.52841  -0.52433  -0.51879
 Alpha  occ. eigenvalues --   -0.51435  -0.51244  -0.50925  -0.50630  -0.50279
 Alpha  occ. eigenvalues --   -0.49857  -0.49195  -0.48864  -0.48823  -0.48265
 Alpha  occ. eigenvalues --   -0.48003  -0.47652  -0.47531  -0.47126  -0.46518
 Alpha  occ. eigenvalues --   -0.46255  -0.46192  -0.45867  -0.45553  -0.45451
 Alpha  occ. eigenvalues --   -0.44449  -0.44273  -0.43097  -0.41816  -0.41467
 Alpha  occ. eigenvalues --   -0.41019  -0.40491  -0.40065  -0.40023  -0.39609
 Alpha  occ. eigenvalues --   -0.39404  -0.39127  -0.36786  -0.36487  -0.36328
 Alpha  occ. eigenvalues --   -0.36204  -0.35935  -0.35705  -0.35266  -0.34845
 Alpha  occ. eigenvalues --   -0.34462  -0.33825  -0.33520  -0.32396  -0.30813
 Alpha  occ. eigenvalues --   -0.30063  -0.26908
 Alpha virt. eigenvalues --   -0.13159  -0.12465  -0.10999  -0.09868  -0.07843
 Alpha virt. eigenvalues --   -0.07163  -0.07031  -0.06663  -0.05532  -0.04752
 Alpha virt. eigenvalues --   -0.02695  -0.01941  -0.01216  -0.00388   0.00123

 Mulliken charges:
               1
     1  N   -0.750679
     2  H    0.415686
     3  H    0.427850
     4  H    0.404900
     5  C   -0.112686
     6  H    0.212922
     7  C    0.656982
     8  C   -0.384838
     9  H    0.195461
    10  H    0.210339
    11  O   -0.538290
    12  C    0.137764
    13  C   -0.181279
    14  H    0.147331
    15  C   -0.229869
    16  H    0.151971
    17  C   -0.122202
    18  H    0.168404
    19  C   -0.119950
    20  H    0.168321
    21  C   -0.123518
    22  H    0.170095
    23  N   -0.616527
    24  H    0.371130
    25  C   -0.078109
    26  H    0.200578
    27  C    0.609814
    28  C   -0.034230
    29  H    0.148918
    30  H    0.173552
    31  O   -0.536008
    32  O   -0.643291
    33  H    0.447609
    34  N   -0.591800
    35  H    0.350372
    36  C   -0.109952
    37  H    0.206043
    38  C    0.632223
    39  C   -0.039169
    40  H    0.142880
    41  H    0.168147
    42  O   -0.558658
    43  O   -0.640238
    44  H    0.447684
    45  N   -0.593319
    46  H    0.377702
    47  C   -0.093419
    48  H    0.213868
    49  C    0.664303
    50  C   -0.375802
    51  H    0.194281
    52  H    0.210653
    53  O   -0.554673
    54  C    0.596876
    55  O   -0.459477
    56  O   -0.555501
    57  N   -0.621428
    58  H    0.359040
    59  C   -0.030985
    60  H    0.199717
    61  C    0.585153
    62  C   -0.275329
    63  H    0.164698
    64  H    0.187620
    65  O   -0.467580
    66  C   -0.270543
    67  H    0.147422
    68  H    0.144169
    69  C   -0.150530
    70  H    0.156691
    71  H    0.163917
    72  N   -0.583119
    73  H    0.311145
    74  N   -0.738798
    75  H    0.337533
    76  H    0.323878
    77  N   -0.637189
    78  H    0.262760
    79  C    0.555316
    80  O   -0.554332
    81  H    0.424923
    82  H    0.424677
 Sum of Mulliken charges =   1.00000

 Dipole moment (field-independent basis, Debye):
    X=             -6.5246    Y=              3.6314    Z=            -22.0166  Tot=             23.2484
 Quadrupole moment (field-independent basis, Debye-Ang):
   XX=            -93.5529   YY=           -227.3502   ZZ=            -35.4959
   XY=             18.6809   XZ=            161.4813   YZ=            -21.3591

 Normal termination of Gaussian 16 at Thu May 26 21:15:17 2022.
