 Gaussian 16, Revision C.01,
 Gaussian 16:  ES64L-G16RevC.01  3-Jul-2019

 -------------------------------------------------------------------
 # B3LYP/6-31G* guess=read geom=check nosymm integral(ultrafinegrid)
 -------------------------------------------------------------------

 ------------------------------------------------------
 Candidate Structure: Conf:156 Charge calc in gas phase
 ------------------------------------------------------
 Structure from the checkpoint file:  "conf-156.chk"
 Charge =  1 Multiplicity = 1

                          Input orientation:
 ---------------------------------------------------------------------
 Center     Atomic      Atomic             Coordinates (Angstroms)
 Number     Number       Type             X           Y           Z
 ---------------------------------------------------------------------
      1          7           0       -2.935649   -1.453183   -1.490729
      2          1           0       -3.918163   -1.611179   -1.269348
      3          1           0       -1.618589   -3.658049   -0.729049
      4          1           0       -2.575638   -0.853123   -0.746885
      5          6           0       -2.865460   -0.730865   -2.769132
      6          1           0       -3.279014   -1.402037   -3.534208
      7          6           0       -1.377839   -0.544803   -3.133137
      8          6           0       -3.704110    0.585019   -2.778798
      9          1           0       -4.622739    0.356501   -2.222080
     10          1           0       -3.179431    1.352326   -2.195532
     11          8           0       -0.481040   -1.210723   -2.578171
     12          6           0       -4.093545    1.134428   -4.139810
     13          6           0       -3.700730    2.417805   -4.543058
     14          1           0       -3.098192    3.030414   -3.876046
     15          6           0       -4.885799    0.372303   -5.014095
     16          1           0       -5.223857   -0.618039   -4.714963
     17          6           0       -4.074287    2.923160   -5.791226
     18          1           0       -3.749842    3.915969   -6.087546
     19          6           0       -5.264205    0.875980   -6.256798
     20          1           0       -5.881593    0.273838   -6.917581
     21          6           0       -4.856378    2.153834   -6.650272
     22          1           0       -5.149306    2.545067   -7.620144
     23          7           0       -1.073845    0.338082   -4.098103
     24          1           0       -1.785330    0.936899   -4.510842
     25          6           0        0.295604    0.539473   -4.582589
     26          1           0        0.780382   -0.441009   -4.642501
     27          6           0        1.084756    1.438203   -3.600621
     28          6           0        0.236591    1.193312   -5.970379
     29          1           0       -0.271297    0.520824   -6.668523
     30          1           0        1.262838    1.349769   -6.331081
     31          8           0        1.272816    2.637745   -3.821678
     32          8           0       -0.506317    2.395451   -5.934526
     33          1           0        0.012014    2.986149   -5.353332
     34          7           0        1.547572    0.799079   -2.501338
     35          1           0        1.228427   -0.150116   -2.332054
     36          6           0        2.224876    1.498115   -1.431842
     37          1           0        2.727045    2.365989   -1.871075
     38          6           0        3.211288    0.555739   -0.753548
     39          6           0        1.251905    2.007505   -0.322646
     40          1           0        0.411932    2.502820   -0.818383
     41          1           0        1.775285    2.754743    0.289649
     42          8           0        3.011783   -0.661493   -0.668177
     43          8           0        0.727609    0.960208    0.471349
     44          1           0        1.397174    0.747141    1.148551
     45          7           0        4.231760    1.177181   -0.119690
     46          1           0        4.485048    2.133061   -0.354344
     47          6           0        5.072024    0.497408    0.840555
     48          1           0        5.683693   -0.267623    0.342502
     49          6           0        4.195414   -0.177545    1.922567
     50          6           0        5.991562    1.510351    1.568528
     51          1           0        5.362681    2.174250    2.174790
     52          1           0        6.665629    0.977587    2.242196
     53          8           0        3.103890    0.275325    2.259479
     54          6           0        6.785283    2.395662    0.624637
     55          8           0        6.288213    3.067459   -0.259219
     56          8           0        8.099654    2.378318    0.888606
     57          7           0        4.766381   -1.262624    2.507639
     58          1           0        5.705014   -1.522580    2.233035
     59          6           0        4.246245   -1.850812    3.738386
     60          1           0        3.574501   -1.101922    4.174302
     61          6           0        5.352116   -2.093771    4.767719
     62          6           0        3.436295   -3.149475    3.530767
     63          1           0        3.137985   -3.487586    4.526842
     64          1           0        4.094109   -3.931093    3.125408
     65          8           0        5.168481   -2.657678    5.818103
     66          6           0        2.193726   -2.965983    2.635293
     67          1           0        1.823535   -1.938609    2.712038
     68          1           0        1.388170   -3.610811    3.007586
     69          6           0        2.467202   -3.279590    1.152068
     70          1           0        3.314370   -2.700008    0.786666
     71          1           0        2.722860   -4.339065    1.015071
     72          7           0        1.352258   -2.932998    0.265881
     73          1           0        1.435006   -2.032858   -0.205886
     74          7           0        0.027688   -4.767552    0.842954
     75          1           0       -0.605741   -5.470765    0.490721
     76          1           0        0.729743   -5.089111    1.490574
     77          7           0       -0.671144   -3.314638   -0.808469
     78          1           0       -0.589858   -2.485004   -1.420847
     79          6           0        0.243880   -3.656500    0.093989
     80          8           0        6.558581   -1.615864    4.375509
     81          1           0        8.531760    2.996561    0.266299
     82          1           0        7.187245   -1.820422    5.095171
 ---------------------------------------------------------------------

 SCF Done:  E(RB3LYP) =  -2166.31944963     A.U. after    1 cycles

 Alpha  occ. eigenvalues --  -19.30225 -19.30006 -19.24534 -19.23934 -19.23299
 Alpha  occ. eigenvalues --  -19.22671 -19.22598 -19.22252 -19.20821 -19.20429
 Alpha  occ. eigenvalues --  -14.49410 -14.48641 -14.47718 -14.46468 -14.46200
 Alpha  occ. eigenvalues --  -14.45837 -14.44095 -14.41950 -10.44870 -10.42942
 Alpha  occ. eigenvalues --  -10.42362 -10.40433 -10.39230 -10.39134 -10.37349
 Alpha  occ. eigenvalues --  -10.35569 -10.34724 -10.33710 -10.32545 -10.32055
 Alpha  occ. eigenvalues --  -10.31963 -10.31909 -10.31752 -10.30904 -10.29648
 Alpha  occ. eigenvalues --  -10.29463 -10.28132 -10.27320 -10.26129 -10.26015
 Alpha  occ. eigenvalues --  -10.25869 -10.25672 -10.25537  -1.21053  -1.20843
 Alpha  occ. eigenvalues --   -1.15438  -1.14175  -1.13829  -1.13332  -1.12132
 Alpha  occ. eigenvalues --   -1.12048  -1.11852  -1.09619  -1.08458  -1.04191
 Alpha  occ. eigenvalues --   -1.03315  -1.02911  -1.02049  -1.01026  -1.00786
 Alpha  occ. eigenvalues --   -0.98872  -0.92645  -0.91501  -0.89856  -0.86788
 Alpha  occ. eigenvalues --   -0.86020  -0.85243  -0.83239  -0.81333  -0.80588
 Alpha  occ. eigenvalues --   -0.79373  -0.78984  -0.75547  -0.74340  -0.74083
 Alpha  occ. eigenvalues --   -0.72686  -0.72366  -0.71528  -0.71006  -0.70231
 Alpha  occ. eigenvalues --   -0.69587  -0.68699  -0.68165  -0.67572  -0.67069
 Alpha  occ. eigenvalues --   -0.66635  -0.65500  -0.63898  -0.63277  -0.62541
 Alpha  occ. eigenvalues --   -0.62230  -0.61635  -0.60870  -0.60568  -0.59738
 Alpha  occ. eigenvalues --   -0.59296  -0.58660  -0.58490  -0.58195  -0.58043
 Alpha  occ. eigenvalues --   -0.57809  -0.57350  -0.57160  -0.56418  -0.55654
 Alpha  occ. eigenvalues --   -0.55328  -0.55119  -0.54858  -0.54570  -0.53846
 Alpha  occ. eigenvalues --   -0.53515  -0.53185  -0.52960  -0.52715  -0.52438
 Alpha  occ. eigenvalues --   -0.51895  -0.51800  -0.51329  -0.50693  -0.50440
 Alpha  occ. eigenvalues --   -0.50225  -0.50028  -0.49637  -0.49318  -0.48981
 Alpha  occ. eigenvalues --   -0.48956  -0.48792  -0.48496  -0.48153  -0.47776
 Alpha  occ. eigenvalues --   -0.47578  -0.46892  -0.46636  -0.46128  -0.45540
 Alpha  occ. eigenvalues --   -0.45396  -0.44952  -0.44862  -0.42668  -0.42098
 Alpha  occ. eigenvalues --   -0.41931  -0.41525  -0.41270  -0.40940  -0.40798
 Alpha  occ. eigenvalues --   -0.39931  -0.38984  -0.38549  -0.37687  -0.37522
 Alpha  occ. eigenvalues --   -0.37343  -0.36902  -0.36721  -0.36217  -0.35910
 Alpha  occ. eigenvalues --   -0.35859  -0.34559  -0.34274  -0.32880  -0.32551
 Alpha  occ. eigenvalues --   -0.31816  -0.31297
 Alpha virt. eigenvalues --   -0.10456  -0.09302  -0.09158  -0.08984  -0.08839
 Alpha virt. eigenvalues --   -0.08328  -0.07286  -0.07135  -0.06365  -0.05452
 Alpha virt. eigenvalues --   -0.03428  -0.02552  -0.01167  -0.00670  -0.00580

 Mulliken charges:
               1
     1  N   -0.736831
     2  H    0.315013
     3  H    0.360425
     4  H    0.316015
     5  C   -0.081844
     6  H    0.186600
     7  C    0.647743
     8  C   -0.374404
     9  H    0.165285
    10  H    0.157461
    11  O   -0.583763
    12  C    0.127227
    13  C   -0.196482
    14  H    0.137429
    15  C   -0.179138
    16  H    0.126000
    17  C   -0.102530
    18  H    0.152480
    19  C   -0.125750
    20  H    0.146962
    21  C   -0.129390
    22  H    0.150490
    23  N   -0.610626
    24  H    0.390774
    25  C   -0.078822
    26  H    0.178529
    27  C    0.626053
    28  C   -0.058027
    29  H    0.162861
    30  H    0.155776
    31  O   -0.542102
    32  O   -0.630672
    33  H    0.423054
    34  N   -0.608650
    35  H    0.379008
    36  C   -0.076953
    37  H    0.190626
    38  C    0.630202
    39  C   -0.040620
    40  H    0.170502
    41  H    0.145654
    42  O   -0.562469
    43  O   -0.649371
    44  H    0.434657
    45  N   -0.620896
    46  H    0.379955
    47  C   -0.030174
    48  H    0.177288
    49  C    0.641871
    50  C   -0.397572
    51  H    0.217428
    52  H    0.199711
    53  O   -0.539907
    54  C    0.601095
    55  O   -0.459164
    56  O   -0.543906
    57  N   -0.604691
    58  H    0.351942
    59  C   -0.068873
    60  H    0.223297
    61  C    0.597018
    62  C   -0.274431
    63  H    0.195989
    64  H    0.147858
    65  O   -0.435070
    66  C   -0.290379
    67  H    0.189332
    68  H    0.145406
    69  C   -0.183174
    70  H    0.207253
    71  H    0.159269
    72  N   -0.604983
    73  H    0.399139
    74  N   -0.759736
    75  H    0.370724
    76  H    0.372175
    77  N   -0.791362
    78  H    0.450487
    79  C    0.788758
    80  O   -0.583018
    81  H    0.430754
    82  H    0.432207
 Sum of Mulliken charges =   1.00000

 Dipole moment (field-independent basis, Debye):
    X=              8.4684    Y=             -9.3308    Z=              0.2070  Tot=             12.6024
 Quadrupole moment (field-independent basis, Debye-Ang):
   XX=           -122.6776   YY=           -190.4081   ZZ=           -219.0758
   XY=              7.6884   XZ=             46.0071   YZ=             -5.6347

 Normal termination of Gaussian 16 at Thu May 26 20:50:28 2022.
