 Gaussian 16, Revision C.01,
 Gaussian 16:  ES64L-G16RevC.01  3-Jul-2019

 -------------------------------------------------------------------
 # B3LYP/6-31G* guess=read geom=check nosymm integral(ultrafinegrid)
 -------------------------------------------------------------------

 ------------------------------------------------------
 Candidate Structure: Conf:197 Charge calc in gas phase
 ------------------------------------------------------
 Structure from the checkpoint file:  "conf-197.chk"
 Charge =  1 Multiplicity = 1

                          Input orientation:
 ---------------------------------------------------------------------
 Center     Atomic      Atomic             Coordinates (Angstroms)
 Number     Number       Type             X           Y           Z
 ---------------------------------------------------------------------
      1          7           0       -5.757717   -0.947916   -3.031141
      2          1           0       -6.501036   -1.368299   -3.593239
      3          1           0       -5.177902   -1.692878   -2.549838
      4          1           0       -6.168750   -0.331255   -2.309762
      5          6           0       -4.726137   -0.187458   -3.833103
      6          1           0       -4.919306   -0.381438   -4.892302
      7          6           0       -3.392429   -0.876506   -3.429741
      8          6           0       -4.812032    1.333777   -3.537361
      9          1           0       -3.895308    1.795053   -3.919089
     10          1           0       -5.638397    1.749842   -4.123938
     11          8           0       -3.439928   -1.817939   -2.629677
     12          6           0       -5.012132    1.645006   -2.066504
     13          6           0       -6.289691    2.002366   -1.601643
     14          1           0       -7.107924    2.128686   -2.309307
     15          6           0       -3.955312    1.534263   -1.148004
     16          1           0       -2.959005    1.252315   -1.480384
     17          6           0       -6.508874    2.252173   -0.243309
     18          1           0       -7.497393    2.542752    0.099728
     19          6           0       -4.180359    1.787089    0.205052
     20          1           0       -3.355337    1.706264    0.906536
     21          6           0       -5.452715    2.144336    0.660758
     22          1           0       -5.617236    2.343462    1.715496
     23          7           0       -2.279176   -0.406159   -3.992830
     24          1           0       -2.317688    0.232683   -4.780991
     25          6           0       -0.967399   -1.003334   -3.760370
     26          1           0       -0.992772   -2.048156   -4.092093
     27          6           0       -0.591845   -0.930565   -2.264763
     28          6           0        0.057821   -0.216680   -4.594530
     29          1           0        0.992045   -0.790418   -4.637222
     30          1           0        0.273286    0.745417   -4.115671
     31          8           0       -0.978278   -0.008136   -1.542857
     32          8           0       -0.522249   -0.046759   -5.886857
     33          1           0        0.086305    0.478557   -6.428978
     34          7           0        0.212252   -1.923698   -1.844952
     35          1           0        0.576110   -2.630117   -2.477924
     36          6           0        0.704335   -2.037179   -0.473020
     37          1           0       -0.103164   -1.736283    0.203145
     38          6           0        1.926480   -1.118811   -0.259220
     39          6           0        1.095644   -3.505403   -0.242620
     40          1           0        0.200041   -4.132281   -0.285060
     41          1           0        1.547679   -3.611199    0.751389
     42          8           0        3.077754   -1.571684   -0.268826
     43          8           0        1.960920   -3.948700   -1.273006
     44          1           0        2.790600   -3.451873   -1.133740
     45          7           0        1.641186    0.184750   -0.059055
     46          1           0        0.677770    0.475394   -0.201952
     47          6           0        2.694864    1.203764    0.021734
     48          1           0        3.502523    0.882776   -0.644459
     49          6           0        3.235418    1.298282    1.474678
     50          6           0        2.170082    2.572582   -0.402279
     51          1           0        1.313142    2.868972    0.214176
     52          1           0        2.927771    3.333502   -0.189991
     53          8           0        2.937800    2.236925    2.208277
     54          6           0        1.793091    2.672072   -1.861580
     55          8           0        1.814750    1.772175   -2.678565
     56          8           0        1.418153    3.930573   -2.174037
     57          7           0        4.043070    0.276596    1.843740
     58          1           0        4.205021   -0.505918    1.212732
     59          6           0        4.603419    0.201248    3.185817
     60          1           0        4.910009    1.206771    3.489502
     61          6           0        5.828627   -0.698765    3.104712
     62          6           0        3.561874   -0.328547    4.207416
     63          1           0        3.313016   -1.365698    3.945456
     64          1           0        2.660284    0.273203    4.047285
     65          8           0        5.999266   -1.547088    2.256635
     66          6           0        3.976308   -0.227309    5.680311
     67          1           0        4.251939    0.806923    5.921150
     68          1           0        4.865442   -0.841420    5.869900
     69          6           0        2.842201   -0.667284    6.610141
     70          1           0        1.964886   -0.030564    6.441191
     71          1           0        2.538735   -1.701000    6.364666
     72          7           0        3.230370   -0.529419    8.004339
     73          1           0        4.156038   -0.886899    8.216317
     74          7           0        2.898518   -0.769678   10.282212
     75          1           0        2.194028   -0.849890   11.007176
     76          1           0        3.503899    0.030446   10.435603
     77          7           0        1.050592   -1.049624    8.901971
     78          1           0        0.783073   -1.185763    7.927139
     79          6           0        2.303336   -0.796888    9.016805
     80          8           0        6.699587   -0.465531    4.107097
     81          1           0        1.221679    3.940917   -3.129382
     82          1           0        7.431232   -1.103790    3.997810
 ---------------------------------------------------------------------

 SCF Done:  E(RB3LYP) =  -2166.25846970     A.U. after    3 cycles

 Alpha  occ. eigenvalues --  -19.28342 -19.27606 -19.26770 -19.26716 -19.23169
 Alpha  occ. eigenvalues --  -19.22987 -19.22358 -19.21494 -19.21007 -19.18365
 Alpha  occ. eigenvalues --  -14.59670 -14.50464 -14.47104 -14.45318 -14.42368
 Alpha  occ. eigenvalues --  -14.38848 -14.37092 -14.31856 -10.44259 -10.41398
 Alpha  occ. eigenvalues --  -10.41252 -10.40291 -10.39010 -10.38171 -10.35849
 Alpha  occ. eigenvalues --  -10.35667 -10.34997 -10.34561 -10.32964 -10.32117
 Alpha  occ. eigenvalues --  -10.32040 -10.32016 -10.31208 -10.30955 -10.30547
 Alpha  occ. eigenvalues --  -10.30141 -10.29876 -10.29822 -10.29773 -10.28790
 Alpha  occ. eigenvalues --  -10.27153 -10.25668 -10.24613  -1.19969  -1.19433
 Alpha  occ. eigenvalues --   -1.17631  -1.15000  -1.14014  -1.13799  -1.13157
 Alpha  occ. eigenvalues --   -1.10445  -1.10308  -1.09815  -1.08638  -1.06902
 Alpha  occ. eigenvalues --   -1.03275  -1.01577  -1.00967  -0.99112  -0.97523
 Alpha  occ. eigenvalues --   -0.93525  -0.92460  -0.89716  -0.88115  -0.87333
 Alpha  occ. eigenvalues --   -0.86473  -0.85948  -0.85553  -0.84489  -0.80790
 Alpha  occ. eigenvalues --   -0.80071  -0.77789  -0.76177  -0.74695  -0.74505
 Alpha  occ. eigenvalues --   -0.73110  -0.72903  -0.72442  -0.71509  -0.70356
 Alpha  occ. eigenvalues --   -0.69900  -0.69773  -0.67511  -0.67420  -0.65844
 Alpha  occ. eigenvalues --   -0.65595  -0.64782  -0.64351  -0.63560  -0.62552
 Alpha  occ. eigenvalues --   -0.61805  -0.61654  -0.60993  -0.60745  -0.59715
 Alpha  occ. eigenvalues --   -0.59195  -0.58501  -0.58231  -0.57748  -0.57337
 Alpha  occ. eigenvalues --   -0.56951  -0.56777  -0.56709  -0.55947  -0.55681
 Alpha  occ. eigenvalues --   -0.55028  -0.54905  -0.54563  -0.54198  -0.53899
 Alpha  occ. eigenvalues --   -0.53855  -0.53096  -0.52604  -0.52439  -0.52364
 Alpha  occ. eigenvalues --   -0.52014  -0.51665  -0.51364  -0.51244  -0.50643
 Alpha  occ. eigenvalues --   -0.50553  -0.49767  -0.49520  -0.48537  -0.48156
 Alpha  occ. eigenvalues --   -0.48067  -0.47592  -0.47340  -0.47304  -0.46920
 Alpha  occ. eigenvalues --   -0.46254  -0.45980  -0.45716  -0.45439  -0.45056
 Alpha  occ. eigenvalues --   -0.45015  -0.44296  -0.43900  -0.42113  -0.42010
 Alpha  occ. eigenvalues --   -0.41779  -0.41124  -0.40870  -0.40774  -0.40375
 Alpha  occ. eigenvalues --   -0.39317  -0.39090  -0.38334  -0.38285  -0.37257
 Alpha  occ. eigenvalues --   -0.36863  -0.36509  -0.36119  -0.35818  -0.35632
 Alpha  occ. eigenvalues --   -0.34681  -0.33750  -0.32020  -0.31468  -0.29656
 Alpha  occ. eigenvalues --   -0.29038  -0.26520
 Alpha virt. eigenvalues --   -0.13578  -0.12373  -0.11787  -0.09640  -0.09506
 Alpha virt. eigenvalues --   -0.08401  -0.07324  -0.06248  -0.05257  -0.04413
 Alpha virt. eigenvalues --   -0.03939  -0.02454  -0.02295  -0.01392  -0.01265

 Mulliken charges:
               1
     1  N   -0.758770
     2  H    0.411428
     3  H    0.434519
     4  H    0.407663
     5  C   -0.112593
     6  H    0.220781
     7  C    0.673728
     8  C   -0.371825
     9  H    0.198205
    10  H    0.187487
    11  O   -0.532364
    12  C    0.094774
    13  C   -0.218569
    14  H    0.145354
    15  C   -0.188656
    16  H    0.196578
    17  C   -0.120346
    18  H    0.165581
    19  C   -0.134152
    20  H    0.163416
    21  C   -0.121675
    22  H    0.168045
    23  N   -0.604615
    24  H    0.368572
    25  C   -0.052208
    26  H    0.189189
    27  C    0.662482
    28  C   -0.078887
    29  H    0.170466
    30  H    0.191432
    31  O   -0.550104
    32  O   -0.636494
    33  H    0.422760
    34  N   -0.596272
    35  H    0.361169
    36  C   -0.088697
    37  H    0.182944
    38  C    0.644590
    39  C   -0.056776
    40  H    0.164225
    41  H    0.165190
    42  O   -0.546620
    43  O   -0.632027
    44  H    0.427444
    45  N   -0.604190
    46  H    0.366080
    47  C   -0.050522
    48  H    0.195925
    49  C    0.635820
    50  C   -0.392808
    51  H    0.208417
    52  H    0.223088
    53  O   -0.530059
    54  C    0.583501
    55  O   -0.473891
    56  O   -0.550989
    57  N   -0.639585
    58  H    0.384489
    59  C   -0.021491
    60  H    0.196644
    61  C    0.577322
    62  C   -0.277699
    63  H    0.144322
    64  H    0.172706
    65  O   -0.457923
    66  C   -0.289383
    67  H    0.163845
    68  H    0.148962
    69  C   -0.118926
    70  H    0.156070
    71  H    0.134913
    72  N   -0.606930
    73  H    0.321213
    74  N   -0.751785
    75  H    0.337292
    76  H    0.320189
    77  N   -0.647814
    78  H    0.272361
    79  C    0.580914
    80  O   -0.558408
    81  H    0.410590
    82  H    0.421367
 Sum of Mulliken charges =   1.00000

 Dipole moment (field-independent basis, Debye):
    X=            -15.5804    Y=              1.2298    Z=            -15.5289  Tot=             22.0320
 Quadrupole moment (field-independent basis, Debye-Ang):
   XX=            -91.3588   YY=           -246.4614   ZZ=           -174.3086
   XY=              4.7729   XZ=             89.1771   YZ=             -2.4062

 Normal termination of Gaussian 16 at Thu May 26 20:50:53 2022.
