 Gaussian 16, Revision C.01,
 Gaussian 16:  ES64L-G16RevC.01  3-Jul-2019

 -------------------------------------------------------------------
 # B3LYP/6-31G* guess=read geom=check nosymm integral(ultrafinegrid)
 -------------------------------------------------------------------

 ------------------------------------------------------
 Candidate Structure: Conf:474 Charge calc in gas phase
 ------------------------------------------------------
 Structure from the checkpoint file:  "conf-474.chk"
 Charge =  1 Multiplicity = 1

                          Input orientation:
 ---------------------------------------------------------------------
 Center     Atomic      Atomic             Coordinates (Angstroms)
 Number     Number       Type             X           Y           Z
 ---------------------------------------------------------------------
      1          7           0       -4.992098   -0.644023   -6.716650
      2          1           0       -4.368103   -0.536575   -7.521222
      3          1           0       -4.828127   -1.598141   -6.296202
      4          1           0       -5.964577   -0.505750   -7.032286
      5          6           0       -4.650615    0.288054   -5.576980
      6          1           0       -4.087086    1.129975   -5.984322
      7          6           0       -3.794621   -0.601141   -4.638473
      8          6           0       -5.952129    0.777630   -4.892141
      9          1           0       -6.401803   -0.065525   -4.354192
     10          1           0       -5.659194    1.514412   -4.136571
     11          8           0       -3.849344   -1.827546   -4.808082
     12          6           0       -6.938634    1.364138   -5.880632
     13          6           0       -8.016805    0.591979   -6.343778
     14          1           0       -8.198909   -0.394452   -5.919021
     15          6           0       -6.763207    2.659204   -6.391121
     16          1           0       -5.944347    3.278192   -6.030265
     17          6           0       -8.899539    1.103794   -7.300915
     18          1           0       -9.737403    0.501135   -7.638604
     19          6           0       -7.646553    3.170014   -7.340873
     20          1           0       -7.508032    4.179132   -7.717485
     21          6           0       -8.713154    2.391665   -7.801310
     22          1           0       -9.401386    2.794420   -8.538169
     23          7           0       -3.099663    0.031342   -3.699254
     24          1           0       -3.133479    1.045988   -3.574735
     25          6           0       -2.334218   -0.622366   -2.643292
     26          1           0       -2.904252   -1.465358   -2.239535
     27          6           0       -2.115977    0.463064   -1.577679
     28          6           0       -0.967646   -1.166445   -3.166321
     29          1           0       -0.409068   -0.336781   -3.620413
     30          1           0       -1.182961   -1.907269   -3.942576
     31          8           0       -2.372514    1.640366   -1.830062
     32          8           0       -0.242136   -1.797038   -2.138690
     33          1           0        0.359566   -1.128533   -1.737966
     34          7           0       -1.608093    0.010709   -0.403398
     35          1           0       -1.264856   -0.946153   -0.441952
     36          6           0       -0.911302    0.914045    0.498678
     37          1           0       -1.245365    1.927480    0.253227
     38          6           0        0.614034    0.827755    0.219831
     39          6           0       -1.299709    0.644955    1.962320
     40          1           0       -0.841725   -0.290430    2.316089
     41          1           0       -2.390722    0.534194    2.015433
     42          8           0        1.054862    0.255842   -0.790092
     43          8           0       -0.858403    1.766277    2.719887
     44          1           0       -0.789433    1.519868    3.654852
     45          7           0        1.401753    1.423186    1.124255
     46          1           0        0.991292    1.837340    1.964332
     47          6           0        2.853477    1.382338    1.064313
     48          1           0        3.169358    0.404289    0.689071
     49          6           0        3.344513    1.596882    2.512227
     50          6           0        3.394046    2.476401    0.111247
     51          1           0        2.760457    2.508592   -0.781362
     52          1           0        3.339399    3.466206    0.579083
     53          8           0        2.592159    2.063667    3.365406
     54          6           0        4.815137    2.248274   -0.354384
     55          8           0        5.561697    1.361060    0.019134
     56          8           0        5.176463    3.150406   -1.281452
     57          7           0        4.633388    1.253221    2.745847
     58          1           0        5.203248    1.055058    1.924973
     59          6           0        5.315249    1.748865    3.931562
     60          1           0        4.683556    1.553891    4.802551
     61          6           0        5.484079    3.269589    3.806882
     62          6           0        6.666017    1.018221    4.086811
     63          1           0        7.316345    1.293172    3.243468
     64          1           0        6.460180   -0.054127    3.995155
     65          8           0        5.456641    3.886772    2.764477
     66          6           0        7.399191    1.262653    5.410903
     67          1           0        6.711302    1.084133    6.249724
     68          1           0        7.714159    2.308243    5.496106
     69          6           0        8.636403    0.368903    5.568938
     70          1           0        9.320039    0.508730    4.728197
     71          1           0        9.187397    0.671362    6.472740
     72          7           0        8.277755   -1.054403    5.622674
     73          1           0        7.813352   -1.306273    6.488702
     74          7           0        9.862212   -1.756194    4.041660
     75          1           0       10.390762   -2.565703    3.734931
     76          1           0        9.282349   -1.384399    3.296120
     77          7           0        9.350569   -3.199032    5.778549
     78          1           0        8.897594   -3.238804    6.694034
     79          6           0        9.160273   -2.064537    5.211149
     80          8           0        5.690361    3.852309    5.005669
     81          1           0        6.103338    2.957406   -1.520902
     82          1           0        5.806235    4.807553    4.838386
 ---------------------------------------------------------------------

 SCF Done:  E(RB3LYP) =  -2166.26883886     A.U. after    1 cycles

 Alpha  occ. eigenvalues --  -19.26999 -19.26692 -19.25981 -19.24128 -19.22649
 Alpha  occ. eigenvalues --  -19.22429 -19.21935 -19.20880 -19.20287 -19.18889
 Alpha  occ. eigenvalues --  -14.59805 -14.49636 -14.45746 -14.43636 -14.42055
 Alpha  occ. eigenvalues --  -14.38981 -14.37470 -14.31900 -10.43640 -10.40967
 Alpha  occ. eigenvalues --  -10.40117 -10.39378 -10.38164 -10.37665 -10.35803
 Alpha  occ. eigenvalues --  -10.34411 -10.34176 -10.32980 -10.32852 -10.32557
 Alpha  occ. eigenvalues --  -10.32427 -10.31422 -10.31358 -10.31273 -10.30914
 Alpha  occ. eigenvalues --  -10.30580 -10.30469 -10.30204 -10.30134 -10.27904
 Alpha  occ. eigenvalues --  -10.26714 -10.25368 -10.24239  -1.19142  -1.18247
 Alpha  occ. eigenvalues --   -1.16844  -1.14692  -1.13810  -1.12475  -1.11209
 Alpha  occ. eigenvalues --   -1.10761  -1.10091  -1.09168  -1.07786  -1.06101
 Alpha  occ. eigenvalues --   -1.02555  -1.00912  -1.00526  -0.99295  -0.97943
 Alpha  occ. eigenvalues --   -0.93467  -0.92409  -0.88729  -0.87816  -0.87481
 Alpha  occ. eigenvalues --   -0.86253  -0.86025  -0.85102  -0.83674  -0.79882
 Alpha  occ. eigenvalues --   -0.79722  -0.77218  -0.75845  -0.74015  -0.73509
 Alpha  occ. eigenvalues --   -0.73444  -0.72587  -0.71960  -0.70760  -0.70460
 Alpha  occ. eigenvalues --   -0.69084  -0.68718  -0.67755  -0.66328  -0.65733
 Alpha  occ. eigenvalues --   -0.64923  -0.64038  -0.63754  -0.63231  -0.63019
 Alpha  occ. eigenvalues --   -0.62044  -0.61627  -0.61015  -0.59138  -0.58261
 Alpha  occ. eigenvalues --   -0.58073  -0.57906  -0.57801  -0.57372  -0.57033
 Alpha  occ. eigenvalues --   -0.56767  -0.56570  -0.56083  -0.55300  -0.54984
 Alpha  occ. eigenvalues --   -0.54431  -0.53962  -0.53812  -0.53753  -0.53583
 Alpha  occ. eigenvalues --   -0.53129  -0.53030  -0.52442  -0.52013  -0.51889
 Alpha  occ. eigenvalues --   -0.51571  -0.51098  -0.50912  -0.50615  -0.50248
 Alpha  occ. eigenvalues --   -0.50102  -0.49101  -0.48998  -0.48576  -0.48175
 Alpha  occ. eigenvalues --   -0.47783  -0.47741  -0.46932  -0.46887  -0.46506
 Alpha  occ. eigenvalues --   -0.46056  -0.46053  -0.45734  -0.45253  -0.44303
 Alpha  occ. eigenvalues --   -0.43908  -0.42895  -0.42538  -0.42307  -0.41673
 Alpha  occ. eigenvalues --   -0.41242  -0.40626  -0.40331  -0.39981  -0.39503
 Alpha  occ. eigenvalues --   -0.39300  -0.37805  -0.36989  -0.36929  -0.36668
 Alpha  occ. eigenvalues --   -0.36506  -0.36361  -0.35775  -0.35426  -0.34520
 Alpha  occ. eigenvalues --   -0.34111  -0.33936  -0.32777  -0.32133  -0.30027
 Alpha  occ. eigenvalues --   -0.29014  -0.26271
 Alpha virt. eigenvalues --   -0.13392  -0.12657  -0.11259  -0.10089  -0.08359
 Alpha virt. eigenvalues --   -0.06675  -0.06599  -0.05669  -0.05010  -0.04389
 Alpha virt. eigenvalues --   -0.02940  -0.02155  -0.01544  -0.01190  -0.00573

 Mulliken charges:
               1
     1  N   -0.750424
     2  H    0.416163
     3  H    0.427979
     4  H    0.405251
     5  C   -0.112956
     6  H    0.213450
     7  C    0.657186
     8  C   -0.384749
     9  H    0.195282
    10  H    0.209899
    11  O   -0.537195
    12  C    0.137682
    13  C   -0.230208
    14  H    0.151946
    15  C   -0.181293
    16  H    0.147623
    17  C   -0.119877
    18  H    0.168743
    19  C   -0.122143
    20  H    0.169038
    21  C   -0.123413
    22  H    0.170662
    23  N   -0.617743
    24  H    0.371938
    25  C   -0.077637
    26  H    0.201770
    27  C    0.604515
    28  C   -0.034471
    29  H    0.150109
    30  H    0.174478
    31  O   -0.529832
    32  O   -0.643538
    33  H    0.449990
    34  N   -0.594333
    35  H    0.350726
    36  C   -0.092162
    37  H    0.228030
    38  C    0.617904
    39  C   -0.044183
    40  H    0.146672
    41  H    0.162210
    42  O   -0.573264
    43  O   -0.613551
    44  H    0.422934
    45  N   -0.621538
    46  H    0.398708
    47  C   -0.050198
    48  H    0.196831
    49  C    0.613721
    50  C   -0.368198
    51  H    0.207200
    52  H    0.219960
    53  O   -0.535783
    54  C    0.618281
    55  O   -0.485556
    56  O   -0.552698
    57  N   -0.622084
    58  H    0.379667
    59  C   -0.035030
    60  H    0.194668
    61  C    0.599931
    62  C   -0.297637
    63  H    0.147863
    64  H    0.179882
    65  O   -0.476579
    66  C   -0.268462
    67  H    0.140061
    68  H    0.156603
    69  C   -0.145862
    70  H    0.174051
    71  H    0.150426
    72  N   -0.594709
    73  H    0.309861
    74  N   -0.732849
    75  H    0.340423
    76  H    0.316401
    77  N   -0.627025
    78  H    0.263656
    79  C    0.552591
    80  O   -0.557252
    81  H    0.422801
    82  H    0.418668
 Sum of Mulliken charges =   1.00000

 Dipole moment (field-independent basis, Debye):
    X=            -17.7489    Y=              5.3485    Z=            -21.1564  Tot=             28.1287
 Quadrupole moment (field-independent basis, Debye-Ang):
   XX=            -99.2453   YY=           -249.8357   ZZ=            -41.9168
   XY=             27.9564   XZ=            149.1740   YZ=              1.7320

 Normal termination of Gaussian 16 at Thu May 26 21:15:18 2022.
