 Gaussian 16, Revision C.01,
 Gaussian 16:  ES64L-G16RevC.01  3-Jul-2019

 -------------------------------------------------------------------
 # B3LYP/6-31G* guess=read geom=check nosymm integral(ultrafinegrid)
 -------------------------------------------------------------------

 ------------------------------------------------------
 Candidate Structure: Conf:535 Charge calc in gas phase
 ------------------------------------------------------
 Structure from the checkpoint file:  "conf-535.chk"
 Charge =  1 Multiplicity = 1

                          Input orientation:
 ---------------------------------------------------------------------
 Center     Atomic      Atomic             Coordinates (Angstroms)
 Number     Number       Type             X           Y           Z
 ---------------------------------------------------------------------
      1          7           0       -5.104444    1.391889   -4.848691
      2          1           0       -4.998519    1.747967   -5.803374
      3          1           0       -5.027635    0.330445   -4.876160
      4          1           0       -6.009792    1.697460   -4.480493
      5          6           0       -3.938882    1.752653   -3.943863
      6          1           0       -3.432733    2.623194   -4.365282
      7          6           0       -3.062498    0.472506   -4.031889
      8          6           0       -4.464121    2.052806   -2.520934
      9          1           0       -5.180989    2.882527   -2.598970
     10          1           0       -5.012896    1.173644   -2.160984
     11          8           0       -3.626111   -0.565866   -4.407111
     12          6           0       -3.355697    2.406289   -1.549625
     13          6           0       -2.977706    1.505264   -0.545725
     14          1           0       -3.502869    0.557066   -0.448627
     15          6           0       -2.683603    3.633154   -1.656007
     16          1           0       -2.983373    4.357777   -2.411850
     17          6           0       -1.938999    1.814352    0.334453
     18          1           0       -1.630412    1.116066    1.111084
     19          6           0       -1.643844    3.944789   -0.778554
     20          1           0       -1.131982    4.898682   -0.867060
     21          6           0       -1.269753    3.034566    0.212349
     22          1           0       -0.459563    3.270427    0.896386
     23          7           0       -1.783363    0.595221   -3.692025
     24          1           0       -1.430088    1.460246   -3.288135
     25          6           0       -0.824552   -0.511020   -3.709074
     26          1           0       -1.392630   -1.444449   -3.694080
     27          6           0        0.050586   -0.316200   -2.463084
     28          6           0        0.047245   -0.457906   -4.974967
     29          1           0        0.751305   -1.300977   -4.953889
     30          1           0        0.645598    0.462714   -4.959651
     31          8           0        0.407661    0.825124   -2.158807
     32          8           0       -0.830720   -0.513307   -6.085921
     33          1           0       -0.289107   -0.533073   -6.889802
     34          7           0        0.397797   -1.414686   -1.761175
     35          1           0        0.109834   -2.326725   -2.093957
     36          6           0        1.113644   -1.345319   -0.481449
     37          1           0        0.768384   -0.440003    0.032771
     38          6           0        2.648165   -1.222570   -0.646961
     39          6           0        0.740947   -2.567350    0.378864
     40          1           0        1.015728   -3.491784   -0.155041
     41          1           0       -0.341615   -2.571030    0.535933
     42          8           0        3.426552   -1.975026   -0.047607
     43          8           0        1.348857   -2.510822    1.649213
     44          1           0        2.305523   -2.581104    1.465894
     45          7           0        3.056807   -0.220322   -1.455155
     46          1           0        2.354363    0.440771   -1.785017
     47          6           0        4.467736    0.140059   -1.613759
     48          1           0        5.050333   -0.764071   -1.421641
     49          6           0        4.780983    1.234996   -0.566997
     50          6           0        4.736479    0.666228   -3.033208
     51          1           0        4.177365    1.591929   -3.185916
     52          1           0        5.802681    0.888669   -3.127981
     53          8           0        4.638539    2.423111   -0.824909
     54          6           0        4.320221   -0.345903   -4.075913
     55          8           0        3.232217   -0.396168   -4.614861
     56          8           0        5.299352   -1.241296   -4.323397
     57          7           0        5.104484    0.759648    0.666121
     58          1           0        5.178868   -0.241029    0.796154
     59          6           0        5.115719    1.636265    1.826239
     60          1           0        4.440486    2.465547    1.588754
     61          6           0        6.465744    2.295349    2.117399
     62          6           0        4.606284    0.931031    3.106319
     63          1           0        4.420719    1.724599    3.838228
     64          1           0        5.402390    0.306422    3.532997
     65          8           0        6.608582    3.127748    2.984204
     66          6           0        3.350823    0.074259    2.875516
     67          1           0        3.645689   -0.894437    2.457827
     68          1           0        2.703541    0.543780    2.125375
     69          6           0        2.507024   -0.167622    4.144017
     70          1           0        1.925656   -1.087793    4.033565
     71          1           0        3.149196   -0.310989    5.020007
     72          7           0        1.576054    0.912927    4.453701
     73          1           0        2.006416    1.756179    4.815290
     74          7           0       -0.113112    2.396760    3.879475
     75          1           0       -1.046098    2.439695    3.485934
     76          1           0       -0.117866    2.679065    4.854426
     77          7           0       -0.036969    0.369011    2.749972
     78          1           0        0.508256   -0.483534    2.623122
     79          6           0        0.469046    1.145523    3.645654
     80          8           0        7.471652    1.843513    1.341529
     81          1           0        4.952479   -1.872394   -4.982429
     82          1           0        8.268328    2.335375    1.619862
 ---------------------------------------------------------------------

 SCF Done:  E(RB3LYP) =  -2166.25148751     A.U. after    3 cycles

 Alpha  occ. eigenvalues --  -19.27699 -19.26638 -19.25816 -19.24424 -19.23534
 Alpha  occ. eigenvalues --  -19.22422 -19.22222 -19.21776 -19.19715 -19.19034
 Alpha  occ. eigenvalues --  -14.60209 -14.49778 -14.48327 -14.45190 -14.43548
 Alpha  occ. eigenvalues --  -14.41471 -14.40396 -14.34597 -10.43555 -10.40853
 Alpha  occ. eigenvalues --  -10.40745 -10.40391 -10.38580 -10.38010 -10.36242
 Alpha  occ. eigenvalues --  -10.35263 -10.34434 -10.34017 -10.33520 -10.33175
 Alpha  occ. eigenvalues --  -10.32513 -10.32510 -10.30796 -10.30313 -10.28852
 Alpha  occ. eigenvalues --  -10.28633 -10.28407 -10.28085 -10.28028 -10.27382
 Alpha  occ. eigenvalues --  -10.26949 -10.26567 -10.25601  -1.19249  -1.18611
 Alpha  occ. eigenvalues --   -1.16621  -1.15710  -1.13911  -1.13447  -1.11863
 Alpha  occ. eigenvalues --   -1.11023  -1.09883  -1.09522  -1.07508  -1.06207
 Alpha  occ. eigenvalues --   -1.04186  -1.03812  -1.01762  -1.00031  -0.96113
 Alpha  occ. eigenvalues --   -0.95006  -0.92411  -0.90062  -0.89224  -0.87814
 Alpha  occ. eigenvalues --   -0.86400  -0.85153  -0.84085  -0.83498  -0.81365
 Alpha  occ. eigenvalues --   -0.79404  -0.77702  -0.75745  -0.74362  -0.74051
 Alpha  occ. eigenvalues --   -0.73406  -0.73120  -0.72203  -0.70347  -0.69737
 Alpha  occ. eigenvalues --   -0.69218  -0.68467  -0.68218  -0.67551  -0.66648
 Alpha  occ. eigenvalues --   -0.66497  -0.66086  -0.63795  -0.63626  -0.62759
 Alpha  occ. eigenvalues --   -0.61702  -0.61152  -0.60549  -0.60308  -0.60167
 Alpha  occ. eigenvalues --   -0.59297  -0.58784  -0.58433  -0.57933  -0.57603
 Alpha  occ. eigenvalues --   -0.57243  -0.56859  -0.56475  -0.55803  -0.55079
 Alpha  occ. eigenvalues --   -0.54883  -0.54813  -0.54244  -0.53758  -0.53610
 Alpha  occ. eigenvalues --   -0.53051  -0.52593  -0.51990  -0.51828  -0.51333
 Alpha  occ. eigenvalues --   -0.51216  -0.51130  -0.50869  -0.50626  -0.50493
 Alpha  occ. eigenvalues --   -0.50232  -0.49915  -0.49542  -0.49045  -0.48705
 Alpha  occ. eigenvalues --   -0.48432  -0.47703  -0.47581  -0.47079  -0.46470
 Alpha  occ. eigenvalues --   -0.45981  -0.45860  -0.45156  -0.44994  -0.44694
 Alpha  occ. eigenvalues --   -0.44300  -0.43949  -0.43586  -0.43124  -0.42592
 Alpha  occ. eigenvalues --   -0.42039  -0.41372  -0.41016  -0.40872  -0.39956
 Alpha  occ. eigenvalues --   -0.39643  -0.38756  -0.37541  -0.37506  -0.36614
 Alpha  occ. eigenvalues --   -0.36468  -0.35776  -0.35623  -0.35419  -0.34209
 Alpha  occ. eigenvalues --   -0.34136  -0.33842  -0.32739  -0.32055  -0.31941
 Alpha  occ. eigenvalues --   -0.31580  -0.28883
 Alpha virt. eigenvalues --   -0.12511  -0.11117  -0.10496  -0.10002  -0.09518
 Alpha virt. eigenvalues --   -0.08289  -0.07632  -0.05944  -0.05044  -0.04558
 Alpha virt. eigenvalues --   -0.03308  -0.02666  -0.01720  -0.01553  -0.01231

 Mulliken charges:
               1
     1  N   -0.755343
     2  H    0.418484
     3  H    0.433931
     4  H    0.413145
     5  C   -0.114124
     6  H    0.215703
     7  C    0.673049
     8  C   -0.379081
     9  H    0.181322
    10  H    0.183785
    11  O   -0.537391
    12  C    0.146633
    13  C   -0.191055
    14  H    0.134953
    15  C   -0.201534
    16  H    0.126428
    17  C   -0.147840
    18  H    0.209451
    19  C   -0.120697
    20  H    0.156640
    21  C   -0.138336
    22  H    0.170935
    23  N   -0.586850
    24  H    0.380345
    25  C   -0.086849
    26  H    0.194755
    27  C    0.647475
    28  C   -0.017589
    29  H    0.160940
    30  H    0.165998
    31  O   -0.543380
    32  O   -0.624636
    33  H    0.413310
    34  N   -0.609406
    35  H    0.348653
    36  C   -0.108756
    37  H    0.230529
    38  C    0.642207
    39  C   -0.046834
    40  H    0.140558
    41  H    0.166195
    42  O   -0.559478
    43  O   -0.625601
    44  H    0.433392
    45  N   -0.616514
    46  H    0.387500
    47  C   -0.081082
    48  H    0.198510
    49  C    0.639342
    50  C   -0.346994
    51  H    0.203027
    52  H    0.198938
    53  O   -0.514628
    54  C    0.574519
    55  O   -0.480594
    56  O   -0.548601
    57  N   -0.606365
    58  H    0.351883
    59  C   -0.041534
    60  H    0.206906
    61  C    0.596699
    62  C   -0.305767
    63  H    0.171505
    64  H    0.157811
    65  O   -0.458004
    66  C   -0.274051
    67  H    0.141374
    68  H    0.155163
    69  C   -0.181178
    70  H    0.183999
    71  H    0.161973
    72  N   -0.585097
    73  H    0.325695
    74  N   -0.756421
    75  H    0.335579
    76  H    0.326879
    77  N   -0.700663
    78  H    0.314408
    79  C    0.596146
    80  O   -0.558642
    81  H    0.415001
    82  H    0.419247
 Sum of Mulliken charges =   1.00000

 Dipole moment (field-independent basis, Debye):
    X=            -10.7035    Y=              3.6589    Z=            -16.4596  Tot=             19.9717
 Quadrupole moment (field-independent basis, Debye-Ang):
   XX=           -131.8679   YY=           -232.4172   ZZ=           -134.0185
   XY=            -47.1292   XZ=             67.5960   YZ=            -15.1013

 Normal termination of Gaussian 16 at Thu May 26 21:15:58 2022.
