 Gaussian 16, Revision C.01,
 Gaussian 16:  ES64L-G16RevC.01  3-Jul-2019

 -------------------------------------------------------------------
 # B3LYP/6-31G* guess=read geom=check nosymm integral(ultrafinegrid)
 -------------------------------------------------------------------

 ------------------------------------------------------
 Candidate Structure: Conf:549 Charge calc in gas phase
 ------------------------------------------------------
 Structure from the checkpoint file:  "conf-549.chk"
 Charge =  1 Multiplicity = 1

                          Input orientation:
 ---------------------------------------------------------------------
 Center     Atomic      Atomic             Coordinates (Angstroms)
 Number     Number       Type             X           Y           Z
 ---------------------------------------------------------------------
      1          7           0       -3.988171   -0.315737   -3.791384
      2          1           0       -3.316061    0.411621   -3.411359
      3          1           0       -3.532455   -0.725030   -4.616384
      4          1           0       -4.894475    0.089392   -4.056446
      5          6           0       -4.172566   -1.394664   -2.763960
      6          1           0       -4.446849   -0.884325   -1.836262
      7          6           0       -2.786503   -2.048601   -2.622903
      8          6           0       -5.288228   -2.373345   -3.199407
      9          1           0       -4.951079   -2.923178   -4.086736
     10          1           0       -5.405656   -3.113120   -2.399811
     11          8           0       -1.967605   -1.893999   -3.550535
     12          6           0       -6.597509   -1.659401   -3.474546
     13          6           0       -7.415626   -1.236329   -2.415942
     14          1           0       -7.134920   -1.462149   -1.389057
     15          6           0       -6.991634   -1.375693   -4.791160
     16          1           0       -6.388416   -1.729245   -5.625754
     17          6           0       -8.601130   -0.547608   -2.668703
     18          1           0       -9.230717   -0.236338   -1.840494
     19          6           0       -8.179537   -0.683952   -5.044385
     20          1           0       -8.478993   -0.483955   -6.068875
     21          6           0       -8.983775   -0.267759   -3.983489
     22          1           0       -9.909993    0.264142   -4.178608
     23          7           0       -2.591670   -2.767240   -1.517185
     24          1           0       -3.303390   -2.667957   -0.802296
     25          6           0       -1.299188   -3.212589   -0.973948
     26          1           0       -1.530272   -4.086166   -0.354776
     27          6           0       -0.775191   -2.069356   -0.063016
     28          6           0       -0.269817   -3.657863   -2.049118
     29          1           0        0.498449   -4.246593   -1.536758
     30          1           0        0.220953   -2.781370   -2.485477
     31          8           0       -1.477283   -1.073723    0.146024
     32          8           0       -0.839142   -4.491565   -3.025789
     33          1           0       -1.186479   -3.904702   -3.717217
     34          7           0        0.446800   -2.254509    0.462519
     35          1           0        1.045982   -3.024515    0.176527
     36          6           0        1.127126   -1.284072    1.329200
     37          1           0        0.433272   -0.880653    2.073179
     38          6           0        1.688988   -0.135741    0.464883
     39          6           0        2.265874   -2.038052    2.030281
     40          1           0        1.843568   -2.772064    2.721577
     41          1           0        2.870682   -1.332759    2.610282
     42          8           0        2.882168   -0.093467    0.130743
     43          8           0        3.041386   -2.757391    1.081869
     44          1           0        3.496035   -2.072136    0.556230
     45          7           0        0.786066    0.793935    0.083200
     46          1           0       -0.174819    0.649519    0.380151
     47          6           0        1.079590    1.823353   -0.919649
     48          1           0        1.787989    1.384643   -1.630232
     49          6           0        1.735233    3.077661   -0.277342
     50          6           0       -0.203500    2.257543   -1.632698
     51          1           0       -0.898359    2.729914   -0.933910
     52          1           0        0.049018    3.044876   -2.353861
     53          8           0        1.148857    4.154083   -0.241319
     54          6           0       -0.953990    1.187514   -2.382817
     55          8           0       -2.167284    1.266362   -2.577998
     56          8           0       -0.200972    0.194413   -2.845590
     57          7           0        2.975879    2.857649    0.224209
     58          1           0        3.368243    1.922785    0.137207
     59          6           0        3.719135    3.892996    0.923032
     60          1           0        3.150032    4.818277    0.773749
     61          6           0        5.104805    4.141018    0.324673
     62          6           0        3.838257    3.615882    2.438187
     63          1           0        4.468033    4.397648    2.874272
     64          1           0        4.376774    2.666849    2.577965
     65          8           0        5.949469    4.819800    0.861724
     66          6           0        2.473417    3.544618    3.130826
     67          1           0        1.817282    2.868826    2.571867
     68          1           0        1.989184    4.529739    3.112925
     69          6           0        2.560673    3.036864    4.581748
     70          1           0        3.221618    2.163077    4.640715
     71          1           0        3.005017    3.794336    5.235574
     72          7           0        1.274422    2.659035    5.159533
     73          1           0        0.673901    3.435727    5.410100
     74          7           0       -0.717047    1.474233    5.195270
     75          1           0       -1.126760    0.565207    5.014698
     76          1           0       -0.817873    1.742112    6.168644
     77          7           0        1.027223    0.606414    3.932399
     78          1           0        1.955705    0.841418    3.584320
     79          6           0        0.589639    1.538913    4.712439
     80          8           0        5.289736    3.536461   -0.870127
     81          1           0       -0.768380   -0.486279   -3.278905
     82          1           0        6.192461    3.777664   -1.155035
 ---------------------------------------------------------------------

 SCF Done:  E(RB3LYP) =  -2166.28243354     A.U. after    1 cycles

 Alpha  occ. eigenvalues --  -19.31426 -19.28511 -19.27147 -19.26441 -19.24583
 Alpha  occ. eigenvalues --  -19.23448 -19.22415 -19.22230 -19.20378 -19.19422
 Alpha  occ. eigenvalues --  -14.58390 -14.51816 -14.47261 -14.46065 -14.43318
 Alpha  occ. eigenvalues --  -14.41898 -14.40779 -14.35547 -10.45546 -10.45081
 Alpha  occ. eigenvalues --  -10.40917 -10.40649 -10.38765 -10.38697 -10.36729
 Alpha  occ. eigenvalues --  -10.36237 -10.35037 -10.34982 -10.34539 -10.33444
 Alpha  occ. eigenvalues --  -10.32322 -10.32236 -10.31556 -10.31002 -10.30910
 Alpha  occ. eigenvalues --  -10.30763 -10.30558 -10.30261 -10.30187 -10.29951
 Alpha  occ. eigenvalues --  -10.29073 -10.26018 -10.25294  -1.22951  -1.20255
 Alpha  occ. eigenvalues --   -1.17244  -1.15327  -1.14265  -1.13747  -1.13141
 Alpha  occ. eigenvalues --   -1.12390  -1.11316  -1.09851  -1.08135  -1.07919
 Alpha  occ. eigenvalues --   -1.04409  -1.03431  -1.02374  -1.00122  -0.97734
 Alpha  occ. eigenvalues --   -0.95450  -0.93550  -0.90859  -0.90108  -0.89264
 Alpha  occ. eigenvalues --   -0.86744  -0.86463  -0.85892  -0.84226  -0.81932
 Alpha  occ. eigenvalues --   -0.80134  -0.78937  -0.77562  -0.74612  -0.74077
 Alpha  occ. eigenvalues --   -0.73748  -0.72783  -0.72485  -0.72028  -0.71646
 Alpha  occ. eigenvalues --   -0.70258  -0.70045  -0.68632  -0.68309  -0.66736
 Alpha  occ. eigenvalues --   -0.66504  -0.66140  -0.64939  -0.64599  -0.63666
 Alpha  occ. eigenvalues --   -0.63001  -0.62492  -0.61762  -0.61697  -0.61051
 Alpha  occ. eigenvalues --   -0.60853  -0.60026  -0.59369  -0.58808  -0.58587
 Alpha  occ. eigenvalues --   -0.58240  -0.58129  -0.57620  -0.57121  -0.56391
 Alpha  occ. eigenvalues --   -0.56180  -0.55895  -0.54908  -0.54712  -0.54415
 Alpha  occ. eigenvalues --   -0.54072  -0.53703  -0.53369  -0.53099  -0.52857
 Alpha  occ. eigenvalues --   -0.52511  -0.52126  -0.51899  -0.51366  -0.51355
 Alpha  occ. eigenvalues --   -0.51189  -0.50801  -0.49945  -0.49731  -0.49600
 Alpha  occ. eigenvalues --   -0.49305  -0.48879  -0.48192  -0.47843  -0.47506
 Alpha  occ. eigenvalues --   -0.47442  -0.46961  -0.46095  -0.46077  -0.45956
 Alpha  occ. eigenvalues --   -0.45534  -0.44855  -0.44407  -0.44165  -0.43783
 Alpha  occ. eigenvalues --   -0.42651  -0.42511  -0.41828  -0.41776  -0.41134
 Alpha  occ. eigenvalues --   -0.40822  -0.40622  -0.38910  -0.38581  -0.38232
 Alpha  occ. eigenvalues --   -0.37106  -0.36619  -0.36385  -0.36297  -0.35970
 Alpha  occ. eigenvalues --   -0.35397  -0.34341  -0.33678  -0.32527  -0.32444
 Alpha  occ. eigenvalues --   -0.31915  -0.29499
 Alpha virt. eigenvalues --   -0.15058  -0.11954  -0.11914  -0.11758  -0.09708
 Alpha virt. eigenvalues --   -0.08121  -0.07883  -0.06477  -0.05700  -0.05538
 Alpha virt. eigenvalues --   -0.03974  -0.02152  -0.02000  -0.01708  -0.01546

 Mulliken charges:
               1
     1  N   -0.757225
     2  H    0.450764
     3  H    0.402821
     4  H    0.406114
     5  C   -0.130685
     6  H    0.226055
     7  C    0.665733
     8  C   -0.367768
     9  H    0.187829
    10  H    0.198017
    11  O   -0.596906
    12  C    0.136374
    13  C   -0.180088
    14  H    0.140493
    15  C   -0.216886
    16  H    0.142368
    17  C   -0.122228
    18  H    0.167037
    19  C   -0.120565
    20  H    0.166678
    21  C   -0.122945
    22  H    0.169415
    23  N   -0.549188
    24  H    0.360677
    25  C   -0.101756
    26  H    0.206598
    27  C    0.635997
    28  C   -0.046510
    29  H    0.174877
    30  H    0.158823
    31  O   -0.561220
    32  O   -0.610772
    33  H    0.415246
    34  N   -0.609194
    35  H    0.365613
    36  C   -0.093872
    37  H    0.226788
    38  C    0.637286
    39  C   -0.060510
    40  H    0.171079
    41  H    0.164864
    42  O   -0.559750
    43  O   -0.634734
    44  H    0.422034
    45  N   -0.601744
    46  H    0.373939
    47  C   -0.068473
    48  H    0.202567
    49  C    0.641328
    50  C   -0.395770
    51  H    0.217137
    52  H    0.228490
    53  O   -0.520739
    54  C    0.621691
    55  O   -0.532557
    56  O   -0.565657
    57  N   -0.618386
    58  H    0.371613
    59  C   -0.071388
    60  H    0.219579
    61  C    0.593209
    62  C   -0.269518
    63  H    0.185412
    64  H    0.137845
    65  O   -0.451752
    66  C   -0.276676
    67  H    0.152978
    68  H    0.152940
    69  C   -0.167407
    70  H    0.160176
    71  H    0.167131
    72  N   -0.583186
    73  H    0.328793
    74  N   -0.749927
    75  H    0.333553
    76  H    0.329163
    77  N   -0.695636
    78  H    0.280611
    79  C    0.607978
    80  O   -0.565486
    81  H    0.451364
    82  H    0.420027
 Sum of Mulliken charges =   1.00000

 Dipole moment (field-independent basis, Debye):
    X=            -16.8385    Y=             -2.6934    Z=             -8.6200  Tot=             19.1074
 Quadrupole moment (field-independent basis, Debye-Ang):
   XX=           -133.1591   YY=           -247.7830   ZZ=           -160.7107
   XY=             20.1738   XZ=             58.4839   YZ=             13.6954

 Normal termination of Gaussian 16 at Thu May 26 21:35:32 2022.
