 Gaussian 16, Revision C.01,
 Gaussian 16:  ES64L-G16RevC.01  3-Jul-2019

 -------------------------------------------------------------------
 # B3LYP/6-31G* guess=read geom=check nosymm integral(ultrafinegrid)
 -------------------------------------------------------------------

 -----------------------------------------------------
 Candidate Structure: Conf:34 Charge calc in gas phase
 -----------------------------------------------------
 Structure from the checkpoint file:  "conf-34.chk"
 Charge =  1 Multiplicity = 1

                          Input orientation:
 ---------------------------------------------------------------------
 Center     Atomic      Atomic             Coordinates (Angstroms)
 Number     Number       Type             X           Y           Z
 ---------------------------------------------------------------------
      1          7           0       -6.117277   -3.148567   -3.305957
      2          1           0       -6.300835   -3.945780   -3.921425
      3          1           0       -5.257895   -3.357919   -2.737148
      4          1           0       -6.946880   -2.987596   -2.711662
      5          6           0       -5.746068   -1.890192   -4.056166
      6          1           0       -6.117739   -1.984224   -5.078805
      7          6           0       -4.204964   -1.848596   -3.965589
      8          6           0       -6.360604   -0.649026   -3.347844
      9          1           0       -5.776499   -0.438780   -2.444767
     10          1           0       -6.206924    0.203067   -4.017653
     11          8           0       -3.662827   -2.585679   -3.128060
     12          6           0       -7.827297   -0.835882   -3.022980
     13          6           0       -8.810791   -0.704476   -4.015653
     14          1           0       -8.527443   -0.407439   -5.023422
     15          6           0       -8.219325   -1.198254   -1.723171
     16          1           0       -7.475071   -1.255262   -0.930283
     17          6           0      -10.153793   -0.925789   -3.714883
     18          1           0      -10.906342   -0.806260   -4.488719
     19          6           0       -9.567128   -1.425448   -1.424103
     20          1           0       -9.856979   -1.689669   -0.411476
     21          6           0      -10.533935   -1.291314   -2.419712
     22          1           0      -11.581316   -1.459081   -2.187872
     23          7           0       -3.580096   -0.956921   -4.729002
     24          1           0       -4.062709   -0.460173   -5.471032
     25          6           0       -2.196502   -0.535683   -4.495035
     26          1           0       -1.513921   -1.307983   -4.865972
     27          6           0       -2.018088   -0.284121   -2.974136
     28          6           0       -1.983902    0.777271   -5.259870
     29          1           0       -0.908782    0.994928   -5.297724
     30          1           0       -2.490385    1.586981   -4.717015
     31          8           0       -2.889742    0.315769   -2.354156
     32          8           0       -2.538943    0.596034   -6.559132
     33          1           0       -2.447844    1.424757   -7.054254
     34          7           0       -0.879412   -0.776729   -2.447711
     35          1           0       -0.134349   -1.149133   -3.031228
     36          6           0       -0.523634   -0.676381   -1.039953
     37          1           0       -1.045622    0.182815   -0.609742
     38          6           0        1.004809   -0.524038   -0.983913
     39          6           0       -0.955721   -1.965820   -0.288353
     40          1           0       -0.734480   -1.852848    0.777318
     41          1           0       -0.354078   -2.806394   -0.670002
     42          8           0        1.698627   -0.882367   -1.939331
     43          8           0       -2.337975   -2.216781   -0.392003
     44          1           0       -2.546515   -2.368967   -1.329130
     45          7           0        1.503502   -0.041820    0.169383
     46          1           0        0.913135    0.248441    0.946309
     47          6           0        2.926295    0.018128    0.463152
     48          1           0        3.398517   -0.923977    0.166592
     49          6           0        3.020392    0.214525    1.992531
     50          6           0        3.605338    1.175933   -0.307738
     51          1           0        3.216049    1.186543   -1.330810
     52          1           0        3.363170    2.145139    0.143153
     53          8           0        2.035175    0.583827    2.630783
     54          6           0        5.110122    1.055534   -0.402456
     55          8           0        5.798485    0.203699    0.130789
     56          8           0        5.628696    2.011412   -1.190399
     57          7           0        4.232792   -0.040852    2.536022
     58          1           0        4.999705   -0.176917    1.878110
     59          6           0        4.566598    0.435626    3.865548
     60          1           0        3.653343    0.395721    4.467868
     61          6           0        4.981357    1.910977    3.782544
     62          6           0        5.655317   -0.436325    4.522538
     63          1           0        5.936488    0.031575    5.472213
     64          1           0        6.553482   -0.423271    3.888058
     65          8           0        5.083488    2.552492    2.760296
     66          6           0        5.198376   -1.881609    4.753613
     67          1           0        4.890631   -2.333789    3.804617
     68          1           0        4.317135   -1.885456    5.411105
     69          6           0        6.299963   -2.753599    5.375824
     70          1           0        7.184685   -2.741199    4.731843
     71          1           0        6.614381   -2.342481    6.342687
     72          7           0        5.906164   -4.146035    5.608527
     73          1           0        5.250305   -4.250728    6.374217
     74          7           0        6.437057   -4.838976    3.435391
     75          1           0        6.266740   -5.583891    2.767989
     76          1           0        7.423685   -4.772178    3.666088
     77          7           0        4.691334   -5.910052    4.517285
     78          1           0        4.076342   -5.840486    5.330910
     79          6           0        5.607068   -5.011243    4.549593
     80          8           0        5.220219    2.424655    5.007327
     81          1           0        6.596832    1.883538   -1.193121
     82          1           0        5.470304    3.359441    4.878037
 ---------------------------------------------------------------------

 SCF Done:  E(RB3LYP) =  -2166.25732848     A.U. after    2 cycles

 Alpha  occ. eigenvalues --  -19.27397 -19.26540 -19.26469 -19.25894 -19.21456
 Alpha  occ. eigenvalues --  -19.21228 -19.20891 -19.20345 -19.19689 -19.18852
 Alpha  occ. eigenvalues --  -14.59792 -14.50214 -14.45391 -14.43635 -14.42009
 Alpha  occ. eigenvalues --  -14.38932 -14.37645 -14.32003 -10.44117 -10.41052
 Alpha  occ. eigenvalues --  -10.39655 -10.38710 -10.38175 -10.36839 -10.35775
 Alpha  occ. eigenvalues --  -10.35156 -10.35033 -10.33804 -10.32270 -10.31486
 Alpha  occ. eigenvalues --  -10.31319 -10.31128 -10.31044 -10.30939 -10.30750
 Alpha  occ. eigenvalues --  -10.30325 -10.30287 -10.30054 -10.30010 -10.27449
 Alpha  occ. eigenvalues --  -10.26944 -10.25347 -10.23685  -1.19673  -1.17785
 Alpha  occ. eigenvalues --   -1.16805  -1.14307  -1.13699  -1.12973  -1.11674
 Alpha  occ. eigenvalues --   -1.10598  -1.08919  -1.08712  -1.07811  -1.06499
 Alpha  occ. eigenvalues --   -1.01619  -1.01064  -1.00239  -0.99279  -0.97670
 Alpha  occ. eigenvalues --   -0.93380  -0.92411  -0.89143  -0.87836  -0.87249
 Alpha  occ. eigenvalues --   -0.86251  -0.85879  -0.85143  -0.83323  -0.79810
 Alpha  occ. eigenvalues --   -0.79617  -0.76844  -0.75673  -0.74510  -0.74016
 Alpha  occ. eigenvalues --   -0.73282  -0.72135  -0.71751  -0.71581  -0.70204
 Alpha  occ. eigenvalues --   -0.68832  -0.68486  -0.67153  -0.65846  -0.65492
 Alpha  occ. eigenvalues --   -0.65408  -0.64441  -0.63988  -0.63485  -0.63298
 Alpha  occ. eigenvalues --   -0.62705  -0.61564  -0.61092  -0.59874  -0.58398
 Alpha  occ. eigenvalues --   -0.58122  -0.57893  -0.57616  -0.57115  -0.56686
 Alpha  occ. eigenvalues --   -0.56303  -0.56120  -0.55693  -0.55212  -0.54702
 Alpha  occ. eigenvalues --   -0.54364  -0.54090  -0.53410  -0.53364  -0.53289
 Alpha  occ. eigenvalues --   -0.53016  -0.52448  -0.52097  -0.51994  -0.51696
 Alpha  occ. eigenvalues --   -0.51293  -0.50993  -0.50742  -0.50262  -0.49903
 Alpha  occ. eigenvalues --   -0.49655  -0.49189  -0.48121  -0.47821  -0.47766
 Alpha  occ. eigenvalues --   -0.47461  -0.47221  -0.47181  -0.46861  -0.46113
 Alpha  occ. eigenvalues --   -0.45812  -0.45667  -0.45457  -0.45348  -0.44741
 Alpha  occ. eigenvalues --   -0.44241  -0.43653  -0.42603  -0.42418  -0.41970
 Alpha  occ. eigenvalues --   -0.40954  -0.40373  -0.40061  -0.39920  -0.39251
 Alpha  occ. eigenvalues --   -0.38889  -0.38847  -0.37949  -0.36748  -0.36321
 Alpha  occ. eigenvalues --   -0.36173  -0.35449  -0.35265  -0.34226  -0.34162
 Alpha  occ. eigenvalues --   -0.33813  -0.32627  -0.32376  -0.31964  -0.30087
 Alpha  occ. eigenvalues --   -0.29304  -0.26224
 Alpha virt. eigenvalues --   -0.13687  -0.12429  -0.11328  -0.10077  -0.08225
 Alpha virt. eigenvalues --   -0.06184  -0.05974  -0.05248  -0.05145  -0.04380
 Alpha virt. eigenvalues --   -0.03299  -0.02217  -0.02139  -0.01373  -0.00697

 Mulliken charges:
               1
     1  N   -0.749035
     2  H    0.415796
     3  H    0.431183
     4  H    0.407618
     5  C   -0.122478
     6  H    0.210320
     7  C    0.686077
     8  C   -0.382536
     9  H    0.227609
    10  H    0.199082
    11  O   -0.551933
    12  C    0.126432
    13  C   -0.180740
    14  H    0.142481
    15  C   -0.229719
    16  H    0.162578
    17  C   -0.122133
    18  H    0.167409
    19  C   -0.119480
    20  H    0.169680
    21  C   -0.123790
    22  H    0.170010
    23  N   -0.598139
    24  H    0.367655
    25  C   -0.033148
    26  H    0.187505
    27  C    0.610108
    28  C   -0.072774
    29  H    0.173435
    30  H    0.173312
    31  O   -0.530329
    32  O   -0.632735
    33  H    0.422409
    34  N   -0.614655
    35  H    0.357401
    36  C   -0.084972
    37  H    0.193259
    38  C    0.628674
    39  C   -0.025706
    40  H    0.165292
    41  H    0.139592
    42  O   -0.547983
    43  O   -0.633751
    44  H    0.422685
    45  N   -0.631708
    46  H    0.364837
    47  C   -0.043451
    48  H    0.200569
    49  C    0.608336
    50  C   -0.370390
    51  H    0.213505
    52  H    0.213717
    53  O   -0.534476
    54  C    0.621364
    55  O   -0.485575
    56  O   -0.553608
    57  N   -0.604624
    58  H    0.381218
    59  C   -0.062979
    60  H    0.206608
    61  C    0.596505
    62  C   -0.293392
    63  H    0.172573
    64  H    0.150449
    65  O   -0.471864
    66  C   -0.262138
    67  H    0.175852
    68  H    0.133979
    69  C   -0.140919
    70  H    0.153589
    71  H    0.150149
    72  N   -0.582623
    73  H    0.311230
    74  N   -0.738781
    75  H    0.337193
    76  H    0.323505
    77  N   -0.634400
    78  H    0.262067
    79  C    0.549577
    80  O   -0.560758
    81  H    0.422816
    82  H    0.420482
 Sum of Mulliken charges =   1.00000

 Dipole moment (field-independent basis, Debye):
    X=            -19.4751    Y=             -4.6783    Z=            -15.2886  Tot=             25.1973
 Quadrupole moment (field-independent basis, Debye-Ang):
   XX=              1.0951   YY=           -230.2683   ZZ=           -129.5618
   XY=             72.0464   XZ=            126.4302   YZ=             26.6009

 Normal termination of Gaussian 16 at Thu May 26 20:50:35 2022.
