 Gaussian 16, Revision C.01,
 Gaussian 16:  ES64L-G16RevC.01  3-Jul-2019

 -------------------------------------------------------------------
 # B3LYP/6-31G* guess=read geom=check nosymm integral(ultrafinegrid)
 -------------------------------------------------------------------

 ------------------------------------------------------
 Candidate Structure: Conf:102 Charge calc in gas phase
 ------------------------------------------------------
 Structure from the checkpoint file:  "conf-102.chk"
 Charge =  1 Multiplicity = 1

                          Input orientation:
 ---------------------------------------------------------------------
 Center     Atomic      Atomic             Coordinates (Angstroms)
 Number     Number       Type             X           Y           Z
 ---------------------------------------------------------------------
      1          7           0       -5.102411   -2.058251   -2.476975
      2          1           0       -5.829422   -2.272093   -3.165352
      3          1           0       -4.405559   -2.838117   -2.474189
      4          1           0       -5.545878   -1.945055   -1.547191
      5          6           0       -4.299611   -0.824699   -2.822168
      6          1           0       -4.866528   -0.253722   -3.560571
      7          6           0       -2.972975   -1.381706   -3.386807
      8          6           0       -4.039354    0.018774   -1.534293
      9          1           0       -3.233664   -0.461735   -0.968126
     10          1           0       -3.678617    1.000626   -1.859569
     11          8           0       -2.717850   -2.580328   -3.203880
     12          6           0       -5.273323    0.147567   -0.666808
     13          6           0       -6.290162    1.066771   -0.966556
     14          1           0       -6.177086    1.747818   -1.807705
     15          6           0       -5.426877   -0.708386    0.438901
     16          1           0       -4.620021   -1.389348    0.706589
     17          6           0       -7.434717    1.133920   -0.173306
     18          1           0       -8.208621    1.860114   -0.403831
     19          6           0       -6.580284   -0.642110    1.228442
     20          1           0       -6.680467   -1.295634    2.089875
     21          6           0       -7.583510    0.276873    0.921902
     22          1           0       -8.474569    0.335858    1.539547
     23          7           0       -2.147214   -0.508274   -3.985629
     24          1           0       -2.372054    0.479676   -3.909887
     25          6           0       -0.700756   -0.800095   -4.148536
     26          1           0       -0.619859   -1.863222   -4.381261
     27          6           0       -0.093270   -0.436110   -2.780779
     28          6           0       -0.102671    0.011343   -5.304118
     29          1           0        0.975495   -0.176022   -5.320395
     30          1           0       -0.238916    1.085541   -5.116980
     31          8           0        0.010949    0.743141   -2.449762
     32          8           0       -0.608622   -0.402887   -6.555404
     33          1           0       -1.451230    0.044476   -6.721558
     34          7           0        0.147415   -1.477038   -1.945052
     35          1           0        0.124436   -2.418094   -2.317825
     36          6           0        0.212790   -1.310447   -0.489627
     37          1           0       -0.209316   -0.319176   -0.289095
     38          6           0        1.651306   -1.294320    0.059056
     39          6           0       -0.663146   -2.370809    0.195916
     40          1           0       -0.714319   -2.172717    1.266604
     41          1           0       -0.229546   -3.371479    0.076185
     42          8           0        2.017678   -2.089711    0.920220
     43          8           0       -2.003959   -2.331058   -0.305554
     44          1           0       -2.001678   -2.734251   -1.188741
     45          7           0        2.446628   -0.320694   -0.476284
     46          1           0        1.939134    0.429205   -0.940094
     47          6           0        3.632712    0.103359    0.263883
     48          1           0        4.129172   -0.798244    0.625944
     49          6           0        3.147029    0.944795    1.479148
     50          6           0        4.591046    0.871968   -0.656193
     51          1           0        4.652112    0.367098   -1.628311
     52          1           0        4.235424    1.889942   -0.857348
     53          8           0        2.052404    1.503663    1.432903
     54          6           0        5.995370    0.942174   -0.088926
     55          8           0        6.369247    0.395026    0.928577
     56          8           0        6.807522    1.673793   -0.871933
     57          7           0        3.957771    0.951442    2.562629
     58          1           0        4.898877    0.573575    2.491730
     59          6           0        3.511502    1.487989    3.838671
     60          1           0        2.754002    2.248441    3.628892
     61          6           0        4.694493    2.139172    4.537910
     62          6           0        2.881216    0.392823    4.752235
     63          1           0        2.455224    0.891043    5.630662
     64          1           0        3.678225   -0.271658    5.113826
     65          8           0        5.853352    1.997310    4.218589
     66          6           0        1.828976   -0.428478    4.001999
     67          1           0        2.314387   -0.876516    3.129624
     68          1           0        1.040238    0.225414    3.614141
     69          6           0        1.193414   -1.570691    4.799009
     70          1           0        1.959172   -2.118995    5.372839
     71          1           0        0.473309   -1.176690    5.524926
     72          7           0        0.498194   -2.445687    3.862315
     73          1           0        0.997729   -2.620203    2.996652
     74          7           0       -0.614747   -4.386077    3.239256
     75          1           0       -1.244347   -5.097489    3.598518
     76          1           0        0.251747   -4.816070    2.925134
     77          7           0       -1.117805   -3.482106    5.316693
     78          1           0       -0.968468   -2.671415    5.918090
     79          6           0       -0.413805   -3.415918    4.245791
     80          8           0        4.294794    2.871928    5.598416
     81          1           0        7.689438    1.668693   -0.451843
     82          1           0        5.103286    3.222331    6.019136
 ---------------------------------------------------------------------

 SCF Done:  E(RB3LYP) =  -2166.23994196     A.U. after    2 cycles

 Alpha  occ. eigenvalues --  -19.29459 -19.27232 -19.26060 -19.25486 -19.25408
 Alpha  occ. eigenvalues --  -19.23794 -19.21984 -19.21369 -19.20434 -19.18340
 Alpha  occ. eigenvalues --  -14.60899 -14.52720 -14.48401 -14.44224 -14.42385
 Alpha  occ. eigenvalues --  -14.39604 -14.38730 -14.32620 -10.46270 -10.42343
 Alpha  occ. eigenvalues --  -10.41021 -10.40270 -10.38466 -10.38077 -10.36334
 Alpha  occ. eigenvalues --  -10.35595 -10.34975 -10.34345 -10.33277 -10.32851
 Alpha  occ. eigenvalues --  -10.32637 -10.32341 -10.31425 -10.31102 -10.31026
 Alpha  occ. eigenvalues --  -10.30580 -10.30516 -10.30277 -10.30276 -10.28856
 Alpha  occ. eigenvalues --  -10.27559 -10.25559 -10.24118  -1.21549  -1.18382
 Alpha  occ. eigenvalues --   -1.16998  -1.15936  -1.15239  -1.13082  -1.12945
 Alpha  occ. eigenvalues --   -1.12254  -1.10289  -1.09389  -1.08557  -1.08076
 Alpha  occ. eigenvalues --   -1.04247  -1.01859  -1.00894  -0.99141  -0.98041
 Alpha  occ. eigenvalues --   -0.94232  -0.93395  -0.90056  -0.88306  -0.87972
 Alpha  occ. eigenvalues --   -0.86921  -0.86158  -0.85628  -0.85054  -0.80677
 Alpha  occ. eigenvalues --   -0.80287  -0.77563  -0.76929  -0.75631  -0.75050
 Alpha  occ. eigenvalues --   -0.74209  -0.73428  -0.73021  -0.72078  -0.71185
 Alpha  occ. eigenvalues --   -0.70535  -0.69356  -0.67906  -0.66989  -0.66357
 Alpha  occ. eigenvalues --   -0.65665  -0.64927  -0.64790  -0.64129  -0.63101
 Alpha  occ. eigenvalues --   -0.62950  -0.62639  -0.61723  -0.60845  -0.60579
 Alpha  occ. eigenvalues --   -0.59389  -0.59068  -0.58561  -0.58018  -0.57788
 Alpha  occ. eigenvalues --   -0.57565  -0.57033  -0.56364  -0.55981  -0.55923
 Alpha  occ. eigenvalues --   -0.55412  -0.54982  -0.54830  -0.54029  -0.53626
 Alpha  occ. eigenvalues --   -0.53582  -0.53391  -0.52968  -0.52882  -0.52736
 Alpha  occ. eigenvalues --   -0.52083  -0.51923  -0.51481  -0.51327  -0.51110
 Alpha  occ. eigenvalues --   -0.50714  -0.50358  -0.50148  -0.49086  -0.48803
 Alpha  occ. eigenvalues --   -0.48139  -0.48014  -0.47889  -0.47210  -0.46545
 Alpha  occ. eigenvalues --   -0.46216  -0.46039  -0.45742  -0.45689  -0.44857
 Alpha  occ. eigenvalues --   -0.44440  -0.44358  -0.43638  -0.43525  -0.43262
 Alpha  occ. eigenvalues --   -0.42798  -0.41724  -0.41337  -0.40382  -0.39629
 Alpha  occ. eigenvalues --   -0.39451  -0.39147  -0.38587  -0.38219  -0.38065
 Alpha  occ. eigenvalues --   -0.37028  -0.36767  -0.36666  -0.35742  -0.35436
 Alpha  occ. eigenvalues --   -0.34125  -0.33567  -0.32261  -0.31733  -0.31396
 Alpha  occ. eigenvalues --   -0.29834  -0.26941
 Alpha virt. eigenvalues --   -0.15723  -0.12872  -0.12260  -0.11090  -0.10343
 Alpha virt. eigenvalues --   -0.08422  -0.07271  -0.06772  -0.05423  -0.05239
 Alpha virt. eigenvalues --   -0.04679  -0.03953  -0.03085  -0.02316  -0.02116

 Mulliken charges:
               1
     1  N   -0.747759
     2  H    0.418069
     3  H    0.428146
     4  H    0.411232
     5  C   -0.112285
     6  H    0.214239
     7  C    0.654470
     8  C   -0.409573
     9  H    0.241002
    10  H    0.194938
    11  O   -0.542869
    12  C    0.116177
    13  C   -0.179246
    14  H    0.141912
    15  C   -0.241264
    16  H    0.188156
    17  C   -0.123018
    18  H    0.168302
    19  C   -0.120196
    20  H    0.174941
    21  C   -0.122663
    22  H    0.171492
    23  N   -0.587583
    24  H    0.358698
    25  C   -0.089716
    26  H    0.200321
    27  C    0.620101
    28  C   -0.057733
    29  H    0.187520
    30  H    0.162529
    31  O   -0.525787
    32  O   -0.591730
    33  H    0.400569
    34  N   -0.595346
    35  H    0.343708
    36  C   -0.106161
    37  H    0.213324
    38  C    0.648159
    39  C   -0.077527
    40  H    0.214542
    41  H    0.157251
    42  O   -0.524001
    43  O   -0.648083
    44  H    0.407774
    45  N   -0.596571
    46  H    0.356454
    47  C   -0.060201
    48  H    0.204956
    49  C    0.609152
    50  C   -0.385102
    51  H    0.202228
    52  H    0.202158
    53  O   -0.540988
    54  C    0.603319
    55  O   -0.461648
    56  O   -0.556546
    57  N   -0.611959
    58  H    0.381801
    59  C   -0.044088
    60  H    0.203779
    61  C    0.581123
    62  C   -0.273489
    63  H    0.167586
    64  H    0.149054
    65  O   -0.456017
    66  C   -0.302268
    67  H    0.161642
    68  H    0.163630
    69  C   -0.109879
    70  H    0.145188
    71  H    0.149639
    72  N   -0.634604
    73  H    0.344696
    74  N   -0.758776
    75  H    0.332869
    76  H    0.313640
    77  N   -0.647550
    78  H    0.273980
    79  C    0.572887
    80  O   -0.563549
    81  H    0.426810
    82  H    0.421606
 Sum of Mulliken charges =   1.00000

 Dipole moment (field-independent basis, Debye):
    X=            -15.5780    Y=             -2.4845    Z=            -12.4044  Tot=             20.0678
 Quadrupole moment (field-independent basis, Debye-Ang):
   XX=            -95.0921   YY=           -230.6467   ZZ=           -201.0911
   XY=             23.7858   XZ=             60.7608   YZ=             24.8108

 Normal termination of Gaussian 16 at Thu May 26 20:50:44 2022.
