 Gaussian 16, Revision C.01,
 Gaussian 16:  ES64L-G16RevC.01  3-Jul-2019

 -------------------------------------------------------------------
 # B3LYP/6-31G* guess=read geom=check nosymm integral(ultrafinegrid)
 -------------------------------------------------------------------

 ------------------------------------------------------
 Candidate Structure: Conf:564 Charge calc in gas phase
 ------------------------------------------------------
 Structure from the checkpoint file:  "conf-564.chk"
 Charge =  1 Multiplicity = 1

                          Input orientation:
 ---------------------------------------------------------------------
 Center     Atomic      Atomic             Coordinates (Angstroms)
 Number     Number       Type             X           Y           Z
 ---------------------------------------------------------------------
      1          7           0       -5.824108    0.940309   -3.864959
      2          1           0       -6.273164    1.681450   -4.407959
      3          1           0       -5.449540    0.159486   -4.491476
      4          1           0       -6.515097    0.546408   -3.218720
      5          6           0       -4.558924    1.387663   -3.147585
      6          1           0       -4.229718    2.301087   -3.650917
      7          6           0       -3.570498    0.235578   -3.507438
      8          6           0       -4.816173    1.678351   -1.651392
      9          1           0       -5.828499    2.096382   -1.562748
     10          1           0       -4.807728    0.738134   -1.087850
     11          8           0       -3.934106   -0.555668   -4.395566
     12          6           0       -3.828637    2.672078   -1.062652
     13          6           0       -2.813933    2.264195   -0.188299
     14          1           0       -2.711041    1.217555    0.085801
     15          6           0       -3.941361    4.032621   -1.389142
     16          1           0       -4.740611    4.370275   -2.048105
     17          6           0       -1.918566    3.200531    0.339426
     18          1           0       -1.127722    2.870306    1.006025
     19          6           0       -3.057540    4.965123   -0.850425
     20          1           0       -3.167627    6.017304   -1.097321
     21          6           0       -2.039807    4.553382    0.016915
     22          1           0       -1.361520    5.282351    0.457610
     23          7           0       -2.411261    0.175393   -2.863973
     24          1           0       -2.199522    0.791688   -2.078755
     25          6           0       -1.435297   -0.891565   -3.088156
     26          1           0       -1.970852   -1.789905   -3.407006
     27          6           0       -0.741322   -1.141412   -1.740962
     28          6           0       -0.433769   -0.501878   -4.210084
     29          1           0        0.034155    0.456212   -3.957640
     30          1           0       -1.007057   -0.378900   -5.136660
     31          8           0       -0.868493   -0.335429   -0.808693
     32          8           0        0.528383   -1.516653   -4.389722
     33          1           0        1.369821   -1.173730   -4.036075
     34          7           0       -0.023498   -2.273660   -1.659407
     35          1           0        0.190147   -2.797850   -2.505211
     36          6           0        0.670910   -2.688167   -0.441754
     37          1           0        0.077889   -2.340048    0.410732
     38          6           0        2.079562   -2.056275   -0.368234
     39          6           0        0.778995   -4.219224   -0.446457
     40          1           0       -0.225628   -4.651986   -0.432240
     41          1           0        1.311389   -4.547488    0.455518
     42          8           0        3.102197   -2.737413   -0.486153
     43          8           0        1.408588   -4.670092   -1.631230
     44          1           0        2.337552   -4.385868   -1.543644
     45          7           0        2.108691   -0.717925   -0.173624
     46          1           0        1.247054   -0.173214   -0.139564
     47          6           0        3.355420    0.017102   -0.126252
     48          1           0        4.030344   -0.471130    0.586014
     49          6           0        3.028772    1.449028    0.326754
     50          6           0        4.108792    0.032349   -1.496287
     51          1           0        5.074502    0.529873   -1.372299
     52          1           0        4.272310   -1.007011   -1.786847
     53          8           0        1.901527    1.912086    0.171363
     54          6           0        3.318780    0.727546   -2.576341
     55          8           0        2.443638    0.219273   -3.254628
     56          8           0        3.662587    2.021325   -2.709012
     57          7           0        4.069160    2.143544    0.853893
     58          1           0        5.001795    1.745713    0.808025
     59          6           0        4.035716    3.596946    0.961832
     60          1           0        3.198371    3.949882    0.351379
     61          6           0        5.341102    4.119866    0.371222
     62          6           0        3.841475    4.124407    2.403646
     63          1           0        3.734753    5.212847    2.322801
     64          1           0        4.751122    3.940390    2.990668
     65          8           0        6.295283    3.423140    0.098227
     66          6           0        2.625401    3.511801    3.115474
     67          1           0        2.888551    2.515585    3.491435
     68          1           0        1.801983    3.367271    2.407622
     69          6           0        2.115205    4.368093    4.287996
     70          1           0        1.411409    3.780316    4.883184
     71          1           0        2.936176    4.640808    4.961169
     72          7           0        1.458880    5.619395    3.884288
     73          1           0        2.101515    6.342760    3.585179
     74          7           0       -0.616895    4.613117    3.502294
     75          1           0       -1.518454    4.768733    3.065374
     76          1           0       -0.707746    4.488619    4.505265
     77          7           0       -0.025747    6.411704    2.169436
     78          1           0        0.764610    7.005049    1.911306
     79          6           0        0.284884    5.612942    3.129735
     80          8           0        5.323849    5.456515    0.221754
     81          1           0        3.089178    2.404456   -3.400559
     82          1           0        6.199494    5.717889   -0.123549
 ---------------------------------------------------------------------

 SCF Done:  E(RB3LYP) =  -2166.27000526     A.U. after    2 cycles

 Alpha  occ. eigenvalues --  -19.29209 -19.28511 -19.26815 -19.24056 -19.22991
 Alpha  occ. eigenvalues --  -19.22570 -19.22018 -19.21084 -19.20898 -19.20515
 Alpha  occ. eigenvalues --  -14.59792 -14.49508 -14.45445 -14.45063 -14.44260
 Alpha  occ. eigenvalues --  -14.41627 -14.40677 -14.35199 -10.43658 -10.42047
 Alpha  occ. eigenvalues --  -10.40917 -10.40778 -10.38921 -10.38188 -10.37360
 Alpha  occ. eigenvalues --  -10.34636 -10.33828 -10.33800 -10.33485 -10.32641
 Alpha  occ. eigenvalues --  -10.32475 -10.31689 -10.30663 -10.30203 -10.29250
 Alpha  occ. eigenvalues --  -10.29230 -10.28628 -10.28091 -10.27762 -10.27338
 Alpha  occ. eigenvalues --  -10.27274 -10.26743 -10.25562  -1.20281  -1.19507
 Alpha  occ. eigenvalues --   -1.19309  -1.14056  -1.13499  -1.13143  -1.12150
 Alpha  occ. eigenvalues --   -1.11219  -1.10600  -1.10155  -1.08479  -1.05884
 Alpha  occ. eigenvalues --   -1.04019  -1.01970  -1.01774  -1.00825  -0.95860
 Alpha  occ. eigenvalues --   -0.95179  -0.92093  -0.90785  -0.89136  -0.87573
 Alpha  occ. eigenvalues --   -0.86809  -0.84772  -0.83397  -0.83049  -0.82146
 Alpha  occ. eigenvalues --   -0.79109  -0.78589  -0.75249  -0.74845  -0.74469
 Alpha  occ. eigenvalues --   -0.72875  -0.72117  -0.71291  -0.70995  -0.69740
 Alpha  occ. eigenvalues --   -0.69321  -0.68590  -0.68013  -0.67373  -0.67352
 Alpha  occ. eigenvalues --   -0.66280  -0.65795  -0.65633  -0.63364  -0.62647
 Alpha  occ. eigenvalues --   -0.62289  -0.61173  -0.60389  -0.60154  -0.59723
 Alpha  occ. eigenvalues --   -0.58780  -0.58021  -0.57819  -0.57711  -0.57352
 Alpha  occ. eigenvalues --   -0.56908  -0.56660  -0.56107  -0.55862  -0.55418
 Alpha  occ. eigenvalues --   -0.55094  -0.54771  -0.54471  -0.54197  -0.54102
 Alpha  occ. eigenvalues --   -0.53440  -0.52943  -0.52748  -0.52132  -0.51784
 Alpha  occ. eigenvalues --   -0.51263  -0.51246  -0.50999  -0.50598  -0.50432
 Alpha  occ. eigenvalues --   -0.50303  -0.49899  -0.49751  -0.49570  -0.48966
 Alpha  occ. eigenvalues --   -0.48819  -0.48500  -0.48465  -0.47571  -0.47209
 Alpha  occ. eigenvalues --   -0.46824  -0.46395  -0.45583  -0.45227  -0.44979
 Alpha  occ. eigenvalues --   -0.44335  -0.43275  -0.43051  -0.42810  -0.42100
 Alpha  occ. eigenvalues --   -0.41904  -0.41542  -0.41509  -0.41223  -0.40571
 Alpha  occ. eigenvalues --   -0.40542  -0.40392  -0.37593  -0.37169  -0.36725
 Alpha  occ. eigenvalues --   -0.36440  -0.35282  -0.34857  -0.34759  -0.34367
 Alpha  occ. eigenvalues --   -0.33986  -0.33854  -0.33805  -0.33263  -0.32454
 Alpha  occ. eigenvalues --   -0.32185  -0.29127
 Alpha virt. eigenvalues --   -0.12985  -0.10714  -0.09649  -0.09555  -0.09465
 Alpha virt. eigenvalues --   -0.08327  -0.07811  -0.07232  -0.06031  -0.05833
 Alpha virt. eigenvalues --   -0.03818  -0.01811  -0.01383  -0.01340  -0.00922

 Mulliken charges:
               1
     1  N   -0.762164
     2  H    0.414385
     3  H    0.438035
     4  H    0.413219
     5  C   -0.100306
     6  H    0.233692
     7  C    0.641822
     8  C   -0.398398
     9  H    0.177569
    10  H    0.191660
    11  O   -0.542679
    12  C    0.146711
    13  C   -0.208881
    14  H    0.165129
    15  C   -0.181119
    16  H    0.115925
    17  C   -0.149601
    18  H    0.182126
    19  C   -0.132575
    20  H    0.155170
    21  C   -0.153032
    22  H    0.211339
    23  N   -0.611842
    24  H    0.394203
    25  C   -0.085399
    26  H    0.207416
    27  C    0.617389
    28  C   -0.027847
    29  H    0.154518
    30  H    0.163293
    31  O   -0.558216
    32  O   -0.637774
    33  H    0.442469
    34  N   -0.589091
    35  H    0.373645
    36  C   -0.092901
    37  H    0.185568
    38  C    0.638347
    39  C   -0.044520
    40  H    0.158325
    41  H    0.158823
    42  O   -0.542041
    43  O   -0.628852
    44  H    0.421283
    45  N   -0.631587
    46  H    0.390078
    47  C   -0.054331
    48  H    0.194950
    49  C    0.624309
    50  C   -0.355629
    51  H    0.192378
    52  H    0.225655
    53  O   -0.529753
    54  C    0.593972
    55  O   -0.487907
    56  O   -0.542615
    57  N   -0.600699
    58  H    0.354754
    59  C   -0.056162
    60  H    0.205096
    61  C    0.589511
    62  C   -0.270742
    63  H    0.149842
    64  H    0.153425
    65  O   -0.464127
    66  C   -0.273535
    67  H    0.146339
    68  H    0.187578
    69  C   -0.153408
    70  H    0.158346
    71  H    0.157666
    72  N   -0.580986
    73  H    0.317804
    74  N   -0.742241
    75  H    0.340413
    76  H    0.331308
    77  N   -0.644053
    78  H    0.268853
    79  C    0.563657
    80  O   -0.559818
    81  H    0.419650
    82  H    0.427185
 Sum of Mulliken charges =   1.00000

 Dipole moment (field-independent basis, Debye):
    X=            -11.5970    Y=             11.2563    Z=             -7.4717  Tot=             17.8051
 Quadrupole moment (field-independent basis, Debye-Ang):
   XX=            -98.4130   YY=           -216.9351   ZZ=           -189.8321
   XY=             11.0999   XZ=             71.5104   YZ=            -19.4021

 Normal termination of Gaussian 16 at Thu May 26 21:15:39 2022.
