 Gaussian 16, Revision C.01,
 Gaussian 16:  ES64L-G16RevC.01  3-Jul-2019

 -------------------------------------------------------------------
 # B3LYP/6-31G* guess=read geom=check nosymm integral(ultrafinegrid)
 -------------------------------------------------------------------

 ------------------------------------------------------
 Candidate Structure: Conf:746 Charge calc in gas phase
 ------------------------------------------------------
 Structure from the checkpoint file:  "conf-746.chk"
 Charge =  1 Multiplicity = 1

                          Input orientation:
 ---------------------------------------------------------------------
 Center     Atomic      Atomic             Coordinates (Angstroms)
 Number     Number       Type             X           Y           Z
 ---------------------------------------------------------------------
      1          7           0       -4.829688   -2.126116   -5.071906
      2          1           0       -4.915180   -1.926583   -6.072596
      3          1           0       -4.041007   -2.811789   -4.938837
      4          1           0       -5.734512   -2.485026   -4.728524
      5          6           0       -4.381405   -0.926401   -4.269373
      6          1           0       -4.624864   -0.027655   -4.839703
      7          6           0       -2.852854   -1.141031   -4.132002
      8          6           0       -5.099273   -0.917254   -2.895502
      9          1           0       -4.704295   -1.741297   -2.289238
     10          1           0       -4.813555    0.011876   -2.390970
     11          8           0       -2.407959   -2.274363   -4.365848
     12          6           0       -6.603568   -1.030956   -3.031364
     13          6           0       -7.379080    0.078220   -3.401276
     14          1           0       -6.907877    1.049949   -3.533791
     15          6           0       -7.237136   -2.270539   -2.842875
     16          1           0       -6.658873   -3.128850   -2.502803
     17          6           0       -8.756183   -0.049494   -3.576133
     18          1           0       -9.347370    0.819835   -3.848243
     19          6           0       -8.618506   -2.398484   -3.024058
     20          1           0       -9.097268   -3.359233   -2.859840
     21          6           0       -9.377599   -1.288775   -3.392990
     22          1           0      -10.450977   -1.383269   -3.526110
     23          7           0       -2.147896   -0.090788   -3.730446
     24          1           0       -2.569095    0.820455   -3.542161
     25          6           0       -0.709805   -0.095550   -3.481563
     26          1           0       -0.452873   -0.958949   -2.856371
     27          6           0       -0.440472    1.218369   -2.706752
     28          6           0        0.101168   -0.178655   -4.782720
     29          1           0       -0.138579   -1.125274   -5.286719
     30          1           0        1.171013   -0.197051   -4.526545
     31          8           0       -1.364702    2.029697   -2.551420
     32          8           0       -0.245781    0.949015   -5.564118
     33          1           0        0.332486    0.977817   -6.341518
     34          7           0        0.803314    1.375415   -2.246367
     35          1           0        1.514993    0.652837   -2.357766
     36          6           0        1.330917    2.576957   -1.600811
     37          1           0        1.210294    3.436494   -2.272419
     38          6           0        2.835900    2.292382   -1.413857
     39          6           0        0.606459    2.942998   -0.273050
     40          1           0        1.280803    3.529095    0.359529
     41          1           0        0.386995    2.006073    0.265353
     42          8           0        3.293883    1.162892   -1.635615
     43          8           0       -0.530309    3.739684   -0.480791
     44          1           0       -1.089575    3.277732   -1.134721
     45          7           0        3.585143    3.337791   -1.025380
     46          1           0        3.154716    4.212949   -0.743950
     47          6           0        5.032445    3.236694   -0.806369
     48          1           0        5.392217    2.475738   -1.506574
     49          6           0        5.366760    2.757661    0.627245
     50          6           0        5.750291    4.555829   -1.117269
     51          1           0        6.828987    4.399112   -1.066754
     52          1           0        5.508379    4.855526   -2.145297
     53          8           0        5.960781    3.474739    1.421120
     54          6           0        5.445458    5.738217   -0.214302
     55          8           0        6.222170    6.604674    0.088404
     56          8           0        4.124191    5.781379    0.150735
     57          7           0        4.940643    1.498169    0.921715
     58          1           0        4.633450    0.911239    0.152568
     59          6           0        5.358954    0.857095    2.159809
     60          1           0        5.189781    1.556276    2.982675
     61          6           0        6.862309    0.553294    2.094664
     62          6           0        4.536116   -0.429822    2.378566
     63          1           0        4.794607   -1.149457    1.587883
     64          1           0        3.480946   -0.163018    2.233050
     65          8           0        7.466576    0.298337    1.078279
     66          6           0        4.708724   -1.075376    3.759349
     67          1           0        4.426744   -0.358428    4.539896
     68          1           0        5.760360   -1.332697    3.932849
     69          6           0        3.844585   -2.337114    3.913944
     70          1           0        2.795347   -2.088469    3.729075
     71          1           0        4.128574   -3.085011    3.162853
     72          7           0        3.943634   -2.980330    5.226410
     73          1           0        4.855228   -3.390536    5.396884
     74          7           0        2.204620   -1.725031    6.169328
     75          1           0        1.836242   -1.409726    7.060990
     76          1           0        1.527995   -2.303642    5.680193
     77          7           0        3.958463   -2.350650    7.548192
     78          1           0        4.909986   -2.723769    7.536627
     79          6           0        3.434278   -2.365060    6.378724
     80          8           0        7.428678    0.566940    3.319046
     81          1           0        4.019528    6.571250    0.714841
     82          1           0        8.373925    0.354676    3.194559
 ---------------------------------------------------------------------

 SCF Done:  E(RB3LYP) =  -2166.24770162     A.U. after    3 cycles

 Alpha  occ. eigenvalues --  -19.27438 -19.26415 -19.25687 -19.25483 -19.24229
 Alpha  occ. eigenvalues --  -19.22336 -19.20923 -19.19891 -19.19658 -19.18800
 Alpha  occ. eigenvalues --  -14.60440 -14.50326 -14.47240 -14.45785 -14.42560
 Alpha  occ. eigenvalues --  -14.39474 -14.38142 -14.32493 -10.44354 -10.41524
 Alpha  occ. eigenvalues --  -10.41176 -10.39212 -10.38588 -10.37675 -10.36321
 Alpha  occ. eigenvalues --  -10.35690 -10.35277 -10.34931 -10.33479 -10.32982
 Alpha  occ. eigenvalues --  -10.32185 -10.32097 -10.31920 -10.31693 -10.31303
 Alpha  occ. eigenvalues --  -10.30967 -10.30838 -10.30576 -10.30218 -10.27688
 Alpha  occ. eigenvalues --  -10.27660 -10.26322 -10.24365  -1.19847  -1.16708
 Alpha  occ. eigenvalues --   -1.16318  -1.16101  -1.14532  -1.14009  -1.13148
 Alpha  occ. eigenvalues --   -1.10653  -1.09005  -1.07826  -1.07332  -1.06879
 Alpha  occ. eigenvalues --   -1.03808  -1.02291  -1.01547  -0.99280  -0.98373
 Alpha  occ. eigenvalues --   -0.94076  -0.92976  -0.90044  -0.88336  -0.88030
 Alpha  occ. eigenvalues --   -0.86808  -0.86490  -0.85934  -0.84120  -0.80430
 Alpha  occ. eigenvalues --   -0.80062  -0.77728  -0.76230  -0.75024  -0.74632
 Alpha  occ. eigenvalues --   -0.74035  -0.72767  -0.72399  -0.71626  -0.70902
 Alpha  occ. eigenvalues --   -0.70317  -0.69030  -0.68441  -0.67404  -0.67027
 Alpha  occ. eigenvalues --   -0.65246  -0.64633  -0.64330  -0.64054  -0.63654
 Alpha  occ. eigenvalues --   -0.63546  -0.62372  -0.60636  -0.59848  -0.59071
 Alpha  occ. eigenvalues --   -0.58704  -0.58569  -0.58297  -0.58245  -0.57498
 Alpha  occ. eigenvalues --   -0.57395  -0.57053  -0.56142  -0.55910  -0.55582
 Alpha  occ. eigenvalues --   -0.54910  -0.54251  -0.54190  -0.54014  -0.53551
 Alpha  occ. eigenvalues --   -0.53060  -0.52996  -0.52779  -0.52370  -0.52067
 Alpha  occ. eigenvalues --   -0.51962  -0.51598  -0.51452  -0.51139  -0.50651
 Alpha  occ. eigenvalues --   -0.50281  -0.49759  -0.49465  -0.48637  -0.48135
 Alpha  occ. eigenvalues --   -0.47931  -0.47855  -0.46914  -0.46800  -0.46491
 Alpha  occ. eigenvalues --   -0.46472  -0.46192  -0.46124  -0.45504  -0.45304
 Alpha  occ. eigenvalues --   -0.45122  -0.44158  -0.43413  -0.42852  -0.42284
 Alpha  occ. eigenvalues --   -0.42130  -0.41492  -0.40540  -0.40253  -0.39874
 Alpha  occ. eigenvalues --   -0.38605  -0.38239  -0.37917  -0.37359  -0.37341
 Alpha  occ. eigenvalues --   -0.37138  -0.36907  -0.36658  -0.36143  -0.33966
 Alpha  occ. eigenvalues --   -0.33862  -0.33563  -0.32520  -0.31431  -0.30593
 Alpha  occ. eigenvalues --   -0.29734  -0.26819
 Alpha virt. eigenvalues --   -0.13943  -0.13080  -0.11891  -0.10619  -0.09602
 Alpha virt. eigenvalues --   -0.08166  -0.05647  -0.05551  -0.04760  -0.04266
 Alpha virt. eigenvalues --   -0.03697  -0.02895  -0.02663  -0.01938  -0.01112

 Mulliken charges:
               1
     1  N   -0.749934
     2  H    0.417325
     3  H    0.426943
     4  H    0.405903
     5  C   -0.114058
     6  H    0.217736
     7  C    0.661246
     8  C   -0.384162
     9  H    0.193933
    10  H    0.209893
    11  O   -0.543254
    12  C    0.137231
    13  C   -0.181227
    14  H    0.148791
    15  C   -0.230761
    16  H    0.151269
    17  C   -0.121909
    18  H    0.170624
    19  C   -0.119667
    20  H    0.169471
    21  C   -0.123160
    22  H    0.171978
    23  N   -0.603314
    24  H    0.380868
    25  C   -0.077507
    26  H    0.201810
    27  C    0.666625
    28  C   -0.041527
    29  H    0.169716
    30  H    0.154491
    31  O   -0.565879
    32  O   -0.614448
    33  H    0.416767
    34  N   -0.639044
    35  H    0.370239
    36  C   -0.063101
    37  H    0.199886
    38  C    0.617801
    39  C   -0.023664
    40  H    0.163285
    41  H    0.136198
    42  O   -0.559863
    43  O   -0.628894
    44  H    0.425507
    45  N   -0.613657
    46  H    0.378833
    47  C   -0.096079
    48  H    0.201356
    49  C    0.652732
    50  C   -0.375166
    51  H    0.216457
    52  H    0.186842
    53  O   -0.504429
    54  C    0.624818
    55  O   -0.435330
    56  O   -0.604855
    57  N   -0.628422
    58  H    0.359575
    59  C   -0.015930
    60  H    0.197937
    61  C    0.594827
    62  C   -0.305835
    63  H    0.149838
    64  H    0.152049
    65  O   -0.466432
    66  C   -0.268583
    67  H    0.173659
    68  H    0.149433
    69  C   -0.137601
    70  H    0.148196
    71  H    0.144469
    72  N   -0.584042
    73  H    0.311715
    74  N   -0.739128
    75  H    0.339502
    76  H    0.317554
    77  N   -0.624285
    78  H    0.266132
    79  C    0.545580
    80  O   -0.555808
    81  H    0.425065
    82  H    0.418850
 Sum of Mulliken charges =   1.00000

 Dipole moment (field-independent basis, Debye):
    X=            -18.9471    Y=             -7.3309    Z=            -22.5646  Tot=             30.3627
 Quadrupole moment (field-independent basis, Debye-Ang):
   XX=           -104.7020   YY=           -237.3840   ZZ=           -163.7837
   XY=             21.4447   XZ=             85.4038   YZ=             16.1859

 Normal termination of Gaussian 16 at Thu May 26 21:15:42 2022.
