 Gaussian 16, Revision C.01,
 Gaussian 16:  ES64L-G16RevC.01  3-Jul-2019

 -------------------------------------------------------------------
 # B3LYP/6-31G* guess=read geom=check nosymm integral(ultrafinegrid)
 -------------------------------------------------------------------

 ------------------------------------------------------
 Candidate Structure: Conf:876 Charge calc in gas phase
 ------------------------------------------------------
 Structure from the checkpoint file:  "conf-876.chk"
 Charge =  1 Multiplicity = 1

                          Input orientation:
 ---------------------------------------------------------------------
 Center     Atomic      Atomic             Coordinates (Angstroms)
 Number     Number       Type             X           Y           Z
 ---------------------------------------------------------------------
      1          7           0       -4.051587   -0.340530   -6.557694
      2          1           0       -3.182956   -0.127315   -7.057249
      3          1           0       -4.080296   -1.374054   -6.380157
      4          1           0       -4.850571   -0.016250   -7.126442
      5          6           0       -4.097979    0.264903   -5.172720
      6          1           0       -3.438838    1.135610   -5.165034
      7          6           0       -3.584986   -0.871369   -4.256883
      8          6           0       -5.554751    0.676255   -4.835940
      9          1           0       -6.150778   -0.233244   -4.694407
     10          1           0       -5.525120    1.189511   -3.869108
     11          8           0       -3.625906   -2.028063   -4.713943
     12          6           0       -6.166021    1.553260   -5.909147
     13          6           0       -5.840922    2.915422   -5.997031
     14          1           0       -5.189480    3.367299   -5.251835
     15          6           0       -7.027277    0.996628   -6.869550
     16          1           0       -7.332686   -0.045576   -6.785075
     17          6           0       -6.367530    3.702612   -7.019889
     18          1           0       -6.119644    4.758743   -7.068598
     19          6           0       -7.550831    1.786889   -7.898553
     20          1           0       -8.227820    1.347182   -8.624849
     21          6           0       -7.219219    3.138929   -7.975108
     22          1           0       -7.630563    3.756242   -8.767878
     23          7           0       -3.188196   -0.510580   -3.045243
     24          1           0       -3.089115    0.473883   -2.779874
     25          6           0       -2.693850   -1.397510   -1.987270
     26          1           0       -3.505590   -2.050933   -1.644523
     27          6           0       -2.288929   -0.437763   -0.849568
     28          6           0       -1.528334   -2.327227   -2.451197
     29          1           0       -0.873650   -2.537632   -1.602988
     30          1           0       -0.918418   -1.776785   -3.183150
     31          8           0       -2.276072    0.780022   -1.049924
     32          8           0       -1.994486   -3.562696   -2.929289
     33          1           0       -2.538748   -3.384413   -3.716511
     34          7           0       -2.013600   -1.020669    0.342278
     35          1           0       -1.901883   -2.028497    0.322001
     36          6           0       -1.184903   -0.314902    1.311668
     37          1           0       -1.567653    0.706786    1.389337
     38          6           0        0.258203   -0.214113    0.745735
     39          6           0       -1.291474   -0.956259    2.700581
     40          1           0       -0.757347   -1.918781    2.722488
     41          1           0       -2.350933   -1.145814    2.924569
     42          8           0        0.516557   -0.638976   -0.380377
     43          8           0       -0.728097   -0.023222    3.612012
     44          1           0       -0.557702   -0.463404    4.458439
     45          7           0        1.149154    0.429741    1.527533
     46          1           0        0.885411    0.719905    2.466259
     47          6           0        2.389419    0.948330    0.983066
     48          1           0        2.729438    0.261097    0.203740
     49          6           0        3.401623    1.050355    2.132648
     50          6           0        2.203975    2.372541    0.363307
     51          1           0        1.927739    3.063544    1.165708
     52          1           0        3.148232    2.699710   -0.079669
     53          8           0        3.026027    1.267051    3.278829
     54          6           0        1.133308    2.385736   -0.713222
     55          8           0        1.325345    2.271318   -1.902122
     56          8           0       -0.098371    2.514685   -0.162099
     57          7           0        4.707346    0.914744    1.769752
     58          1           0        4.924705    0.820682    0.786045
     59          6           0        5.803278    1.227329    2.674176
     60          1           0        5.335378    1.423963    3.645573
     61          6           0        6.543567    2.511788    2.288310
     62          6           0        6.805865    0.064667    2.825589
     63          1           0        7.643581    0.450360    3.415530
     64          1           0        7.209092   -0.194888    1.835469
     65          8           0        7.542174    2.900971    2.845902
     66          6           0        6.186972   -1.175771    3.481319
     67          1           0        5.295434   -1.473662    2.915829
     68          1           0        5.854488   -0.929326    4.497671
     69          6           0        7.129448   -2.382297    3.543090
     70          1           0        6.574896   -3.238218    3.943704
     71          1           0        7.446100   -2.658084    2.520806
     72          7           0        8.262268   -2.145902    4.423967
     73          1           0        8.762026   -1.281394    4.247646
     74          7           0       10.236906   -2.746282    5.468886
     75          1           0       10.796799   -3.529984    5.786291
     76          1           0       10.001316   -2.120572    6.232589
     77          7           0        9.019627   -4.441805    4.450212
     78          1           0        8.257399   -4.611624    3.794331
     79          6           0        9.130287   -3.198301    4.742559
     80          8           0        5.966708    3.173243    1.255403
     81          1           0       -0.767408    2.303459   -0.843282
     82          1           0        6.512320    3.970065    1.108273
 ---------------------------------------------------------------------

 SCF Done:  E(RB3LYP) =  -2166.24581013     A.U. after    2 cycles

 Alpha  occ. eigenvalues --  -19.28235 -19.27019 -19.25553 -19.24689 -19.24447
 Alpha  occ. eigenvalues --  -19.22805 -19.20806 -19.20170 -19.20034 -19.19570
 Alpha  occ. eigenvalues --  -14.60882 -14.50805 -14.47444 -14.44307 -14.43419
 Alpha  occ. eigenvalues --  -14.38693 -14.36857 -14.31634 -10.45013 -10.41943
 Alpha  occ. eigenvalues --  -10.41247 -10.39062 -10.38580 -10.37120 -10.36859
 Alpha  occ. eigenvalues --  -10.35537 -10.35142 -10.33763 -10.33471 -10.33149
 Alpha  occ. eigenvalues --  -10.32920 -10.32076 -10.31840 -10.31462 -10.31182
 Alpha  occ. eigenvalues --  -10.31091 -10.30999 -10.30969 -10.30706 -10.27648
 Alpha  occ. eigenvalues --  -10.27099 -10.25948 -10.24769  -1.20359  -1.17662
 Alpha  occ. eigenvalues --   -1.16550  -1.16126  -1.14992  -1.12402  -1.11746
 Alpha  occ. eigenvalues --   -1.11312  -1.10786  -1.08595  -1.07683  -1.07264
 Alpha  occ. eigenvalues --   -1.03990  -1.00839  -1.00720  -1.00427  -0.98543
 Alpha  occ. eigenvalues --   -0.94273  -0.92321  -0.89674  -0.87928  -0.87195
 Alpha  occ. eigenvalues --   -0.86859  -0.86645  -0.85506  -0.84102  -0.80711
 Alpha  occ. eigenvalues --   -0.80516  -0.77089  -0.76920  -0.75067  -0.74375
 Alpha  occ. eigenvalues --   -0.74137  -0.73543  -0.72575  -0.72067  -0.71047
 Alpha  occ. eigenvalues --   -0.69943  -0.68284  -0.67826  -0.67321  -0.66854
 Alpha  occ. eigenvalues --   -0.66176  -0.65904  -0.64455  -0.63711  -0.62901
 Alpha  occ. eigenvalues --   -0.62247  -0.61698  -0.61370  -0.60446  -0.59839
 Alpha  occ. eigenvalues --   -0.59079  -0.58540  -0.57952  -0.57812  -0.57427
 Alpha  occ. eigenvalues --   -0.57247  -0.56329  -0.55992  -0.55411  -0.55241
 Alpha  occ. eigenvalues --   -0.55045  -0.54673  -0.54558  -0.54239  -0.53965
 Alpha  occ. eigenvalues --   -0.53662  -0.53353  -0.53305  -0.52827  -0.52047
 Alpha  occ. eigenvalues --   -0.51870  -0.51676  -0.51459  -0.51261  -0.50841
 Alpha  occ. eigenvalues --   -0.50247  -0.49521  -0.49069  -0.48952  -0.48467
 Alpha  occ. eigenvalues --   -0.48318  -0.47675  -0.47296  -0.47197  -0.46649
 Alpha  occ. eigenvalues --   -0.46268  -0.46260  -0.45900  -0.45497  -0.44903
 Alpha  occ. eigenvalues --   -0.44566  -0.44187  -0.43986  -0.42741  -0.42221
 Alpha  occ. eigenvalues --   -0.41665  -0.40983  -0.40443  -0.39811  -0.39348
 Alpha  occ. eigenvalues --   -0.39145  -0.38590  -0.38294  -0.37510  -0.37449
 Alpha  occ. eigenvalues --   -0.37128  -0.37076  -0.36241  -0.35690  -0.34592
 Alpha  occ. eigenvalues --   -0.33982  -0.33469  -0.32566  -0.32201  -0.29452
 Alpha  occ. eigenvalues --   -0.28814  -0.26336
 Alpha virt. eigenvalues --   -0.14414  -0.13221  -0.12227  -0.10845  -0.10091
 Alpha virt. eigenvalues --   -0.07240  -0.06204  -0.05990  -0.05952  -0.04183
 Alpha virt. eigenvalues --   -0.03696  -0.02945  -0.02904  -0.02278  -0.01347

 Mulliken charges:
               1
     1  N   -0.747795
     2  H    0.420063
     3  H    0.428787
     4  H    0.407447
     5  C   -0.117022
     6  H    0.218657
     7  C    0.670577
     8  C   -0.380696
     9  H    0.196926
    10  H    0.209105
    11  O   -0.563955
    12  C    0.133851
    13  C   -0.180714
    14  H    0.148669
    15  C   -0.230810
    16  H    0.152844
    17  C   -0.121636
    18  H    0.171357
    19  C   -0.119119
    20  H    0.170681
    21  C   -0.122855
    22  H    0.172877
    23  N   -0.624615
    24  H    0.375388
    25  C   -0.074426
    26  H    0.205098
    27  C    0.643520
    28  C   -0.039178
    29  H    0.188972
    30  H    0.149743
    31  O   -0.553132
    32  O   -0.618994
    33  H    0.422038
    34  N   -0.589795
    35  H    0.347645
    36  C   -0.094800
    37  H    0.226123
    38  C    0.626181
    39  C   -0.047336
    40  H    0.146418
    41  H    0.160593
    42  O   -0.542910
    43  O   -0.614050
    44  H    0.421692
    45  N   -0.599062
    46  H    0.380341
    47  C   -0.078296
    48  H    0.191893
    49  C    0.625566
    50  C   -0.325946
    51  H    0.189367
    52  H    0.183891
    53  O   -0.516445
    54  C    0.569371
    55  O   -0.462217
    56  O   -0.577115
    57  N   -0.597652
    58  H    0.340417
    59  C   -0.072188
    60  H    0.225011
    61  C    0.594452
    62  C   -0.282405
    63  H    0.179930
    64  H    0.140823
    65  O   -0.445357
    66  C   -0.276205
    67  H    0.143553
    68  H    0.160864
    69  C   -0.130270
    70  H    0.159907
    71  H    0.135625
    72  N   -0.607388
    73  H    0.326895
    74  N   -0.751584
    75  H    0.338183
    76  H    0.320102
    77  N   -0.643421
    78  H    0.275446
    79  C    0.578290
    80  O   -0.575338
    81  H    0.427023
    82  H    0.422526
 Sum of Mulliken charges =   1.00000

 Dipole moment (field-independent basis, Debye):
    X=            -18.7695    Y=              3.7543    Z=            -21.6239  Tot=             28.8787
 Quadrupole moment (field-independent basis, Debye-Ang):
   XX=           -151.9832   YY=           -253.7736   ZZ=            -64.0471
   XY=             13.3120   XZ=            119.2330   YZ=            -22.3906

 Normal termination of Gaussian 16 at Thu May 26 21:35:53 2022.
