 Gaussian 16, Revision C.01,
 Gaussian 16:  ES64L-G16RevC.01  3-Jul-2019

 -------------------------------------------------------------------
 # B3LYP/6-31G* guess=read geom=check nosymm integral(ultrafinegrid)
 -------------------------------------------------------------------

 ------------------------------------------------------
 Candidate Structure: Conf:879 Charge calc in gas phase
 ------------------------------------------------------
 Structure from the checkpoint file:  "conf-879.chk"
 Charge =  1 Multiplicity = 1

                          Input orientation:
 ---------------------------------------------------------------------
 Center     Atomic      Atomic             Coordinates (Angstroms)
 Number     Number       Type             X           Y           Z
 ---------------------------------------------------------------------
      1          7           0       -5.679416    0.964185   -5.629763
      2          1           0       -5.995991    1.644525   -6.323846
      3          1           0       -5.117057    0.181023   -6.071055
      4          1           0       -6.497663    0.551080   -5.151414
      5          6           0       -4.716528    1.522061   -4.606299
      6          1           0       -4.260907    2.413694   -5.048331
      7          6           0       -3.626194    0.409938   -4.537039
      8          6           0       -5.449201    1.893331   -3.294984
      9          1           0       -4.696333    2.212492   -2.566571
     10          1           0       -6.064337    2.779142   -3.494145
     11          8           0       -3.646329   -0.463169   -5.415796
     12          6           0       -6.305090    0.772311   -2.739816
     13          6           0       -7.655057    0.668561   -3.120123
     14          1           0       -8.110787    1.451899   -3.726342
     15          6           0       -5.767806   -0.191369   -1.872826
     16          1           0       -4.737656   -0.109659   -1.534903
     17          6           0       -8.446170   -0.390024   -2.663359
     18          1           0       -9.490467   -0.449565   -2.955422
     19          6           0       -6.562496   -1.241480   -1.412935
     20          1           0       -6.137307   -1.973015   -0.732241
     21          6           0       -7.897033   -1.349467   -1.813325
     22          1           0       -8.510256   -2.168480   -1.449720
     23          7           0       -2.721090    0.513301   -3.568577
     24          1           0       -2.868550    1.126925   -2.765087
     25          6           0       -1.732789   -0.518161   -3.266769
     26          1           0       -2.124100   -1.492469   -3.577443
     27          6           0       -1.572064   -0.471254   -1.731112
     28          6           0       -0.401257   -0.279138   -4.018031
     29          1           0        0.049963    0.661686   -3.679820
     30          1           0       -0.629734   -0.188979   -5.088108
     31          8           0       -2.184640    0.380706   -1.074146
     32          8           0        0.459528   -1.380170   -3.790292
     33          1           0        1.317802   -1.026925   -3.482530
     34          7           0       -0.738734   -1.392945   -1.224188
     35          1           0       -0.173526   -1.916267   -1.892375
     36          6           0       -0.338223   -1.429492    0.180130
     37          1           0       -0.860525   -0.612456    0.682953
     38          6           0        1.187127   -1.252531    0.194516
     39          6           0       -0.720283   -2.757981    0.838333
     40          1           0       -0.340140   -2.753830    1.872620
     41          1           0       -0.221541   -3.576386    0.300449
     42          8           0        1.909255   -2.085439   -0.352956
     43          8           0       -2.132713   -2.865985    0.795437
     44          1           0       -2.375879   -3.721751    1.179924
     45          7           0        1.662289   -0.126496    0.774095
     46          1           0        1.061267    0.546229    1.240539
     47          6           0        3.074035    0.204009    0.783800
     48          1           0        3.650736   -0.717195    0.912778
     49          6           0        3.293634    1.178120    1.956627
     50          6           0        3.524943    0.908421   -0.532394
     51          1           0        2.893617    1.783479   -0.701858
     52          1           0        4.564598    1.235409   -0.425507
     53          8           0        2.367269    1.871320    2.365548
     54          6           0        3.411794   -0.003284   -1.733589
     55          8           0        2.510878    0.047307   -2.553778
     56          8           0        4.427092   -0.874616   -1.796590
     57          7           0        4.556451    1.211992    2.451393
     58          1           0        5.267718    0.654805    1.994961
     59          6           0        5.018184    2.246339    3.369989
     60          1           0        4.122090    2.754896    3.735999
     61          6           0        5.865142    3.313626    2.672628
     62          6           0        5.803326    1.658139    4.562059
     63          1           0        6.256798    2.493206    5.104354
     64          1           0        6.636244    1.048861    4.185466
     65          8           0        6.174624    4.361428    3.183773
     66          6           0        4.921339    0.827391    5.502050
     67          1           0        4.387092    0.055454    4.931250
     68          1           0        4.148059    1.474920    5.940830
     69          6           0        5.701248    0.127789    6.630588
     70          1           0        5.003326   -0.476741    7.222509
     71          1           0        6.431695   -0.560661    6.198853
     72          7           0        6.410165    1.022974    7.545622
     73          1           0        5.807346    1.687960    8.016542
     74          7           0        8.532682    0.656148    6.620664
     75          1           0        9.462384    1.060648    6.571789
     76          1           0        8.559871   -0.264005    7.050533
     77          7           0        8.103870    2.726063    7.568299
     78          1           0        7.350714    3.323953    7.914961
     79          6           0        7.675776    1.552499    7.275240
     80          8           0        6.267655    2.945210    1.427843
     81          1           0        4.253227   -1.491603   -2.532413
     82          1           0        6.829634    3.674056    1.100621
 ---------------------------------------------------------------------

 SCF Done:  E(RB3LYP) =  -2166.25870928     A.U. after    1 cycles

 Alpha  occ. eigenvalues --  -19.28618 -19.27170 -19.26397 -19.23605 -19.22872
 Alpha  occ. eigenvalues --  -19.22320 -19.21811 -19.20840 -19.20676 -19.20207
 Alpha  occ. eigenvalues --  -14.58917 -14.48902 -14.45083 -14.45054 -14.44991
 Alpha  occ. eigenvalues --  -14.39548 -14.38150 -14.32456 -10.43222 -10.41807
 Alpha  occ. eigenvalues --  -10.40530 -10.39068 -10.38685 -10.37933 -10.37603
 Alpha  occ. eigenvalues --  -10.33901 -10.33704 -10.33403 -10.32803 -10.32049
 Alpha  occ. eigenvalues --  -10.31852 -10.31714 -10.31502 -10.31345 -10.30602
 Alpha  occ. eigenvalues --  -10.29831 -10.29585 -10.29481 -10.29414 -10.29345
 Alpha  occ. eigenvalues --  -10.27679 -10.25656 -10.24984  -1.19756  -1.18809
 Alpha  occ. eigenvalues --   -1.17691  -1.13787  -1.13055  -1.12897  -1.12029
 Alpha  occ. eigenvalues --   -1.11001  -1.10176  -1.09726  -1.08685  -1.05580
 Alpha  occ. eigenvalues --   -1.01725  -1.01650  -1.01545  -1.01421  -0.97035
 Alpha  occ. eigenvalues --   -0.93038  -0.92712  -0.89004  -0.88264  -0.87744
 Alpha  occ. eigenvalues --   -0.86198  -0.85658  -0.85204  -0.83657  -0.81052
 Alpha  occ. eigenvalues --   -0.79412  -0.78204  -0.75275  -0.73926  -0.73603
 Alpha  occ. eigenvalues --   -0.73026  -0.72384  -0.70902  -0.70484  -0.69833
 Alpha  occ. eigenvalues --   -0.69356  -0.68583  -0.68168  -0.67273  -0.67118
 Alpha  occ. eigenvalues --   -0.66483  -0.65688  -0.64346  -0.63343  -0.62932
 Alpha  occ. eigenvalues --   -0.62177  -0.60843  -0.60423  -0.59264  -0.59002
 Alpha  occ. eigenvalues --   -0.58551  -0.58064  -0.57759  -0.57328  -0.56919
 Alpha  occ. eigenvalues --   -0.56734  -0.56417  -0.56224  -0.55491  -0.55296
 Alpha  occ. eigenvalues --   -0.55044  -0.54908  -0.54396  -0.53863  -0.53295
 Alpha  occ. eigenvalues --   -0.52915  -0.52675  -0.52636  -0.52134  -0.51811
 Alpha  occ. eigenvalues --   -0.51539  -0.51105  -0.50986  -0.50713  -0.50105
 Alpha  occ. eigenvalues --   -0.49963  -0.49773  -0.49327  -0.48852  -0.48527
 Alpha  occ. eigenvalues --   -0.47768  -0.47452  -0.47361  -0.47165  -0.46895
 Alpha  occ. eigenvalues --   -0.46839  -0.46548  -0.46142  -0.45002  -0.44893
 Alpha  occ. eigenvalues --   -0.44756  -0.43941  -0.43183  -0.42447  -0.41962
 Alpha  occ. eigenvalues --   -0.41665  -0.40991  -0.40954  -0.40715  -0.40028
 Alpha  occ. eigenvalues --   -0.39512  -0.38632  -0.37445  -0.36806  -0.36561
 Alpha  occ. eigenvalues --   -0.36067  -0.36033  -0.35670  -0.35383  -0.35151
 Alpha  occ. eigenvalues --   -0.34628  -0.33869  -0.33020  -0.32611  -0.30553
 Alpha  occ. eigenvalues --   -0.29788  -0.26691
 Alpha virt. eigenvalues --   -0.12512  -0.11834  -0.11760  -0.09430  -0.08382
 Alpha virt. eigenvalues --   -0.08008  -0.06183  -0.06086  -0.05428  -0.03957
 Alpha virt. eigenvalues --   -0.02859  -0.01415  -0.01279  -0.00510  -0.00300

 Mulliken charges:
               1
     1  N   -0.757171
     2  H    0.409263
     3  H    0.433469
     4  H    0.403971
     5  C   -0.113252
     6  H    0.226894
     7  C    0.654155
     8  C   -0.394282
     9  H    0.209517
    10  H    0.188001
    11  O   -0.534772
    12  C    0.138194
    13  C   -0.236571
    14  H    0.139637
    15  C   -0.188393
    16  H    0.178016
    17  C   -0.118996
    18  H    0.163409
    19  C   -0.127381
    20  H    0.169344
    21  C   -0.121562
    22  H    0.165748
    23  N   -0.613042
    24  H    0.375154
    25  C   -0.084678
    26  H    0.212153
    27  C    0.621379
    28  C   -0.028832
    29  H    0.158120
    30  H    0.159776
    31  O   -0.550731
    32  O   -0.648383
    33  H    0.443027
    34  N   -0.588203
    35  H    0.374719
    36  C   -0.074297
    37  H    0.192528
    38  C    0.627930
    39  C   -0.023341
    40  H    0.141019
    41  H    0.154957
    42  O   -0.546256
    43  O   -0.619550
    44  H    0.405394
    45  N   -0.613239
    46  H    0.363295
    47  C   -0.069426
    48  H    0.199941
    49  C    0.617792
    50  C   -0.335681
    51  H    0.191419
    52  H    0.195046
    53  O   -0.517251
    54  C    0.613469
    55  O   -0.498114
    56  O   -0.538097
    57  N   -0.592489
    58  H    0.344562
    59  C   -0.072655
    60  H    0.217102
    61  C    0.595411
    62  C   -0.282187
    63  H    0.196679
    64  H    0.154936
    65  O   -0.437890
    66  C   -0.265438
    67  H    0.138980
    68  H    0.142058
    69  C   -0.147464
    70  H    0.153602
    71  H    0.162169
    72  N   -0.583026
    73  H    0.312159
    74  N   -0.742785
    75  H    0.340822
    76  H    0.323271
    77  N   -0.627851
    78  H    0.265769
    79  C    0.553106
    80  O   -0.582926
    81  H    0.426126
    82  H    0.422728
 Sum of Mulliken charges =   1.00000

 Dipole moment (field-independent basis, Debye):
    X=            -14.9535    Y=              0.7566    Z=            -14.6502  Tot=             20.9477
 Quadrupole moment (field-independent basis, Debye-Ang):
   XX=            -84.8695   YY=           -238.9741   ZZ=           -146.2319
   XY=            -34.6106   XZ=             94.4241   YZ=            -54.5781

 Normal termination of Gaussian 16 at Thu May 26 21:15:23 2022.
