 Gaussian 16, Revision C.01,
 Gaussian 16:  ES64L-G16RevC.01  3-Jul-2019

 -------------------------------------------------------------------
 # B3LYP/6-31G* guess=read geom=check nosymm integral(ultrafinegrid)
 -------------------------------------------------------------------

 ------------------------------------------------------
 Candidate Structure: Conf:472 Charge calc in gas phase
 ------------------------------------------------------
 Structure from the checkpoint file:  "conf-472.chk"
 Charge =  1 Multiplicity = 1

                          Input orientation:
 ---------------------------------------------------------------------
 Center     Atomic      Atomic             Coordinates (Angstroms)
 Number     Number       Type             X           Y           Z
 ---------------------------------------------------------------------
      1          7           0       -4.363859   -3.221084   -5.225250
      2          1           0       -3.843600   -3.194947   -6.106578
      3          1           0       -3.886553   -3.911402   -4.557814
      4          1           0       -5.330075   -3.495828   -5.422929
      5          6           0       -4.261017   -1.933233   -4.426216
      6          1           0       -3.865324   -1.154784   -5.081552
      7          6           0       -3.232032   -2.324750   -3.324820
      8          6           0       -5.655048   -1.534531   -3.890335
      9          1           0       -6.347047   -1.521385   -4.744449
     10          1           0       -6.002906   -2.311268   -3.198500
     11          8           0       -2.988339   -3.539075   -3.195314
     12          6           0       -5.664494   -0.179976   -3.209824
     13          6           0       -5.822042   -0.078076   -1.822517
     14          1           0       -5.943535   -0.978152   -1.224438
     15          6           0       -5.521638    0.991225   -3.968488
     16          1           0       -5.423599    0.932375   -5.051316
     17          6           0       -5.832851    1.172153   -1.203094
     18          1           0       -5.959694    1.238045   -0.126751
     19          6           0       -5.527732    2.240157   -3.348660
     20          1           0       -5.419708    3.139924   -3.946880
     21          6           0       -5.683044    2.331602   -1.963938
     22          1           0       -5.690444    3.304290   -1.481550
     23          7           0       -2.689911   -1.348008   -2.615073
     24          1           0       -2.971228   -0.369087   -2.716802
     25          6           0       -1.718579   -1.550622   -1.542575
     26          1           0       -2.048321   -2.365101   -0.889819
     27          6           0       -1.660894   -0.215931   -0.786630
     28          6           0       -0.310693   -1.920098   -2.109918
     29          1           0        0.003706   -1.130396   -2.805281
     30          1           0       -0.413843   -2.857130   -2.665580
     31          8           0       -2.170337    0.795728   -1.268675
     32          8           0        0.621417   -2.119638   -1.076751
     33          1           0        1.062367   -1.257059   -0.912393
     34          7           0       -0.999215   -0.257119    0.395572
     35          1           0       -0.463488   -1.100898    0.584451
     36          6           0       -0.440665    0.952368    0.971018
     37          1           0       -1.145809    1.769817    0.792714
     38          6           0        0.907079    1.267290    0.261964
     39          6           0       -0.224746    0.745907    2.476279
     40          1           0       -1.174575    0.421601    2.923323
     41          1           0        0.051491    1.703617    2.949844
     42          8           0        1.376913    0.527815   -0.601977
     43          8           0        0.787099   -0.225999    2.621373
     44          1           0        0.721495   -0.656828    3.520045
     45          7           0        1.542584    2.386783    0.687215
     46          1           0        1.112728    2.943802    1.414585
     47          6           0        2.873420    2.778575    0.228553
     48          1           0        3.053060    2.200205   -0.682657
     49          6           0        4.004053    2.419207    1.224092
     50          6           0        2.938411    4.268016   -0.112223
     51          1           0        2.564313    4.892981    0.707757
     52          1           0        3.993169    4.538535   -0.237671
     53          8           0        5.105487    2.945368    1.121133
     54          6           0        2.196442    4.607952   -1.386307
     55          8           0        1.863982    3.820940   -2.244660
     56          8           0        1.961368    5.937507   -1.473220
     57          7           0        3.693735    1.510041    2.187139
     58          1           0        2.824683    0.988645    2.127502
     59          6           0        4.706158    0.996528    3.096407
     60          1           0        5.397420    1.811786    3.326331
     61          6           0        5.573976   -0.109480    2.487954
     62          6           0        3.984006    0.520994    4.375872
     63          1           0        3.210426   -0.190302    4.066339
     64          1           0        3.452522    1.392466    4.775554
     65          8           0        6.626537   -0.470743    2.964558
     66          6           0        4.840838   -0.109338    5.480291
     67          1           0        5.643655    0.574433    5.784639
     68          1           0        5.341740   -1.011046    5.109672
     69          6           0        4.007765   -0.460613    6.728352
     70          1           0        4.646355   -0.936497    7.479576
     71          1           0        3.608766    0.449596    7.182877
     72          7           0        2.881917   -1.375250    6.459962
     73          1           0        3.179681   -2.258972    6.061560
     74          7           0        1.221358    0.270930    6.427058
     75          1           0        0.244206    0.420372    6.206265
     76          1           0        1.423798    0.446637    7.403991
     77          7           0        0.956645   -1.565924    5.051274
     78          1           0        1.439020   -2.396307    4.704484
     79          6           0        1.674303   -0.945621    5.940077
     80          8           0        5.027155   -0.672128    1.388286
     81          1           0        1.533099    6.087244   -2.337414
     82          1           0        5.660142   -1.352658    1.088812
 ---------------------------------------------------------------------

 SCF Done:  E(RB3LYP) =  -2166.26999024     A.U. after    2 cycles

 Alpha  occ. eigenvalues --  -19.26671 -19.25776 -19.25649 -19.21608 -19.21588
 Alpha  occ. eigenvalues --  -19.21555 -19.21022 -19.20193 -19.19660 -19.17720
 Alpha  occ. eigenvalues --  -14.59792 -14.49163 -14.45233 -14.44623 -14.42952
 Alpha  occ. eigenvalues --  -14.42449 -14.42266 -14.37201 -10.43371 -10.40836
 Alpha  occ. eigenvalues --  -10.38472 -10.38379 -10.37965 -10.37795 -10.36858
 Alpha  occ. eigenvalues --  -10.35147 -10.34240 -10.33414 -10.32361 -10.32264
 Alpha  occ. eigenvalues --  -10.32170 -10.30896 -10.30890 -10.30186 -10.29644
 Alpha  occ. eigenvalues --  -10.29440 -10.29215 -10.28723 -10.28598 -10.28460
 Alpha  occ. eigenvalues --  -10.27040 -10.25979 -10.25433  -1.19126  -1.16695
 Alpha  occ. eigenvalues --   -1.16458  -1.13939  -1.13432  -1.12567  -1.09790
 Alpha  occ. eigenvalues --   -1.09385  -1.09029  -1.07719  -1.07340  -1.05839
 Alpha  occ. eigenvalues --   -1.05605  -1.01677  -1.01461  -0.98807  -0.96651
 Alpha  occ. eigenvalues --   -0.96599  -0.92640  -0.92490  -0.87905  -0.86876
 Alpha  occ. eigenvalues --   -0.86063  -0.84967  -0.84395  -0.83064  -0.80941
 Alpha  occ. eigenvalues --   -0.79556  -0.76560  -0.75268  -0.74110  -0.73759
 Alpha  occ. eigenvalues --   -0.72979  -0.72711  -0.70661  -0.70194  -0.69219
 Alpha  occ. eigenvalues --   -0.68619  -0.68224  -0.68127  -0.67369  -0.66489
 Alpha  occ. eigenvalues --   -0.66004  -0.65823  -0.64664  -0.63142  -0.62991
 Alpha  occ. eigenvalues --   -0.62242  -0.61196  -0.60827  -0.59942  -0.59547
 Alpha  occ. eigenvalues --   -0.58320  -0.57631  -0.56982  -0.56826  -0.56670
 Alpha  occ. eigenvalues --   -0.55924  -0.55750  -0.55713  -0.55034  -0.54924
 Alpha  occ. eigenvalues --   -0.54365  -0.54012  -0.53617  -0.53440  -0.53352
 Alpha  occ. eigenvalues --   -0.52950  -0.52384  -0.51971  -0.51930  -0.51750
 Alpha  occ. eigenvalues --   -0.51538  -0.51499  -0.51277  -0.50491  -0.50089
 Alpha  occ. eigenvalues --   -0.49699  -0.49619  -0.49475  -0.48850  -0.48297
 Alpha  occ. eigenvalues --   -0.47755  -0.46957  -0.46683  -0.46121  -0.45804
 Alpha  occ. eigenvalues --   -0.45711  -0.45343  -0.44620  -0.44545  -0.44405
 Alpha  occ. eigenvalues --   -0.44308  -0.44123  -0.42642  -0.42324  -0.42222
 Alpha  occ. eigenvalues --   -0.41476  -0.41420  -0.40948  -0.40832  -0.39832
 Alpha  occ. eigenvalues --   -0.38051  -0.37339  -0.36422  -0.35969  -0.35724
 Alpha  occ. eigenvalues --   -0.35628  -0.35059  -0.34938  -0.34860  -0.34644
 Alpha  occ. eigenvalues --   -0.34589  -0.33878  -0.33646  -0.33501  -0.31258
 Alpha  occ. eigenvalues --   -0.30681  -0.30354
 Alpha virt. eigenvalues --   -0.12404  -0.11071  -0.10941  -0.10057  -0.07458
 Alpha virt. eigenvalues --   -0.06673  -0.05990  -0.05351  -0.05124  -0.04056
 Alpha virt. eigenvalues --   -0.03563  -0.02874  -0.01669  -0.01539  -0.00906

 Mulliken charges:
               1
     1  N   -0.761643
     2  H    0.416271
     3  H    0.436363
     4  H    0.411880
     5  C   -0.106627
     6  H    0.218839
     7  C    0.654165
     8  C   -0.382709
     9  H    0.181254
    10  H    0.187040
    11  O   -0.547074
    12  C    0.143512
    13  C   -0.178184
    14  H    0.141394
    15  C   -0.187621
    16  H    0.129455
    17  C   -0.112386
    18  H    0.155570
    19  C   -0.119215
    20  H    0.158786
    21  C   -0.113274
    22  H    0.158761
    23  N   -0.611263
    24  H    0.387587
    25  C   -0.075128
    26  H    0.197616
    27  C    0.610028
    28  C   -0.036700
    29  H    0.155833
    30  H    0.169426
    31  O   -0.533702
    32  O   -0.641815
    33  H    0.449808
    34  N   -0.590184
    35  H    0.359377
    36  C   -0.098074
    37  H    0.197024
    38  C    0.661932
    39  C   -0.045168
    40  H    0.157812
    41  H    0.121716
    42  O   -0.538403
    43  O   -0.673509
    44  H    0.457683
    45  N   -0.622832
    46  H    0.337695
    47  C   -0.060479
    48  H    0.238651
    49  C    0.628236
    50  C   -0.384282
    51  H    0.172401
    52  H    0.239373
    53  O   -0.517773
    54  C    0.587445
    55  O   -0.456128
    56  O   -0.564293
    57  N   -0.636287
    58  H    0.370147
    59  C   -0.037932
    60  H    0.206867
    61  C    0.598841
    62  C   -0.299550
    63  H    0.149679
    64  H    0.164409
    65  O   -0.459557
    66  C   -0.271534
    67  H    0.162778
    68  H    0.162310
    69  C   -0.163897
    70  H    0.172941
    71  H    0.160320
    72  N   -0.572779
    73  H    0.323954
    74  N   -0.729646
    75  H    0.342552
    76  H    0.342219
    77  N   -0.716727
    78  H    0.288707
    79  C    0.608192
    80  O   -0.561906
    81  H    0.414415
    82  H    0.417020
 Sum of Mulliken charges =   1.00000

 Dipole moment (field-independent basis, Debye):
    X=            -17.2791    Y=             -5.3512    Z=             -8.4733  Tot=             19.9750
 Quadrupole moment (field-independent basis, Debye-Ang):
   XX=           -177.1348   YY=           -201.7188   ZZ=            -83.7813
   XY=             23.8271   XZ=            100.7015   YZ=             47.7591

 Normal termination of Gaussian 16 at Thu May 26 21:15:42 2022.
