 Gaussian 16, Revision C.01,
 Gaussian 16:  ES64L-G16RevC.01  3-Jul-2019

 ----------------------------------------------------------------------
 # B3LYP/6-31G** empiricaldispersion=gd3bj guess=read geom=check nosymm
  integral(ultrafinegrid)
 ----------------------------------------------------------------------

 ------------------------------------------------------
 Candidate Structure: Conf:651 Charge calc in gas phase
 ------------------------------------------------------
 Structure from the checkpoint file:  "conf-651.chk"
 Charge =  1 Multiplicity = 1

                          Input orientation:
 ---------------------------------------------------------------------
 Center     Atomic      Atomic             Coordinates (Angstroms)
 Number     Number       Type             X           Y           Z
 ---------------------------------------------------------------------
      1          7           0       -1.633656   -5.449112    0.326224
      2          1           0       -2.007481   -4.489326    0.415364
      3          1           0       -2.407615   -6.127195    0.464095
      4          1           0       -0.932574   -5.586128    1.056298
      5          6           0       -1.090862   -5.764893   -1.053948
      6          1           0       -0.070269   -5.382391   -1.112018
      7          6           0       -2.042390   -5.040802   -2.022739
      8          6           0       -1.184006   -7.299542   -1.207127
      9          1           0       -1.048377   -7.525265   -2.271263
     10          8           0       -3.045730   -5.614728   -2.448191
     11          6           0       -0.152817   -8.052023   -0.381259
     12          1           0        0.863223   -7.776610   -0.676964
     13          1           0       -0.281670   -9.125052   -0.532488
     14          1           0       -0.271706   -7.861331    0.691201
     15          8           0       -2.483274   -7.686804   -0.769270
     16          1           0       -3.098585   -7.320513   -1.433657
     17          7           0       -1.760057   -3.739543   -2.195127
     18          1           0       -0.802915   -3.394320   -2.145973
     19          6           0       -2.680086   -2.812454   -2.833641
     20          1           0       -3.320889   -3.383401   -3.510672
     21          6           0       -1.794621   -1.842634   -3.638496
     22          6           0       -3.543483   -2.062279   -1.772168
     23          1           0       -3.007783   -1.171830   -1.439691
     24          1           0       -4.451762   -1.694767   -2.260403
     25          8           0       -0.565908   -1.974377   -3.604106
     26          6           0       -3.905774   -2.910755   -0.573346
     27          6           0       -4.785463   -3.997384   -0.668446
     28          1           0       -5.231160   -4.244468   -1.625776
     29          6           0       -3.340365   -2.620756    0.678402
     30          1           0       -2.678205   -1.767827    0.776840
     31          6           0       -5.077913   -4.780921    0.449444
     32          1           0       -5.764764   -5.615833    0.354083
     33          6           0       -3.637484   -3.396356    1.804802
     34          1           0       -3.202415   -3.137768    2.765351
     35          6           0       -4.504817   -4.486351    1.690198
     36          1           0       -4.749710   -5.085482    2.561440
     37          7           0       -2.424943   -0.897648   -4.356789
     38          1           0       -3.380032   -0.665076   -4.116829
     39          6           0       -1.688066    0.102854   -5.144937
     40          1           0       -0.789136   -0.405121   -5.504545
     41          6           0       -1.261715    1.279808   -4.239112
     42          6           0       -2.544159    0.583113   -6.306694
     43          1           0       -1.984006    1.298559   -6.910808
     44          1           0       -3.433513    1.102155   -5.939707
     45          1           0       -2.843104   -0.259441   -6.934423
     46          8           0       -1.742097    2.403984   -4.365242
     47          7           0       -0.355872    0.954863   -3.292281
     48          1           0        0.011598    0.009005   -3.221693
     49          6           0        0.069466    1.896226   -2.277926
     50          1           0        0.161426    2.884291   -2.742062
     51          6           0        1.421823    1.413853   -1.757491
     52          6           0       -0.895512    1.988163   -1.065305
     53          1           0       -0.338044    2.397815   -0.217111
     54          1           0       -1.182418    0.970729   -0.782648
     55          8           0        1.695777    0.215916   -1.712706
     56          6           0       -2.141681    2.846593   -1.295621
     57          1           0       -2.565634    3.142305   -0.326749
     58          1           0       -1.900635    3.775317   -1.818834
     59          6           0       -3.267858    2.177311   -2.047481
     60          8           0       -3.428703    0.975935   -2.188367
     61          8           0       -4.152240    3.077692   -2.499496
     62          7           0        2.262302    2.379127   -1.300403
     63          1           0        1.886367    3.311710   -1.197075
     64          6           0        3.338244    2.009560   -0.389207
     65          1           0        3.990269    1.303024   -0.910585
     66          6           0        2.714906    1.320368    0.840371
     67          6           0        4.120535    3.252463    0.032984
     68          1           0        4.949375    2.974581    0.688321
     69          1           0        3.470036    3.938732    0.584495
     70          1           0        4.527275    3.767832   -0.840883
     71          8           0        1.647306    1.717119    1.307755
     72          7           0        3.417279    0.283535    1.339725
     73          1           0        4.336014    0.044366    0.986076
     74          6           0        2.973480   -0.506487    2.467456
     75          1           0        2.340639    0.122872    3.098752
     76          6           0        4.218200   -0.965545    3.234069
     77          6           0        2.202541   -1.772987    2.018547
     78          1           0        2.903973   -2.383399    1.435289
     79          1           0        1.944539   -2.361797    2.908726
     80          8           0        5.330621   -0.956386    2.706676
     81          6           0        0.941068   -1.517251    1.181782
     82          1           0        1.215633   -0.900827    0.320172
     83          6           0        0.421126   -2.852865    0.634142
     84          1           0        0.153069   -3.521713    1.465498
     85          1           0        1.180029   -3.353717    0.021699
     86          1           0       -0.469928   -2.690622    0.019188
     87          6           0       -0.152369   -0.793580    1.973465
     88          1           0       -0.494127   -1.396483    2.824836
     89          1           0       -1.016948   -0.586632    1.333217
     90          1           0        0.201577    0.172062    2.336237
     91          7           0        3.970944   -1.432005    4.479455
     92          1           0        3.006430   -1.575517    4.761235
     93          6           0        4.888462   -2.330802    5.157866
     94          1           0        5.626817   -2.669436    4.427120
     95          6           0        4.091808   -3.559524    5.608227
     96          6           0        5.612017   -1.654185    6.338030
     97          1           0        6.016076   -2.419041    7.006770
     98          1           0        4.872432   -1.086830    6.912466
     99          8           0        4.824491   -4.565147    6.053395
    100          6           0        6.744043   -0.738506    5.869152
    101          1           0        7.107867   -0.144710    6.716634
    102          1           0        6.370035   -0.031404    5.120803
    103          6           0        7.918648   -1.505294    5.250156
    104          1           0        8.657587   -0.790853    4.871064
    105          1           0        7.590591   -2.102301    4.398061
    106          7           0        8.599639   -2.401761    6.176661
    107          1           0        9.180313   -1.985313    6.888750
    108          7           0        7.460162   -4.374793    5.657484
    109          1           0        7.643960   -5.376170    5.626379
    110          1           0        5.816238   -4.385418    5.918070
    111          7           0        9.448650   -4.379613    6.962578
    112          1           0       10.389802   -4.023540    6.871472
    113          1           0        9.387750   -5.383101    7.044056
    114          6           0        8.456253   -3.756134    6.226943
    115          8           0        2.873570   -3.587316    5.562296
    116          1           0       -4.853608    2.588197   -2.960035
 ---------------------------------------------------------------------

 SCF Done:  E(RB3LYP) =  -2782.68436351     A.U. after    3 cycles

 Alpha  occ. eigenvalues --  -19.26944 -19.26551 -19.25318 -19.22278 -19.22040
 Alpha  occ. eigenvalues --  -19.21400 -19.19629 -19.18867 -19.18352 -19.18216
 Alpha  occ. eigenvalues --  -19.18201 -14.58168 -14.48332 -14.45781 -14.43569
 Alpha  occ. eigenvalues --  -14.42792 -14.42538 -14.42525 -14.42265 -14.42092
 Alpha  occ. eigenvalues --  -14.36801 -10.42318 -10.39549 -10.39119 -10.38743
 Alpha  occ. eigenvalues --  -10.37146 -10.36777 -10.36392 -10.36283 -10.35647
 Alpha  occ. eigenvalues --  -10.35433 -10.35323 -10.34424 -10.31128 -10.30687
 Alpha  occ. eigenvalues --  -10.30618 -10.30562 -10.30299 -10.29895 -10.29703
 Alpha  occ. eigenvalues --  -10.29624 -10.29603 -10.29534 -10.29390 -10.29361
 Alpha  occ. eigenvalues --  -10.28984 -10.28256 -10.27473 -10.27011 -10.26418
 Alpha  occ. eigenvalues --  -10.26336 -10.26132 -10.25871 -10.25086 -10.24817
 Alpha  occ. eigenvalues --  -10.24515 -10.24251  -1.17902  -1.17844  -1.14902
 Alpha  occ. eigenvalues --   -1.14113  -1.13802  -1.12074  -1.11867  -1.10820
 Alpha  occ. eigenvalues --   -1.10169  -1.09813  -1.08588  -1.05883  -1.05555
 Alpha  occ. eigenvalues --   -1.05125  -1.02217  -1.00205  -0.99536  -0.99278
 Alpha  occ. eigenvalues --   -0.99078  -0.96488  -0.96350  -0.91969  -0.91524
 Alpha  occ. eigenvalues --   -0.89548  -0.89114  -0.87672  -0.86254  -0.86048
 Alpha  occ. eigenvalues --   -0.85135  -0.85010  -0.84799  -0.82588  -0.82370
 Alpha  occ. eigenvalues --   -0.80318  -0.79498  -0.76948  -0.76793  -0.74442
 Alpha  occ. eigenvalues --   -0.73964  -0.73751  -0.73187  -0.72412  -0.71955
 Alpha  occ. eigenvalues --   -0.71315  -0.71012  -0.70568  -0.70117  -0.68868
 Alpha  occ. eigenvalues --   -0.68372  -0.67887  -0.67044  -0.66029  -0.65837
 Alpha  occ. eigenvalues --   -0.65511  -0.65265  -0.64974  -0.64714  -0.64310
 Alpha  occ. eigenvalues --   -0.64039  -0.63884  -0.61988  -0.61454  -0.61391
 Alpha  occ. eigenvalues --   -0.61215  -0.60720  -0.59599  -0.59377  -0.58883
 Alpha  occ. eigenvalues --   -0.58115  -0.57521  -0.57178  -0.56717  -0.56220
 Alpha  occ. eigenvalues --   -0.56039  -0.55978  -0.55753  -0.55571  -0.55416
 Alpha  occ. eigenvalues --   -0.55128  -0.54792  -0.54636  -0.53897  -0.53570
 Alpha  occ. eigenvalues --   -0.53433  -0.53216  -0.53023  -0.52628  -0.52363
 Alpha  occ. eigenvalues --   -0.52217  -0.51819  -0.51210  -0.50711  -0.50673
 Alpha  occ. eigenvalues --   -0.50399  -0.50299  -0.50179  -0.50153  -0.50050
 Alpha  occ. eigenvalues --   -0.49462  -0.49182  -0.48874  -0.48708  -0.48637
 Alpha  occ. eigenvalues --   -0.48508  -0.48301  -0.48016  -0.47466  -0.47194
 Alpha  occ. eigenvalues --   -0.46743  -0.46590  -0.46444  -0.46341  -0.46120
 Alpha  occ. eigenvalues --   -0.46085  -0.45890  -0.45626  -0.45283  -0.45207
 Alpha  occ. eigenvalues --   -0.44912  -0.44739  -0.44552  -0.44364  -0.43931
 Alpha  occ. eigenvalues --   -0.43925  -0.43680  -0.43358  -0.43262  -0.43053
 Alpha  occ. eigenvalues --   -0.42858  -0.42574  -0.41471  -0.41295  -0.40861
 Alpha  occ. eigenvalues --   -0.40764  -0.40368  -0.40124  -0.39788  -0.39640
 Alpha  occ. eigenvalues --   -0.39014  -0.38905  -0.38420  -0.37002  -0.36129
 Alpha  occ. eigenvalues --   -0.35813  -0.35615  -0.35393  -0.35090  -0.35071
 Alpha  occ. eigenvalues --   -0.34500  -0.33522  -0.33337  -0.33128  -0.32765
 Alpha  occ. eigenvalues --   -0.31882  -0.31803  -0.31611  -0.31523  -0.31426
 Alpha  occ. eigenvalues --   -0.30279
 Alpha virt. eigenvalues --   -0.13248  -0.11533  -0.11406  -0.08155  -0.07581
 Alpha virt. eigenvalues --   -0.06555  -0.05903  -0.04793  -0.04260  -0.03763
 Alpha virt. eigenvalues --   -0.03529  -0.03467  -0.02991  -0.02835  -0.02259

 Mulliken charges:
               1
     1  N   -0.540295
     2  H    0.352552
     3  H    0.347507
     4  H    0.346340
     5  C   -0.089162
     6  H    0.165400
     7  C    0.603694
     8  C    0.147308
     9  H    0.146239
    10  O   -0.520185
    11  C   -0.328030
    12  H    0.131099
    13  H    0.165507
    14  H    0.102666
    15  O   -0.549179
    16  H    0.346296
    17  N   -0.516452
    18  H    0.303700
    19  C   -0.025783
    20  H    0.167457
    21  C    0.618173
    22  C   -0.254685
    23  H    0.157871
    24  H    0.135339
    25  O   -0.547550
    26  C    0.110775
    27  C   -0.102215
    28  H    0.117175
    29  C   -0.171623
    30  H    0.111167
    31  C   -0.105678
    32  H    0.120777
    33  C   -0.126534
    34  H    0.120880
    35  C   -0.113078
    36  H    0.119509
    37  N   -0.503141
    38  H    0.283214
    39  C   -0.047567
    40  H    0.152353
    41  C    0.630132
    42  C   -0.311774
    43  H    0.142508
    44  H    0.120657
    45  H    0.113633
    46  O   -0.542054
    47  N   -0.542605
    48  H    0.304122
    49  C   -0.003901
    50  H    0.132502
    51  C    0.604390
    52  C   -0.182451
    53  H    0.139176
    54  H    0.116100
    55  O   -0.537055
    56  C   -0.264102
    57  H    0.146980
    58  H    0.156852
    59  C    0.617799
    60  O   -0.520222
    61  O   -0.460976
    62  N   -0.504720
    63  H    0.271643
    64  C   -0.011577
    65  H    0.132549
    66  C    0.626601
    67  C   -0.342943
    68  H    0.133044
    69  H    0.129955
    70  H    0.134158
    71  O   -0.550617
    72  N   -0.515423
    73  H    0.281071
    74  C   -0.034921
    75  H    0.141964
    76  C    0.593103
    77  C   -0.160354
    78  H    0.099715
    79  H    0.108982
    80  O   -0.545364
    81  C   -0.077556
    82  H    0.152356
    83  C   -0.344980
    84  H    0.069391
    85  H    0.108460
    86  H    0.084711
    87  C   -0.332475
    88  H    0.084508
    89  H    0.094063
    90  H    0.152895
    91  N   -0.509320
    92  H    0.278257
    93  C   -0.059488
    94  H    0.155929
    95  C    0.599023
    96  C   -0.165929
    97  H    0.114702
    98  H    0.110092
    99  O   -0.520882
   100  C   -0.183904
   101  H    0.094358
   102  H    0.122916
   103  C   -0.056877
   104  H    0.113934
   105  H    0.152909
   106  N   -0.522892
   107  H    0.267280
   108  N   -0.685651
   109  H    0.233861
   110  H    0.385868
   111  N   -0.627916
   112  H    0.275515
   113  H    0.276105
   114  C    0.661646
   115  O   -0.502446
   116  H    0.323117
 Sum of Mulliken charges =   1.00000

 Dipole moment (field-independent basis, Debye):
    X=              4.6611    Y=            -16.0171    Z=              3.0714  Tot=             16.9620
 Quadrupole moment (field-independent basis, Debye-Ang):
   XX=           -165.2047   YY=           -220.2068   ZZ=           -277.7770
   XY=             -5.9649   XZ=             92.9536   YZ=            -10.4479

 Normal termination of Gaussian 16 at Thu Sep  8 18:23:07 2022.
