 Gaussian 16, Revision C.01,
 Gaussian 16:  ES64L-G16RevC.01  3-Jul-2019

 ----------------------------------------------------------------------
 # B3LYP/6-31G** empiricaldispersion=gd3bj guess=read geom=check nosymm
  integral(ultrafinegrid)
 ----------------------------------------------------------------------

 -----------------------------------------------------
 Candidate Structure: Conf:35 Charge calc in gas phase
 -----------------------------------------------------
 Structure from the checkpoint file:  "conf-35.chk"
 Charge =  1 Multiplicity = 1

                          Input orientation:
 ---------------------------------------------------------------------
 Center     Atomic      Atomic             Coordinates (Angstroms)
 Number     Number       Type             X           Y           Z
 ---------------------------------------------------------------------
      1          7           0       -5.494858   -4.818760   -4.046041
      2          1           0       -6.386967   -4.762447   -3.532173
      3          1           0       -5.666264   -4.439138   -4.997147
      4          1           0       -5.109735   -5.772516   -4.062457
      5          6           0       -4.465104   -3.903068   -3.451138
      6          1           0       -4.548419   -3.938727   -2.364461
      7          6           0       -4.829246   -2.532572   -4.026703
      8          6           0       -3.082119   -4.399856   -3.923968
      9          1           0       -3.026586   -4.253297   -5.009025
     10          8           0       -5.314874   -2.502452   -5.161401
     11          6           0       -1.950813   -3.649023   -3.239638
     12          1           0       -1.995337   -2.582473   -3.477153
     13          1           0       -0.988848   -4.036933   -3.581037
     14          1           0       -2.014945   -3.752898   -2.151090
     15          8           0       -3.040813   -5.814475   -3.727562
     16          1           0       -2.643888   -6.000373   -2.864862
     17          7           0       -4.611138   -1.482387   -3.229999
     18          1           0       -4.301663   -1.670337   -2.276506
     19          6           0       -5.242220   -0.203777   -3.518286
     20          1           0       -5.478640   -0.218526   -4.586106
     21          6           0       -4.203176    0.910835   -3.298351
     22          6           0       -6.565727   -0.095014   -2.707318
     23          1           0       -6.332116    0.110726   -1.656725
     24          1           0       -7.150545    0.748020   -3.090685
     25          8           0       -3.019927    0.700305   -3.558781
     26          6           0       -7.369356   -1.374059   -2.807623
     27          6           0       -8.160204   -1.639192   -3.932576
     28          1           0       -8.260907   -0.884254   -4.706588
     29          6           0       -7.243203   -2.365061   -1.826701
     30          1           0       -6.625636   -2.180495   -0.953573
     31          6           0       -8.802726   -2.866773   -4.082138
     32          1           0       -9.415875   -3.050800   -4.958174
     33          6           0       -7.886383   -3.598625   -1.968525
     34          1           0       -7.805769   -4.342712   -1.180931
     35          6           0       -8.667432   -3.854986   -3.101424
     36          1           0       -9.194816   -4.799095   -3.201464
     37          7           0       -4.667758    2.096661   -2.834999
     38          1           0       -5.615802    2.156244   -2.492413
     39          6           0       -3.758530    3.172028   -2.394724
     40          1           0       -2.958783    3.236712   -3.136121
     41          6           0       -3.204091    2.692596   -1.036955
     42          6           0       -4.510083    4.486921   -2.273811
     43          1           0       -3.815867    5.287815   -2.010048
     44          1           0       -5.255597    4.423467   -1.476748
     45          1           0       -4.995039    4.743284   -3.218703
     46          8           0       -3.807849    2.880672    0.009428
     47          7           0       -2.063213    1.940082   -1.138864
     48          1           0       -1.845004    1.640218   -2.085460
     49          6           0       -1.778125    0.948947   -0.103878
     50          1           0       -2.050685    1.410915    0.851158
     51          6           0       -0.279638    0.611958   -0.064637
     52          6           0       -2.650512   -0.294448   -0.341129
     53          1           0       -2.317479   -0.780245   -1.262850
     54          1           0       -3.672445    0.063217   -0.508972
     55          8           0        0.118755   -0.511275    0.256215
     56          6           0       -2.658397   -1.302288    0.801236
     57          1           0       -1.640593   -1.670708    0.972476
     58          1           0       -2.982550   -0.851816    1.746271
     59          6           0       -3.548310   -2.472772    0.513785
     60          8           0       -4.092130   -2.713198   -0.563759
     61          8           0       -3.699345   -3.282093    1.566393
     62          7           0        0.535943    1.632476   -0.378783
     63          1           0        0.171738    2.548424   -0.625342
     64          6           0        1.981328    1.549031   -0.297388
     65          1           0        2.257373    1.079851    0.653882
     66          6           0        2.488611    2.998955   -0.332872
     67          6           0        2.580616    0.730350   -1.452709
     68          1           0        3.670587    0.682960   -1.375220
     69          1           0        2.320449    1.188606   -2.411165
     70          1           0        2.180848   -0.284542   -1.417804
     71          8           0        1.752900    3.914003   -0.707069
     72          7           0        3.768927    3.160301    0.053499
     73          1           0        4.367083    2.352284    0.194475
     74          6           0        4.510144    4.397731   -0.120663
     75          1           0        3.994094    5.001442   -0.872202
     76          6           0        5.903141    4.000333   -0.625472
     77          6           0        4.646387    5.190691    1.196906
     78          1           0        5.158553    4.542974    1.919361
     79          1           0        5.308912    6.048450    1.023520
     80          8           0        6.314474    2.840893   -0.505064
     81          6           0        3.323050    5.691861    1.796149
     82          1           0        2.653845    4.828499    1.906105
     83          6           0        3.582186    6.276101    3.190388
     84          1           0        4.252564    7.141528    3.132399
     85          1           0        4.044816    5.539555    3.855860
     86          1           0        2.648939    6.610645    3.653881
     87          6           0        2.633241    6.718111    0.889733
     88          1           0        3.295003    7.570495    0.693054
     89          1           0        1.729852    7.106648    1.370589
     90          1           0        2.331021    6.274261   -0.061341
     91          7           0        6.630452    5.000539   -1.159700
     92          1           0        6.308604    5.962744   -1.109357
     93          6           0        8.060842    4.883164   -1.383773
     94          1           0        8.432319    4.093295   -0.731612
     95          6           0        8.702263    6.219527   -0.973156
     96          6           0        8.397331    4.552086   -2.853558
     97          1           0        9.440851    4.815924   -3.048137
     98          1           0        7.793917    5.211437   -3.486031
     99          8           0       10.006467    6.204454   -0.757657
    100          6           0        8.142700    3.089637   -3.244058
    101          1           0        8.294648    2.987024   -4.326280
    102          1           0        7.099701    2.826156   -3.040724
    103          6           0        9.031989    2.068252   -2.515276
    104          1           0        8.804251    1.060071   -2.871865
    105          1           0        8.800557    2.065823   -1.448437
    106          7           0       10.466641    2.287694   -2.703779
    107          1           0       10.840981    2.025427   -3.605156
    108          7           0       10.913467    3.689616   -0.829237
    109          1           0       10.397976    5.263087   -0.736883
    110          1           0       10.308854    3.039382   -0.332832
    111          7           0       12.171143    3.859654   -2.753460
    112          1           0       12.036775    4.035215   -3.738644
    113          1           0       12.675914    4.575095   -2.249694
    114          6           0       11.145753    3.283041   -2.044210
    115          8           0        8.024987    7.228584   -0.898119
    116          1           0       -4.281829   -4.014765    1.304071
 ---------------------------------------------------------------------

 SCF Done:  E(RB3LYP) =  -2782.68022905     A.U. after    3 cycles

 Alpha  occ. eigenvalues --  -19.31080 -19.28916 -19.26512 -19.25047 -19.22204
 Alpha  occ. eigenvalues --  -19.20570 -19.20115 -19.18572 -19.18209 -19.17991
 Alpha  occ. eigenvalues --  -19.16672 -14.57943 -14.48266 -14.46883 -14.43761
 Alpha  occ. eigenvalues --  -14.42325 -14.41868 -14.41720 -14.41437 -14.41133
 Alpha  occ. eigenvalues --  -14.35282 -10.43982 -10.41954 -10.39605 -10.38031
 Alpha  occ. eigenvalues --  -10.38007 -10.36841 -10.35852 -10.35406 -10.35129
 Alpha  occ. eigenvalues --  -10.35097 -10.35020 -10.34714 -10.32393 -10.31345
 Alpha  occ. eigenvalues --  -10.31267 -10.31117 -10.30675 -10.30468 -10.30208
 Alpha  occ. eigenvalues --  -10.30077 -10.29968 -10.29966 -10.29876 -10.28984
 Alpha  occ. eigenvalues --  -10.28856 -10.28364 -10.28312 -10.28109 -10.26189
 Alpha  occ. eigenvalues --  -10.24686 -10.24599 -10.24407 -10.23625 -10.23072
 Alpha  occ. eigenvalues --  -10.21157 -10.20656  -1.22456  -1.17958  -1.16220
 Alpha  occ. eigenvalues --   -1.14352  -1.13147  -1.12289  -1.12022  -1.11922
 Alpha  occ. eigenvalues --   -1.10706  -1.10024  -1.09354  -1.05561  -1.04759
 Alpha  occ. eigenvalues --   -1.04208  -1.02971  -1.01178  -0.98908  -0.98698
 Alpha  occ. eigenvalues --   -0.98243  -0.96994  -0.95392  -0.92316  -0.90786
 Alpha  occ. eigenvalues --   -0.90210  -0.89579  -0.86884  -0.86499  -0.85652
 Alpha  occ. eigenvalues --   -0.85123  -0.84940  -0.84021  -0.82763  -0.81775
 Alpha  occ. eigenvalues --   -0.80468  -0.78204  -0.78007  -0.76060  -0.75775
 Alpha  occ. eigenvalues --   -0.73438  -0.73281  -0.72568  -0.72112  -0.72050
 Alpha  occ. eigenvalues --   -0.71853  -0.70949  -0.70267  -0.70163  -0.69741
 Alpha  occ. eigenvalues --   -0.69388  -0.68413  -0.66779  -0.66369  -0.65897
 Alpha  occ. eigenvalues --   -0.65047  -0.64458  -0.63894  -0.63764  -0.63611
 Alpha  occ. eigenvalues --   -0.63173  -0.62739  -0.62402  -0.62084  -0.61798
 Alpha  occ. eigenvalues --   -0.61301  -0.60784  -0.59765  -0.59516  -0.59272
 Alpha  occ. eigenvalues --   -0.59130  -0.58604  -0.57976  -0.57719  -0.57398
 Alpha  occ. eigenvalues --   -0.56911  -0.56844  -0.56467  -0.55698  -0.55460
 Alpha  occ. eigenvalues --   -0.55007  -0.54673  -0.54328  -0.53942  -0.53441
 Alpha  occ. eigenvalues --   -0.53289  -0.53062  -0.52874  -0.52574  -0.52186
 Alpha  occ. eigenvalues --   -0.51632  -0.51363  -0.51291  -0.50914  -0.50699
 Alpha  occ. eigenvalues --   -0.50611  -0.50447  -0.50282  -0.49730  -0.49561
 Alpha  occ. eigenvalues --   -0.49343  -0.49265  -0.48997  -0.48922  -0.48635
 Alpha  occ. eigenvalues --   -0.48450  -0.47870  -0.47697  -0.47412  -0.47247
 Alpha  occ. eigenvalues --   -0.46796  -0.46366  -0.46320  -0.46105  -0.45968
 Alpha  occ. eigenvalues --   -0.45797  -0.45593  -0.45457  -0.45199  -0.45104
 Alpha  occ. eigenvalues --   -0.44983  -0.44845  -0.44431  -0.44159  -0.43947
 Alpha  occ. eigenvalues --   -0.43551  -0.43320  -0.43210  -0.42851  -0.42608
 Alpha  occ. eigenvalues --   -0.42218  -0.41912  -0.41591  -0.41429  -0.41120
 Alpha  occ. eigenvalues --   -0.40249  -0.40229  -0.39644  -0.39323  -0.39154
 Alpha  occ. eigenvalues --   -0.38500  -0.37382  -0.37241  -0.36793  -0.36646
 Alpha  occ. eigenvalues --   -0.36469  -0.36047  -0.35546  -0.34630  -0.34043
 Alpha  occ. eigenvalues --   -0.33899  -0.33220  -0.32739  -0.32586  -0.32247
 Alpha  occ. eigenvalues --   -0.32028  -0.31675  -0.31439  -0.30794  -0.30155
 Alpha  occ. eigenvalues --   -0.29206
 Alpha virt. eigenvalues --   -0.12442  -0.11947  -0.11312  -0.10703  -0.09203
 Alpha virt. eigenvalues --   -0.06983  -0.06562  -0.05081  -0.04115  -0.03829
 Alpha virt. eigenvalues --   -0.03548  -0.03472  -0.02709  -0.02338  -0.01766

 Mulliken charges:
               1
     1  N   -0.536378
     2  H    0.335941
     3  H    0.351791
     4  H    0.345599
     5  C   -0.106176
     6  H    0.168252
     7  C    0.637603
     8  C    0.165556
     9  H    0.144993
    10  O   -0.543135
    11  C   -0.365673
    12  H    0.162770
    13  H    0.154472
    14  H    0.120929
    15  O   -0.548896
    16  H    0.329072
    17  N   -0.510578
    18  H    0.320061
    19  C   -0.033031
    20  H    0.186545
    21  C    0.622290
    22  C   -0.283306
    23  H    0.129671
    24  H    0.134944
    25  O   -0.535271
    26  C    0.100733
    27  C   -0.086636
    28  H    0.110256
    29  C   -0.116720
    30  H    0.103963
    31  C   -0.083353
    32  H    0.120912
    33  C   -0.142001
    34  H    0.106726
    35  C   -0.131506
    36  H    0.116319
    37  N   -0.528417
    38  H    0.279995
    39  C   -0.026096
    40  H    0.144002
    41  C    0.602314
    42  C   -0.335947
    43  H    0.144848
    44  H    0.139005
    45  H    0.121878
    46  O   -0.511527
    47  N   -0.543774
    48  H    0.290802
    49  C   -0.032474
    50  H    0.168245
    51  C    0.597068
    52  C   -0.177093
    53  H    0.120144
    54  H    0.095967
    55  O   -0.552257
    56  C   -0.275042
    57  H    0.207086
    58  H    0.157696
    59  C    0.587537
    60  O   -0.522370
    61  O   -0.448751
    62  N   -0.526120
    63  H    0.295507
    64  C    0.004457
    65  H    0.138614
    66  C    0.595574
    67  C   -0.316839
    68  H    0.119412
    69  H    0.116620
    70  H    0.138826
    71  O   -0.540634
    72  N   -0.516506
    73  H    0.282880
    74  C   -0.040037
    75  H    0.141468
    76  C    0.602543
    77  C   -0.153728
    78  H    0.099834
    79  H    0.109269
    80  O   -0.561694
    81  C   -0.054712
    82  H    0.091899
    83  C   -0.312562
    84  H    0.108626
    85  H    0.098837
    86  H    0.103322
    87  C   -0.325930
    88  H    0.097618
    89  H    0.100893
    90  H    0.127087
    91  N   -0.518341
    92  H    0.286838
    93  C   -0.027420
    94  H    0.120550
    95  C    0.593375
    96  C   -0.170223
    97  H    0.099858
    98  H    0.115782
    99  O   -0.517271
   100  C   -0.176079
   101  H    0.089848
   102  H    0.123472
   103  C   -0.080810
   104  H    0.117645
   105  H    0.139132
   106  N   -0.510655
   107  H    0.259620
   108  N   -0.676911
   109  H    0.380308
   110  H    0.239299
   111  N   -0.602916
   112  H    0.267972
   113  H    0.294697
   114  C    0.635884
   115  O   -0.484336
   116  H    0.326578
 Sum of Mulliken charges =   1.00000

 Dipole moment (field-independent basis, Debye):
    X=            -16.8153    Y=            -15.4422    Z=            -16.5201  Tot=             28.1803
 Quadrupole moment (field-independent basis, Debye-Ang):
   XX=           -116.8771   YY=           -275.6872   ZZ=           -273.5903
   XY=             74.2651   XZ=             16.9768   YZ=             21.1172

 Normal termination of Gaussian 16 at Thu Sep  8 18:22:34 2022.
