 Gaussian 16, Revision C.01,
 Gaussian 16:  ES64L-G16RevC.01  3-Jul-2019

 ----------------------------------------------------------------------
 # B3LYP/6-31G** empiricaldispersion=gd3bj guess=read geom=check nosymm
  integral(ultrafinegrid)
 ----------------------------------------------------------------------

 ------------------------------------------------------
 Candidate Structure: Conf:197 Charge calc in gas phase
 ------------------------------------------------------
 Structure from the checkpoint file:  "conf-197.chk"
 Charge =  1 Multiplicity = 1

                          Input orientation:
 ---------------------------------------------------------------------
 Center     Atomic      Atomic             Coordinates (Angstroms)
 Number     Number       Type             X           Y           Z
 ---------------------------------------------------------------------
      1          7           0       -7.150990   -5.132888   -7.234335
      2          1           0       -7.883319   -5.474571   -6.610232
      3          1           0       -7.410409   -4.168865   -7.563020
      4          1           0       -6.990451   -5.809110   -7.999540
      5          6           0       -5.835577   -4.911366   -6.547060
      6          1           0       -5.773632   -5.555108   -5.666893
      7          6           0       -5.840022   -3.407220   -6.209460
      8          6           0       -4.721782   -5.263576   -7.581939
      9          1           0       -4.681695   -4.444328   -8.309192
     10          8           0       -6.631196   -2.687587   -6.833723
     11          6           0       -3.359529   -5.460849   -6.936780
     12          1           0       -3.004991   -4.554902   -6.438262
     13          1           0       -2.631035   -5.724517   -7.706837
     14          1           0       -3.391129   -6.268251   -6.195201
     15          8           0       -5.160959   -6.402221   -8.322175
     16          1           0       -4.778091   -7.205204   -7.940160
     17          7           0       -4.951985   -3.006736   -5.310374
     18          1           0       -4.254184   -3.642911   -4.923514
     19          6           0       -4.607724   -1.611641   -5.062154
     20          1           0       -4.648989   -1.074389   -6.016314
     21          6           0       -3.142949   -1.674764   -4.581064
     22          6           0       -5.573445   -0.922451   -4.069477
     23          1           0       -5.363693    0.151911   -4.081150
     24          1           0       -6.581666   -1.038076   -4.480086
     25          8           0       -2.548265   -2.759301   -4.554992
     26          6           0       -5.493909   -1.449180   -2.655548
     27          6           0       -6.036771   -2.697917   -2.324227
     28          1           0       -6.549687   -3.277629   -3.086269
     29          6           0       -4.876085   -0.695176   -1.650079
     30          1           0       -4.457848    0.280639   -1.876098
     31          6           0       -5.947524   -3.192438   -1.024242
     32          1           0       -6.376195   -4.160002   -0.781747
     33          6           0       -4.802902   -1.181243   -0.344391
     34          1           0       -4.356062   -0.563449    0.426313
     35          6           0       -5.328321   -2.433983   -0.029815
     36          1           0       -5.272228   -2.811050    0.986295
     37          7           0       -2.586749   -0.510102   -4.229261
     38          1           0       -3.150079    0.320574   -4.072445
     39          6           0       -1.268562   -0.440251   -3.618004
     40          1           0       -1.106204   -1.366833   -3.056816
     41          6           0       -1.324697    0.735958   -2.631708
     42          6           0       -0.160405   -0.282366   -4.668301
     43          1           0        0.829473   -0.250621   -4.205151
     44          1           0       -0.302792    0.637532   -5.241599
     45          1           0       -0.188277   -1.134030   -5.351097
     46          8           0       -2.324526    1.457182   -2.559031
     47          7           0       -0.230962    0.893553   -1.864204
     48          1           0        0.620684    0.376160   -2.054789
     49          6           0       -0.053206    2.022186   -0.968827
     50          1           0       -0.690036    2.841958   -1.309573
     51          6           0        1.421860    2.416747   -1.041235
     52          6           0       -0.428548    1.664185    0.486570
     53          1           0       -0.196966    2.514771    1.133272
     54          1           0        0.190767    0.825538    0.814889
     55          8           0        2.257632    1.648120   -1.532343
     56          6           0       -1.903011    1.305616    0.639963
     57          1           0       -2.185499    0.465757    0.000353
     58          1           0       -2.109470    0.989553    1.669603
     59          6           0       -2.805313    2.478301    0.331798
     60          8           0       -2.438846    3.625924    0.191721
     61          8           0       -4.100924    2.106935    0.258595
     62          7           0        1.739790    3.605886   -0.492229
     63          1           0        1.006421    4.169947   -0.083306
     64          6           0        3.127157    4.072095   -0.362422
     65          1           0        3.651845    3.735947   -1.261767
     66          6           0        3.778331    3.387076    0.860316
     67          6           0        3.166365    5.588117   -0.252092
     68          1           0        4.200849    5.934410   -0.214393
     69          1           0        2.676262    5.922469    0.665795
     70          1           0        2.678128    6.043493   -1.116877
     71          8           0        4.012008    4.030022    1.901122
     72          7           0        4.005619    2.081835    0.707155
     73          1           0        3.796685    1.679222   -0.201277
     74          6           0        4.572201    1.219475    1.728451
     75          1           0        4.133962    1.498828    2.690797
     76          6           0        6.102865    1.381992    1.832039
     77          6           0        4.253163   -0.253507    1.415046
     78          1           0        4.719986   -0.501272    0.452244
     79          1           0        4.751559   -0.872988    2.170805
     80          8           0        6.759479    1.917072    0.930863
     81          6           0        2.757202   -0.606002    1.366955
     82          1           0        2.291240   -0.031902    0.553758
     83          6           0        2.596239   -2.095353    1.039605
     84          1           0        3.043847   -2.713892    1.824545
     85          1           0        3.088975   -2.349403    0.095306
     86          1           0        1.538808   -2.369814    0.955742
     87          6           0        2.047296   -0.257571    2.680760
     88          1           0        2.548194   -0.740395    3.526972
     89          1           0        1.007362   -0.602681    2.669714
     90          1           0        2.032397    0.821598    2.867751
     91          7           0        6.592900    0.860191    2.973056
     92          1           0        5.950539    0.229875    3.516427
     93          6           0        7.847099    0.092641    3.025474
     94          1           0        8.179290   -0.109532    2.001318
     95          6           0        7.442305   -1.277375    3.718316
     96          6           0        8.994196    0.761200    3.781837
     97          1           0        9.812732    0.038949    3.776483
     98          1           0        8.713903    0.869999    4.839347
     99          8           0        8.364678   -2.077559    3.897528
    100          6           0        9.431282    2.116606    3.186254
    101          1           0        8.972548    2.235740    2.198479
    102          1           0       10.514935    2.144655    3.025243
    103          6           0        9.096468    3.319943    4.078086
    104          1           0        9.294586    4.267897    3.570058
    105          1           0        9.713625    3.300862    4.980194
    106          7           0        7.705261    3.358423    4.552128
    107          1           0        7.479023    2.725047    5.305703
    108          7           0        6.859561    4.270338    2.579605
    109          1           0        5.991855    4.510072    2.107085
    110          1           0        7.475863    3.726508    1.981788
    111          7           0        5.435599    3.805692    4.336105
    112          1           0        5.275425    3.512285    5.286152
    113          1           0        4.660026    3.829984    3.673656
    114          6           0        6.671062    3.773448    3.817851
    115          8           0        6.204565   -1.355600    4.016818
    116          1           0       -4.614127    2.910908    0.069458
 ---------------------------------------------------------------------

 SCF Done:  E(RB3LYP) =  -2782.64916136     A.U. after    2 cycles

 Alpha  occ. eigenvalues --  -19.31040 -19.27203 -19.27170 -19.23108 -19.21756
 Alpha  occ. eigenvalues --  -19.21749 -19.21512 -19.20419 -19.15698 -19.07868
 Alpha  occ. eigenvalues --  -19.06435 -14.59882 -14.49863 -14.46226 -14.45897
 Alpha  occ. eigenvalues --  -14.45322 -14.44889 -14.44267 -14.43113 -14.42994
 Alpha  occ. eigenvalues --  -14.36559 -10.44018 -10.40892 -10.40489 -10.40277
 Alpha  occ. eigenvalues --  -10.39933 -10.39686 -10.38582 -10.38445 -10.36815
 Alpha  occ. eigenvalues --  -10.35362 -10.33100 -10.32200 -10.32059 -10.31882
 Alpha  occ. eigenvalues --  -10.31605 -10.29706 -10.28887 -10.28410 -10.28169
 Alpha  occ. eigenvalues --  -10.28091 -10.27946 -10.27354 -10.27318 -10.27037
 Alpha  occ. eigenvalues --  -10.26681 -10.26585 -10.26509 -10.25856 -10.25340
 Alpha  occ. eigenvalues --  -10.24220 -10.23069 -10.22828 -10.22718 -10.22426
 Alpha  occ. eigenvalues --  -10.22078 -10.20838  -1.20024  -1.18318  -1.18070
 Alpha  occ. eigenvalues --   -1.15127  -1.13956  -1.13715  -1.13167  -1.11550
 Alpha  occ. eigenvalues --   -1.09434  -1.09059  -1.06850  -1.06827  -1.03183
 Alpha  occ. eigenvalues --   -1.02361  -1.02057  -1.00694  -0.99857  -0.99025
 Alpha  occ. eigenvalues --   -0.96993  -0.94478  -0.94395  -0.93449  -0.91611
 Alpha  occ. eigenvalues --   -0.90139  -0.89285  -0.86780  -0.86326  -0.85730
 Alpha  occ. eigenvalues --   -0.85543  -0.83644  -0.82818  -0.82370  -0.81429
 Alpha  occ. eigenvalues --   -0.80711  -0.78424  -0.77103  -0.76775  -0.75653
 Alpha  occ. eigenvalues --   -0.74498  -0.74160  -0.73550  -0.73129  -0.72541
 Alpha  occ. eigenvalues --   -0.72175  -0.71582  -0.70390  -0.69850  -0.68779
 Alpha  occ. eigenvalues --   -0.68440  -0.68041  -0.67398  -0.67301  -0.66593
 Alpha  occ. eigenvalues --   -0.66561  -0.66154  -0.66030  -0.65240  -0.63916
 Alpha  occ. eigenvalues --   -0.63680  -0.62645  -0.62008  -0.61443  -0.60669
 Alpha  occ. eigenvalues --   -0.60284  -0.59204  -0.59014  -0.58943  -0.58840
 Alpha  occ. eigenvalues --   -0.58652  -0.58204  -0.57730  -0.57395  -0.57275
 Alpha  occ. eigenvalues --   -0.56721  -0.56383  -0.55875  -0.55748  -0.55615
 Alpha  occ. eigenvalues --   -0.55096  -0.54831  -0.54725  -0.54343  -0.54009
 Alpha  occ. eigenvalues --   -0.53896  -0.53109  -0.52741  -0.52534  -0.52119
 Alpha  occ. eigenvalues --   -0.51892  -0.51507  -0.51362  -0.51184  -0.50989
 Alpha  occ. eigenvalues --   -0.50345  -0.50298  -0.50033  -0.49507  -0.49377
 Alpha  occ. eigenvalues --   -0.49146  -0.49075  -0.48570  -0.48440  -0.48314
 Alpha  occ. eigenvalues --   -0.48211  -0.48146  -0.47653  -0.47303  -0.46947
 Alpha  occ. eigenvalues --   -0.46881  -0.46671  -0.46424  -0.46281  -0.45977
 Alpha  occ. eigenvalues --   -0.45671  -0.45413  -0.44886  -0.44567  -0.44430
 Alpha  occ. eigenvalues --   -0.44328  -0.44012  -0.43957  -0.43909  -0.43518
 Alpha  occ. eigenvalues --   -0.42982  -0.42307  -0.42276  -0.42012  -0.41944
 Alpha  occ. eigenvalues --   -0.41401  -0.41338  -0.40494  -0.39685  -0.39338
 Alpha  occ. eigenvalues --   -0.39259  -0.38048  -0.37793  -0.37724  -0.37546
 Alpha  occ. eigenvalues --   -0.37324  -0.37028  -0.36679  -0.36549  -0.36130
 Alpha  occ. eigenvalues --   -0.36018  -0.35830  -0.35643  -0.35016  -0.34702
 Alpha  occ. eigenvalues --   -0.34642  -0.33759  -0.33527  -0.32964  -0.32815
 Alpha  occ. eigenvalues --   -0.32585  -0.29619  -0.28580  -0.22895  -0.22773
 Alpha  occ. eigenvalues --   -0.20388
 Alpha virt. eigenvalues --   -0.13139  -0.10673  -0.08962  -0.08375  -0.08119
 Alpha virt. eigenvalues --   -0.08080  -0.07471  -0.06367  -0.06194  -0.05762
 Alpha virt. eigenvalues --   -0.05618  -0.05202  -0.03105  -0.02413  -0.01897

 Mulliken charges:
               1
     1  N   -0.537270
     2  H    0.351075
     3  H    0.362138
     4  H    0.357970
     5  C   -0.112328
     6  H    0.163286
     7  C    0.630411
     8  C    0.167412
     9  H    0.152115
    10  O   -0.536081
    11  C   -0.374786
    12  H    0.164737
    13  H    0.164042
    14  H    0.124244
    15  O   -0.545918
    16  H    0.337250
    17  N   -0.504995
    18  H    0.302677
    19  C   -0.023883
    20  H    0.161959
    21  C    0.617694
    22  C   -0.265398
    23  H    0.124544
    24  H    0.143007
    25  O   -0.552822
    26  C    0.116400
    27  C   -0.112440
    28  H    0.048330
    29  C   -0.144696
    30  H    0.113855
    31  C   -0.082092
    32  H    0.092064
    33  C   -0.090413
    34  H    0.105909
    35  C   -0.084042
    36  H    0.103042
    37  N   -0.522319
    38  H    0.292339
    39  C   -0.025385
    40  H    0.159989
    41  C    0.609579
    42  C   -0.313294
    43  H    0.128299
    44  H    0.128193
    45  H    0.138890
    46  O   -0.548707
    47  N   -0.522051
    48  H    0.293014
    49  C   -0.040281
    50  H    0.170908
    51  C    0.622292
    52  C   -0.170521
    53  H    0.120582
    54  H    0.129989
    55  O   -0.558740
    56  C   -0.275604
    57  H    0.145185
    58  H    0.151726
    59  C    0.614735
    60  O   -0.478386
    61  O   -0.483726
    62  N   -0.518312
    63  H    0.288116
    64  C   -0.036817
    65  H    0.158165
    66  C    0.622530
    67  C   -0.329208
    68  H    0.136020
    69  H    0.133358
    70  H    0.122495
    71  O   -0.585711
    72  N   -0.489156
    73  H    0.307386
    74  C   -0.024592
    75  H    0.112068
    76  C    0.569264
    77  C   -0.216986
    78  H    0.102753
    79  H    0.170655
    80  O   -0.573131
    81  C   -0.068011
    82  H    0.068447
    83  C   -0.313363
    84  H    0.136550
    85  H    0.100759
    86  H    0.082203
    87  C   -0.319596
    88  H    0.136653
    89  H    0.089246
    90  H    0.087736
    91  N   -0.532259
    92  H    0.283689
    93  C   -0.057935
    94  H    0.115443
    95  C    0.584361
    96  C   -0.174087
    97  H    0.145904
    98  H    0.067650
    99  O   -0.559430
   100  C   -0.199777
   101  H    0.123884
   102  H    0.114203
   103  C   -0.095608
   104  H    0.137349
   105  H    0.135498
   106  N   -0.498906
   107  H    0.288122
   108  N   -0.604451
   109  H    0.303819
   110  H    0.318814
   111  N   -0.622244
   112  H    0.288926
   113  H    0.329726
   114  C    0.746643
   115  O   -0.623992
   116  H    0.331432
 Sum of Mulliken charges =   1.00000

 Dipole moment (field-independent basis, Debye):
    X=            -27.3500    Y=             -6.4152    Z=            -25.7778  Tot=             38.1270
 Quadrupole moment (field-independent basis, Debye-Ang):
   XX=           -210.0294   YY=           -196.1437   ZZ=           -150.1234
   XY=            214.5897   XZ=            143.3989   YZ=            185.2286

 Normal termination of Gaussian 16 at Thu Sep  8 18:22:01 2022.
