 Gaussian 16, Revision C.01,
 Gaussian 16:  ES64L-G16RevC.01  3-Jul-2019

 ----------------------------------------------------------------------
 # B3LYP/6-31G** empiricaldispersion=gd3bj guess=read geom=check nosymm
  integral(ultrafinegrid)
 ----------------------------------------------------------------------

 ------------------------------------------------------
 Candidate Structure: Conf:234 Charge calc in gas phase
 ------------------------------------------------------
 Structure from the checkpoint file:  "conf-234.chk"
 Charge =  1 Multiplicity = 1

                          Input orientation:
 ---------------------------------------------------------------------
 Center     Atomic      Atomic             Coordinates (Angstroms)
 Number     Number       Type             X           Y           Z
 ---------------------------------------------------------------------
      1          7           0       -8.104621   -1.739875   -3.754609
      2          1           0       -8.401889   -2.730811   -3.843141
      3          1           0       -8.468253   -1.324313   -2.877893
      4          1           0       -8.487127   -1.206846   -4.538373
      5          6           0       -6.606579   -1.571595   -3.650335
      6          1           0       -6.171143   -1.718744   -4.640087
      7          6           0       -6.162360   -2.606647   -2.615463
      8          6           0       -6.365160   -0.134396   -3.097554
      9          1           0       -5.328530   -0.100833   -2.738417
     10          8           0       -6.719132   -2.595843   -1.516938
     11          6           0       -6.580028    0.948720   -4.143396
     12          1           0       -5.889920    0.825257   -4.982108
     13          1           0       -6.405929    1.925555   -3.689202
     14          1           0       -7.607605    0.949392   -4.524692
     15          8           0       -7.287337    0.083713   -2.039032
     16          1           0       -7.042040   -0.504029   -1.302578
     17          7           0       -5.184659   -3.453078   -2.983861
     18          1           0       -4.861396   -3.433375   -3.942035
     19          6           0       -4.878643   -4.652878   -2.200645
     20          1           0       -5.294502   -4.465033   -1.207232
     21          6           0       -3.365383   -4.878506   -2.036298
     22          6           0       -5.578306   -5.883965   -2.823368
     23          1           0       -5.060024   -6.164084   -3.746360
     24          1           0       -5.453108   -6.717282   -2.129035
     25          8           0       -2.942333   -5.981297   -1.713303
     26          6           0       -7.030235   -5.578992   -3.104365
     27          6           0       -7.442880   -5.214448   -4.392141
     28          1           0       -6.734413   -5.268651   -5.214740
     29          6           0       -7.970277   -5.533440   -2.065584
     30          1           0       -7.666675   -5.808102   -1.059998
     31          6           0       -8.759516   -4.807560   -4.640036
     32          1           0       -9.071908   -4.572343   -5.653925
     33          6           0       -9.280292   -5.121326   -2.299935
     34          1           0       -9.991959   -5.095082   -1.481411
     35          6           0       -9.682010   -4.751217   -3.587878
     36          1           0      -10.710072   -4.457375   -3.776652
     37          7           0       -2.612389   -3.783625   -2.260107
     38          1           0       -3.027612   -2.872350   -2.431342
     39          6           0       -1.183038   -3.705876   -2.024673
     40          1           0       -0.956132   -4.104308   -1.027825
     41          6           0       -0.867695   -2.197656   -2.058629
     42          6           0       -0.376436   -4.487167   -3.071400
     43          1           0        0.695103   -4.424676   -2.865045
     44          1           0       -0.561709   -4.084381   -4.071259
     45          1           0       -0.676266   -5.536129   -3.044516
     46          8           0       -1.717726   -1.383435   -2.443967
     47          7           0        0.367725   -1.855457   -1.671421
     48          1           0        1.033423   -2.530754   -1.306542
     49          6           0        0.839116   -0.481170   -1.621597
     50          1           0        0.576292    0.021122   -2.559107
     51          6           0        2.362471   -0.580279   -1.453961
     52          6           0        0.196536    0.269666   -0.432106
     53          1           0        0.548769   -0.191640    0.496456
     54          1           0       -0.881323    0.105061   -0.484384
     55          8           0        2.859216   -1.572350   -0.920812
     56          6           0        0.464845    1.774223   -0.410403
     57          1           0        1.519109    2.033305   -0.297123
     58          1           0        0.152087    2.238234   -1.356747
     59          6           0       -0.316890    2.459368    0.686935
     60          8           0       -1.285574    2.006063    1.255996
     61          8           0        0.188147    3.685583    0.965624
     62          7           0        3.070978    0.483136   -1.891946
     63          1           0        2.577453    1.325876   -2.170290
     64          6           0        4.422050    0.765590   -1.419522
     65          1           0        4.669734    0.008751   -0.670848
     66          6           0        4.342950    2.161396   -0.776974
     67          6           0        5.449346    0.735945   -2.556632
     68          1           0        6.450731    0.956821   -2.176342
     69          1           0        5.197480    1.481252   -3.316529
     70          1           0        5.460577   -0.252284   -3.022005
     71          8           0        3.479043    2.964383   -1.151879
     72          7           0        5.237129    2.437065    0.181840
     73          1           0        5.936954    1.773940    0.499750
     74          6           0        5.204188    3.686687    0.926356
     75          1           0        5.048555    4.505114    0.219104
     76          6           0        6.568644    3.806141    1.609599
     77          6           0        4.052537    3.659994    1.960705
     78          1           0        3.160976    3.315131    1.426892
     79          1           0        4.299403    2.900182    2.712227
     80          8           0        7.261480    2.805317    1.814886
     81          6           0        3.705019    4.990279    2.649210
     82          1           0        4.587393    5.368409    3.179748
     83          6           0        3.252118    6.052787    1.638943
     84          1           0        2.403654    5.684767    1.050975
     85          1           0        4.044148    6.330034    0.935682
     86          1           0        2.946776    6.968960    2.152896
     87          6           0        2.608219    4.740501    3.692441
     88          1           0        1.705855    4.344778    3.211767
     89          1           0        2.339576    5.666538    4.209789
     90          1           0        2.930381    4.014033    4.445689
     91          7           0        6.916799    5.047738    1.989534
     92          1           0        6.313316    5.849610    1.841642
     93          6           0        8.083075    5.326417    2.811681
     94          1           0        8.219730    4.499908    3.516284
     95          6           0        7.734438    6.623487    3.568535
     96          6           0        9.354592    5.429845    1.923087
     97          1           0        9.381568    6.411914    1.435068
     98          1           0        9.211825    4.688133    1.133443
     99          8           0        8.387499    6.890548    4.681544
    100          6           0       10.677043    5.113686    2.633708
    101          1           0       11.408691    4.784215    1.887506
    102          1           0       10.510607    4.261873    3.299977
    103          6           0       11.285021    6.272644    3.449726
    104          1           0       10.516063    6.951556    3.815060
    105          1           0       11.956836    6.872063    2.829555
    106          7           0       12.055902    5.821132    4.607634
    107          1           0       12.962429    5.424307    4.400199
    108          7           0       10.116017    5.239173    5.751614
    109          1           0        9.789787    4.867756    6.639558
    110          1           0        9.040471    6.166776    5.006591
    111          7           0       12.262534    4.638437    6.581682
    112          1           0       13.164320    5.081014    6.698916
    113          1           0       11.840469    4.372330    7.459508
    114          6           0       11.411610    5.237806    5.667857
    115          8           0        6.881206    7.372788    3.121837
    116          1           0       -0.375636    4.068133    1.659335
 ---------------------------------------------------------------------

 SCF Done:  E(RB3LYP) =  -2782.65555168     A.U. after    3 cycles

 Alpha  occ. eigenvalues --  -19.28594 -19.26215 -19.25106 -19.19941 -19.19920
 Alpha  occ. eigenvalues --  -19.19639 -19.19420 -19.18510 -19.17373 -19.16353
 Alpha  occ. eigenvalues --  -19.16038 -14.59989 -14.50415 -14.43834 -14.43439
 Alpha  occ. eigenvalues --  -14.42209 -14.41511 -14.41383 -14.41123 -14.40195
 Alpha  occ. eigenvalues --  -14.36094 -10.43649 -10.40478 -10.38893 -10.37605
 Alpha  occ. eigenvalues --  -10.37380 -10.36747 -10.35505 -10.35500 -10.34563
 Alpha  occ. eigenvalues --  -10.34326 -10.34314 -10.33318 -10.31344 -10.31007
 Alpha  occ. eigenvalues --  -10.30988 -10.30803 -10.30699 -10.30641 -10.30528
 Alpha  occ. eigenvalues --  -10.30219 -10.29940 -10.29634 -10.29264 -10.27953
 Alpha  occ. eigenvalues --  -10.27588 -10.26660 -10.25691 -10.25450 -10.25446
 Alpha  occ. eigenvalues --  -10.23971 -10.23469 -10.23073 -10.22893 -10.22818
 Alpha  occ. eigenvalues --  -10.21270 -10.20944  -1.19344  -1.16302  -1.15899
 Alpha  occ. eigenvalues --   -1.13634  -1.12243  -1.11773  -1.11406  -1.10481
 Alpha  occ. eigenvalues --   -1.09331  -1.08104  -1.06912  -1.06907  -1.04720
 Alpha  occ. eigenvalues --   -1.03564  -1.00740  -1.00134  -0.99032  -0.97923
 Alpha  occ. eigenvalues --   -0.97166  -0.96999  -0.95263  -0.92966  -0.91163
 Alpha  occ. eigenvalues --   -0.90153  -0.87515  -0.86678  -0.85860  -0.85763
 Alpha  occ. eigenvalues --   -0.84972  -0.83956  -0.83342  -0.83160  -0.80017
 Alpha  occ. eigenvalues --   -0.79170  -0.77212  -0.77173  -0.74822  -0.73816
 Alpha  occ. eigenvalues --   -0.73350  -0.73251  -0.72485  -0.72333  -0.72278
 Alpha  occ. eigenvalues --   -0.72034  -0.71624  -0.71124  -0.69599  -0.69497
 Alpha  occ. eigenvalues --   -0.67632  -0.66731  -0.66376  -0.65522  -0.65384
 Alpha  occ. eigenvalues --   -0.65106  -0.64226  -0.64146  -0.64063  -0.63464
 Alpha  occ. eigenvalues --   -0.62668  -0.62382  -0.62220  -0.61844  -0.60999
 Alpha  occ. eigenvalues --   -0.60505  -0.60184  -0.59534  -0.58819  -0.58493
 Alpha  occ. eigenvalues --   -0.57824  -0.57130  -0.56470  -0.56302  -0.56064
 Alpha  occ. eigenvalues --   -0.55615  -0.55341  -0.54972  -0.54189  -0.53657
 Alpha  occ. eigenvalues --   -0.53394  -0.53128  -0.53084  -0.52730  -0.52707
 Alpha  occ. eigenvalues --   -0.52568  -0.52328  -0.51945  -0.51671  -0.51476
 Alpha  occ. eigenvalues --   -0.51265  -0.51083  -0.50833  -0.50749  -0.50399
 Alpha  occ. eigenvalues --   -0.50050  -0.49763  -0.49735  -0.49281  -0.49077
 Alpha  occ. eigenvalues --   -0.48534  -0.48322  -0.47978  -0.47707  -0.47579
 Alpha  occ. eigenvalues --   -0.47450  -0.47253  -0.47239  -0.46954  -0.46638
 Alpha  occ. eigenvalues --   -0.46411  -0.45892  -0.45614  -0.45487  -0.45266
 Alpha  occ. eigenvalues --   -0.45047  -0.44832  -0.44726  -0.44416  -0.44166
 Alpha  occ. eigenvalues --   -0.43843  -0.43630  -0.43501  -0.42773  -0.42536
 Alpha  occ. eigenvalues --   -0.42425  -0.42310  -0.41931  -0.41764  -0.41290
 Alpha  occ. eigenvalues --   -0.40926  -0.40709  -0.40633  -0.40442  -0.39754
 Alpha  occ. eigenvalues --   -0.39681  -0.39559  -0.39226  -0.38188  -0.37492
 Alpha  occ. eigenvalues --   -0.37255  -0.36626  -0.36586  -0.36255  -0.36251
 Alpha  occ. eigenvalues --   -0.34437  -0.34153  -0.34019  -0.33424  -0.33362
 Alpha  occ. eigenvalues --   -0.33128  -0.32867  -0.32714  -0.32095  -0.31947
 Alpha  occ. eigenvalues --   -0.31452  -0.30808  -0.30652  -0.29738  -0.29373
 Alpha  occ. eigenvalues --   -0.29269
 Alpha virt. eigenvalues --   -0.13774  -0.12310  -0.11832  -0.09518  -0.06632
 Alpha virt. eigenvalues --   -0.05816  -0.05325  -0.04517  -0.04398  -0.04203
 Alpha virt. eigenvalues --   -0.03363  -0.02507  -0.02245  -0.01577  -0.01548

 Mulliken charges:
               1
     1  N   -0.529094
     2  H    0.349065
     3  H    0.354874
     4  H    0.342584
     5  C   -0.105546
     6  H    0.151524
     7  C    0.636234
     8  C    0.141860
     9  H    0.161301
    10  O   -0.530081
    11  C   -0.324804
    12  H    0.133943
    13  H    0.173553
    14  H    0.101761
    15  O   -0.535562
    16  H    0.347957
    17  N   -0.539577
    18  H    0.280159
    19  C   -0.033730
    20  H    0.185493
    21  C    0.615175
    22  C   -0.245676
    23  H    0.121392
    24  H    0.169363
    25  O   -0.519782
    26  C    0.115584
    27  C   -0.140731
    28  H    0.098363
    29  C   -0.092401
    30  H    0.119223
    31  C   -0.159783
    32  H    0.113588
    33  C   -0.076413
    34  H    0.124142
    35  C   -0.127279
    36  H    0.118380
    37  N   -0.553986
    38  H    0.276410
    39  C    0.004459
    40  H    0.146946
    41  C    0.608231
    42  C   -0.314101
    43  H    0.123949
    44  H    0.110470
    45  H    0.153911
    46  O   -0.570714
    47  N   -0.539565
    48  H    0.292073
    49  C   -0.006383
    50  H    0.125646
    51  C    0.587600
    52  C   -0.165314
    53  H    0.122520
    54  H    0.145708
    55  O   -0.534977
    56  C   -0.290241
    57  H    0.166297
    58  H    0.138693
    59  C    0.573387
    60  O   -0.465344
    61  O   -0.476252
    62  N   -0.511565
    63  H    0.280708
    64  C   -0.038334
    65  H    0.145755
    66  C    0.615616
    67  C   -0.302822
    68  H    0.121155
    69  H    0.122506
    70  H    0.131196
    71  O   -0.555939
    72  N   -0.532339
    73  H    0.285115
    74  C   -0.012222
    75  H    0.136223
    76  C    0.602452
    77  C   -0.161164
    78  H    0.123926
    79  H    0.097395
    80  O   -0.556991
    81  C   -0.075810
    82  H    0.102282
    83  C   -0.317679
    84  H    0.116326
    85  H    0.094907
    86  H    0.110294
    87  C   -0.313722
    88  H    0.087286
    89  H    0.106926
    90  H    0.101958
    91  N   -0.537572
    92  H    0.292438
    93  C   -0.020062
    94  H    0.139246
    95  C    0.594108
    96  C   -0.181523
    97  H    0.108003
    98  H    0.127823
    99  O   -0.525823
   100  C   -0.192772
   101  H    0.099580
   102  H    0.127989
   103  C   -0.079307
   104  H    0.143827
   105  H    0.115564
   106  N   -0.521215
   107  H    0.265439
   108  N   -0.680583
   109  H    0.235207
   110  H    0.400043
   111  N   -0.631255
   112  H    0.276744
   113  H    0.274604
   114  C    0.675122
   115  O   -0.490977
   116  H    0.327434
 Sum of Mulliken charges =   1.00000

 Dipole moment (field-independent basis, Debye):
    X=            -15.4500    Y=             -5.1582    Z=            -12.5603  Tot=             20.5687
 Quadrupole moment (field-independent basis, Debye-Ang):
   XX=            100.4665   YY=           -326.6334   ZZ=           -207.5787
   XY=            123.4651   XZ=            203.4680   YZ=             54.0235

 Normal termination of Gaussian 16 at Thu Sep  8 18:22:13 2022.
