 Gaussian 16, Revision C.01,
 Gaussian 16:  ES64L-G16RevC.01  3-Jul-2019

 ----------------------------------------------------------------------
 # B3LYP/6-31G** empiricaldispersion=gd3bj guess=read geom=check nosymm
  integral(ultrafinegrid)
 ----------------------------------------------------------------------

 -----------------------------------------------------
 Candidate Structure: Conf:34 Charge calc in gas phase
 -----------------------------------------------------
 Structure from the checkpoint file:  "conf-34.chk"
 Charge =  1 Multiplicity = 1

                          Input orientation:
 ---------------------------------------------------------------------
 Center     Atomic      Atomic             Coordinates (Angstroms)
 Number     Number       Type             X           Y           Z
 ---------------------------------------------------------------------
      1          7           0       -7.576889   -5.462190   -3.787049
      2          1           0       -7.657866   -6.227990   -3.116709
      3          1           0       -7.880376   -4.565911   -3.323216
      4          1           0       -8.095541   -5.693179   -4.648196
      5          6           0       -6.155438   -5.164047   -4.171050
      6          1           0       -5.543861   -6.051638   -3.999360
      7          6           0       -5.777599   -3.969131   -3.267703
      8          6           0       -6.142378   -4.780321   -5.669953
      9          1           0       -6.553293   -3.763648   -5.762939
     10          8           0       -6.709753   -3.341217   -2.744323
     11          6           0       -4.747146   -4.842110   -6.276380
     12          1           0       -4.065954   -4.125082   -5.810982
     13          1           0       -4.798066   -4.595371   -7.340660
     14          1           0       -4.331757   -5.849202   -6.179445
     15          8           0       -7.037574   -5.723117   -6.267413
     16          1           0       -7.158002   -5.509350   -7.202512
     17          7           0       -4.487816   -3.692192   -3.170703
     18          1           0       -3.764559   -4.218961   -3.664621
     19          6           0       -3.929984   -2.510709   -2.522864
     20          1           0       -4.626137   -1.676660   -2.641414
     21          6           0       -2.621043   -2.256810   -3.291642
     22          6           0       -3.682262   -2.775221   -1.016244
     23          1           0       -4.649030   -3.055461   -0.583837
     24          1           0       -3.018737   -3.641472   -0.929808
     25          8           0       -2.118935   -3.181318   -3.949166
     26          6           0       -3.097187   -1.591012   -0.285469
     27          6           0       -1.788788   -1.631906    0.211160
     28          1           0       -1.189946   -2.528161    0.070809
     29          6           0       -3.855714   -0.427054   -0.105184
     30          1           0       -4.878714   -0.386532   -0.472828
     31          6           0       -1.256371   -0.541615    0.897340
     32          1           0       -0.250644   -0.566723    1.298847
     33          6           0       -3.317748    0.671613    0.565904
     34          1           0       -3.917816    1.565555    0.703279
     35          6           0       -2.020859    0.611679    1.075856
     36          1           0       -1.592616    1.445459    1.620024
     37          7           0       -2.093543   -1.037303   -3.178133
     38          1           0       -2.534616   -0.314622   -2.616297
     39          6           0       -0.781636   -0.692513   -3.713943
     40          1           0       -0.090618   -1.508991   -3.479741
     41          6           0       -0.373963    0.599133   -2.992767
     42          6           0       -0.820039   -0.471325   -5.231836
     43          1           0        0.177282   -0.220499   -5.603330
     44          1           0       -1.500155    0.350498   -5.469869
     45          1           0       -1.160160   -1.382981   -5.726436
     46          8           0       -1.225508    1.439172   -2.704536
     47          7           0        0.946434    0.726980   -2.757256
     48          1           0        1.565426   -0.070385   -2.865548
     49          6           0        1.532245    1.805328   -1.973052
     50          1           0        1.363035    2.767471   -2.469915
     51          6           0        3.021471    1.466599   -1.881218
     52          6           0        0.936629    1.806771   -0.538561
     53          1           0        1.245604    0.879457   -0.054363
     54          1           0       -0.145163    1.750099   -0.652027
     55          8           0        3.405741    0.299856   -1.993834
     56          6           0        1.284499    2.975831    0.384630
     57          1           0        2.305186    3.342603    0.246667
     58          1           0        0.621539    3.831603    0.217039
     59          6           0        1.226429    2.583039    1.872086
     60          8           0        1.005575    1.394280    2.184630
     61          8           0        1.461276    3.510386    2.722674
     62          7           0        3.866428    2.483684   -1.569397
     63          1           0        3.456097    3.390897   -1.394132
     64          6           0        5.125847    2.199182   -0.859405
     65          1           0        5.614050    1.379937   -1.390257
     66          6           0        4.696751    1.756585    0.554358
     67          6           0        6.013272    3.432413   -0.826705
     68          1           0        6.961688    3.197864   -0.337618
     69          1           0        5.532436    4.231225   -0.255194
     70          1           0        6.219018    3.783304   -1.840500
     71          8           0        4.394791    2.602675    1.406927
     72          7           0        4.555276    0.436304    0.732711
     73          1           0        4.684007   -0.141460   -0.087367
     74          6           0        3.808139   -0.167096    1.845981
     75          1           0        2.749043    0.061512    1.701950
     76          6           0        4.268924    0.428335    3.192092
     77          6           0        4.029025   -1.682297    1.860806
     78          1           0        5.086056   -1.866316    2.079421
     79          1           0        3.459256   -2.077483    2.710853
     80          8           0        5.427816    0.303644    3.579948
     81          6           0        3.603750   -2.443615    0.590954
     82          1           0        4.219839   -2.108786   -0.257256
     83          6           0        3.877272   -3.940748    0.781102
     84          1           0        3.265354   -4.344492    1.595978
     85          1           0        4.926746   -4.125529    1.030472
     86          1           0        3.640482   -4.504038   -0.127114
     87          6           0        2.135787   -2.197209    0.219345
     88          1           0        1.475849   -2.439466    1.060800
     89          1           0        1.843169   -2.824752   -0.629412
     90          1           0        1.956200   -1.158598   -0.066653
     91          7           0        3.273972    1.036437    3.873532
     92          1           0        2.366221    1.121802    3.410935
     93          6           0        3.456426    1.691952    5.163564
     94          1           0        4.132484    1.085987    5.768654
     95          6           0        2.104391    1.738303    5.894731
     96          6           0        3.980375    3.140336    5.049334
     97          1           0        3.942029    3.592446    6.048846
     98          1           0        3.264757    3.682455    4.427528
     99          8           0        1.101807    2.371973    5.262949
    100          6           0        5.387159    3.300327    4.460656
    101          1           0        5.550996    2.584524    3.656207
    102          1           0        6.152682    3.092625    5.215147
    103          6           0        5.608289    4.715489    3.912846
    104          1           0        6.624096    4.823895    3.518467
    105          1           0        5.470586    5.461231    4.702809
    106          7           0        4.630484    4.981183    2.845555
    107          1           0        4.408068    4.172490    2.255416
    108          7           0        4.091184    7.178757    3.380844
    109          1           0        3.370489    7.812150    3.686526
    110          1           0        5.029321    7.344218    3.706763
    111          7           0        2.580814    5.831751    2.222534
    112          1           0        2.091021    4.885095    2.313581
    113          1           0        2.007628    6.653360    2.098119
    114          6           0        3.761000    5.988525    2.828170
    115          8           0        1.954630    1.274258    7.000785
    116          1           0        1.315817    2.734831    4.366517
 ---------------------------------------------------------------------

 SCF Done:  E(RB3LYP) =  -2782.69433819     A.U. after    3 cycles

 Alpha  occ. eigenvalues --  -19.30313 -19.26329 -19.21531 -19.20691 -19.19376
 Alpha  occ. eigenvalues --  -19.19369 -19.19119 -19.16607 -19.15584 -19.14379
 Alpha  occ. eigenvalues --  -19.14368 -14.58958 -14.49091 -14.46372 -14.44919
 Alpha  occ. eigenvalues --  -14.44729 -14.44142 -14.43351 -14.42955 -14.42838
 Alpha  occ. eigenvalues --  -14.38429 -10.43282 -10.41064 -10.40271 -10.39753
 Alpha  occ. eigenvalues --  -10.38369 -10.37324 -10.36248 -10.35984 -10.34039
 Alpha  occ. eigenvalues --  -10.33863 -10.33068 -10.31833 -10.31441 -10.31243
 Alpha  occ. eigenvalues --  -10.31123 -10.30718 -10.29685 -10.28326 -10.27535
 Alpha  occ. eigenvalues --  -10.26465 -10.26395 -10.25655 -10.25599 -10.25321
 Alpha  occ. eigenvalues --  -10.25034 -10.24947 -10.24549 -10.24418 -10.24382
 Alpha  occ. eigenvalues --  -10.24185 -10.24126 -10.23261 -10.23249 -10.22985
 Alpha  occ. eigenvalues --  -10.22675 -10.22187  -1.19255  -1.17542  -1.13541
 Alpha  occ. eigenvalues --   -1.12824  -1.12738  -1.11132  -1.10868  -1.10485
 Alpha  occ. eigenvalues --   -1.09803  -1.09222  -1.06285  -1.05915  -1.02263
 Alpha  occ. eigenvalues --   -1.01608  -1.01210  -1.00389  -1.00102  -0.99415
 Alpha  occ. eigenvalues --   -0.99034  -0.97327  -0.95416  -0.93520  -0.92077
 Alpha  occ. eigenvalues --   -0.88487  -0.87214  -0.86386  -0.84991  -0.84812
 Alpha  occ. eigenvalues --   -0.84572  -0.83627  -0.81265  -0.80946  -0.80369
 Alpha  occ. eigenvalues --   -0.78860  -0.78735  -0.77249  -0.75054  -0.74047
 Alpha  occ. eigenvalues --   -0.73629  -0.73549  -0.73416  -0.72848  -0.71314
 Alpha  occ. eigenvalues --   -0.71294  -0.70744  -0.69790  -0.69166  -0.68212
 Alpha  occ. eigenvalues --   -0.66933  -0.66827  -0.66735  -0.66250  -0.65607
 Alpha  occ. eigenvalues --   -0.65065  -0.64945  -0.64595  -0.64560  -0.63156
 Alpha  occ. eigenvalues --   -0.62937  -0.62522  -0.61714  -0.61240  -0.61055
 Alpha  occ. eigenvalues --   -0.59807  -0.59680  -0.59166  -0.58929  -0.58538
 Alpha  occ. eigenvalues --   -0.57591  -0.57488  -0.57078  -0.56634  -0.56099
 Alpha  occ. eigenvalues --   -0.55842  -0.55740  -0.54989  -0.54771  -0.54247
 Alpha  occ. eigenvalues --   -0.54192  -0.53722  -0.53331  -0.52606  -0.52511
 Alpha  occ. eigenvalues --   -0.52388  -0.52246  -0.51940  -0.51677  -0.51558
 Alpha  occ. eigenvalues --   -0.51364  -0.51112  -0.50960  -0.50339  -0.50028
 Alpha  occ. eigenvalues --   -0.49751  -0.49547  -0.49192  -0.48683  -0.48345
 Alpha  occ. eigenvalues --   -0.48156  -0.47899  -0.47869  -0.47723  -0.47466
 Alpha  occ. eigenvalues --   -0.47197  -0.47058  -0.46625  -0.46508  -0.46241
 Alpha  occ. eigenvalues --   -0.45840  -0.45796  -0.45513  -0.45147  -0.45085
 Alpha  occ. eigenvalues --   -0.44947  -0.44748  -0.44348  -0.43944  -0.43883
 Alpha  occ. eigenvalues --   -0.43765  -0.43407  -0.42886  -0.42683  -0.42591
 Alpha  occ. eigenvalues --   -0.42406  -0.42060  -0.41979  -0.41385  -0.41165
 Alpha  occ. eigenvalues --   -0.40789  -0.40362  -0.40065  -0.39765  -0.39666
 Alpha  occ. eigenvalues --   -0.39448  -0.38633  -0.38529  -0.37779  -0.37583
 Alpha  occ. eigenvalues --   -0.37512  -0.37105  -0.36750  -0.35957  -0.35759
 Alpha  occ. eigenvalues --   -0.34923  -0.34640  -0.33925  -0.33483  -0.33231
 Alpha  occ. eigenvalues --   -0.32426  -0.32203  -0.31887  -0.31426  -0.31247
 Alpha  occ. eigenvalues --   -0.31023  -0.30483  -0.29767  -0.29506  -0.28217
 Alpha  occ. eigenvalues --   -0.26720
 Alpha virt. eigenvalues --   -0.12158  -0.09699  -0.07642  -0.07411  -0.06638
 Alpha virt. eigenvalues --   -0.06461  -0.06282  -0.05787  -0.05227  -0.04696
 Alpha virt. eigenvalues --   -0.03969  -0.02390  -0.01958  -0.01705  -0.01637

 Mulliken charges:
               1
     1  N   -0.540077
     2  H    0.352057
     3  H    0.360964
     4  H    0.358634
     5  C   -0.093048
     6  H    0.173831
     7  C    0.631046
     8  C    0.163439
     9  H    0.130580
    10  O   -0.541078
    11  C   -0.348499
    12  H    0.150834
    13  H    0.139343
    14  H    0.141980
    15  O   -0.562140
    16  H    0.345254
    17  N   -0.513770
    18  H    0.301110
    19  C   -0.032825
    20  H    0.151466
    21  C    0.620318
    22  C   -0.228740
    23  H    0.134943
    24  H    0.115063
    25  O   -0.567131
    26  C    0.102233
    27  C   -0.132109
    28  H    0.084372
    29  C   -0.146483
    30  H    0.082696
    31  C   -0.085895
    32  H    0.128913
    33  C   -0.073162
    34  H    0.098245
    35  C   -0.088154
    36  H    0.115796
    37  N   -0.523109
    38  H    0.300254
    39  C    0.009455
    40  H    0.130577
    41  C    0.601933
    42  C   -0.311522
    43  H    0.123334
    44  H    0.128402
    45  H    0.133975
    46  O   -0.539029
    47  N   -0.548507
    48  H    0.288865
    49  C    0.003002
    50  H    0.125652
    51  C    0.599193
    52  C   -0.195623
    53  H    0.139847
    54  H    0.159006
    55  O   -0.546333
    56  C   -0.298188
    57  H    0.096142
    58  H    0.118339
    59  C    0.649567
    60  O   -0.566682
    61  O   -0.642592
    62  N   -0.509699
    63  H    0.270726
    64  C   -0.021865
    65  H    0.141241
    66  C    0.626900
    67  C   -0.333276
    68  H    0.137790
    69  H    0.118271
    70  H    0.127429
    71  O   -0.571630
    72  N   -0.506389
    73  H    0.292026
    74  C   -0.027268
    75  H    0.145796
    76  C    0.628953
    77  C   -0.189212
    78  H    0.130166
    79  H    0.114509
    80  O   -0.557401
    81  C   -0.085308
    82  H    0.088152
    83  C   -0.309622
    84  H    0.107209
    85  H    0.110568
    86  H    0.097827
    87  C   -0.319315
    88  H    0.108715
    89  H    0.090907
    90  H    0.110763
    91  N   -0.557934
    92  H    0.309619
    93  C   -0.009433
    94  H    0.144205
    95  C    0.568493
    96  C   -0.183587
    97  H    0.109203
    98  H    0.100924
    99  O   -0.516598
   100  C   -0.208832
   101  H    0.162073
   102  H    0.116749
   103  C   -0.079743
   104  H    0.126989
   105  H    0.106158
   106  N   -0.523898
   107  H    0.346207
   108  N   -0.612369
   109  H    0.298479
   110  H    0.301155
   111  N   -0.649511
   112  H    0.383085
   113  H    0.269700
   114  C    0.715891
   115  O   -0.456243
   116  H    0.356290
 Sum of Mulliken charges =   1.00000

 Dipole moment (field-independent basis, Debye):
    X=            -15.9866    Y=             -5.6485    Z=            -21.9034  Tot=             27.6990
 Quadrupole moment (field-independent basis, Debye-Ang):
   XX=           -116.7102   YY=           -113.8056   ZZ=           -285.0503
   XY=            203.4547   XZ=            121.6741   YZ=            123.0968

 Normal termination of Gaussian 16 at Thu Sep  8 18:23:28 2022.
