 Gaussian 16, Revision C.01,
 Gaussian 16:  ES64L-G16RevC.01  3-Jul-2019

 ----------------------------------------------------------------------
 # B3LYP/6-31G** empiricaldispersion=gd3bj guess=read geom=check nosymm
  integral(ultrafinegrid)
 ----------------------------------------------------------------------

 ------------------------------------------------------
 Candidate Structure: Conf:123 Charge calc in gas phase
 ------------------------------------------------------
 Structure from the checkpoint file:  "conf-123.chk"
 Charge =  1 Multiplicity = 1

                          Input orientation:
 ---------------------------------------------------------------------
 Center     Atomic      Atomic             Coordinates (Angstroms)
 Number     Number       Type             X           Y           Z
 ---------------------------------------------------------------------
      1          7           0       -1.036191   -6.052164    0.484818
      2          1           0       -0.666126   -5.470200    1.317456
      3          1           0       -2.050375   -5.994879    0.338432
      4          1           0       -0.719958   -7.027010    0.605485
      5          6           0       -0.342865   -5.539927   -0.732998
      6          1           0        0.437358   -4.864143   -0.387216
      7          6           0       -1.386207   -4.772732   -1.542570
      8          6           0        0.324051   -6.740331   -1.461552
      9          1           0       -0.443335   -7.262344   -2.043892
     10          8           0       -2.549428   -5.163808   -1.578958
     11          6           0        1.448425   -6.260261   -2.369616
     12          1           0        1.080517   -5.549746   -3.117150
     13          1           0        1.894894   -7.109261   -2.890576
     14          1           0        2.228165   -5.772261   -1.774636
     15          8           0        0.764219   -7.671406   -0.486682
     16          1           0        1.379954   -7.206422    0.123063
     17          7           0       -0.932078   -3.648019   -2.136146
     18          1           0        0.044302   -3.378466   -2.092796
     19          6           0       -1.806200   -2.638605   -2.691707
     20          1           0       -2.662826   -3.128693   -3.160388
     21          6           0       -0.968905   -1.814534   -3.672096
     22          6           0       -2.290269   -1.638398   -1.591238
     23          1           0       -1.410412   -1.058242   -1.289660
     24          1           0       -2.988552   -0.935923   -2.058619
     25          8           0        0.251516   -1.729466   -3.511802
     26          6           0       -2.928606   -2.279987   -0.386242
     27          6           0       -4.318541   -2.398175   -0.293705
     28          1           0       -4.943327   -2.013369   -1.095178
     29          6           0       -2.142341   -2.783254    0.657720
     30          1           0       -1.062064   -2.717640    0.607184
     31          6           0       -4.910979   -3.004901    0.812752
     32          1           0       -5.991641   -3.088265    0.867286
     33          6           0       -2.728748   -3.388199    1.768839
     34          1           0       -2.092347   -3.764837    2.563152
     35          6           0       -4.117824   -3.500728    1.848527
     36          1           0       -4.580187   -3.966736    2.712945
     37          7           0       -1.647386   -1.115912   -4.606188
     38          1           0       -2.654010   -1.193955   -4.652011
     39          6           0       -1.005252   -0.077295   -5.424431
     40          1           0        0.018939   -0.418404   -5.596191
     41          6           0       -0.970970    1.235138   -4.606888
     42          6           0       -1.748898    0.104036   -6.738016
     43          1           0       -1.236492    0.841838   -7.358216
     44          1           0       -2.759633    0.480005   -6.559598
     45          1           0       -1.796165   -0.842165   -7.282020
     46          8           0       -1.743439    2.163987   -4.833746
     47          7           0       -0.065689    1.243765   -3.601392
     48          1           0        0.549391    0.449021   -3.437923
     49          6           0        0.055126    2.362123   -2.686318
     50          1           0        0.249055    3.276718   -3.259523
     51          6           0        1.281579    2.077098   -1.810756
     52          6           0       -1.227551    2.582085   -1.821939
     53          1           0       -0.966249    2.628445   -0.761615
     54          1           0       -1.866739    1.706176   -1.952122
     55          8           0        1.873007    0.988909   -1.886429
     56          6           0       -2.016412    3.831296   -2.207078
     57          1           0       -2.199659    3.832042   -3.287117
     58          1           0       -3.000882    3.841925   -1.726432
     59          6           0       -1.317570    5.112766   -1.835546
     60          8           0       -0.205466    5.206696   -1.334800
     61          8           0       -2.056235    6.192825   -2.118170
     62          7           0        1.631493    3.045166   -0.944160
     63          1           0        1.076105    3.903221   -0.942037
     64          6           0        2.823023    2.966186   -0.091748
     65          1           0        3.604298    2.467142   -0.679849
     66          6           0        2.579956    2.071085    1.148483
     67          6           0        3.268552    4.367181    0.304891
     68          1           0        4.150380    4.315943    0.944108
     69          1           0        2.482407    4.880303    0.865310
     70          1           0        3.506899    4.950623   -0.586905
     71          8           0        2.890076    2.443464    2.296121
     72          7           0        2.032591    0.887255    0.849496
     73          1           0        2.000754    0.640882   -0.145169
     74          6           0        1.555993   -0.091449    1.797883
     75          1           0        1.754527    0.296007    2.797871
     76          6           0        2.406881   -1.367891    1.645789
     77          6           0        0.038494   -0.279389    1.633680
     78          1           0       -0.153976   -0.652373    0.621879
     79          1           0       -0.325484   -1.047419    2.325526
     80          8           0        3.510124   -1.316831    1.084503
     81          6           0       -0.777010    1.004080    1.869137
     82          1           0       -0.400298    1.765481    1.174589
     83          6           0       -2.255666    0.756394    1.550010
     84          1           0       -2.675786   -0.025343    2.191488
     85          1           0       -2.393418    0.433363    0.514657
     86          1           0       -2.842556    1.667543    1.700764
     87          6           0       -0.603579    1.544774    3.294173
     88          1           0       -0.877354    0.785574    4.037089
     89          1           0       -1.250039    2.411861    3.457145
     90          1           0        0.423339    1.868559    3.487516
     91          7           0        1.932347   -2.486371    2.218917
     92          1           0        0.952362   -2.577673    2.468210
     93          6           0        2.589933   -3.780394    2.051644
     94          1           0        3.167433   -3.744469    1.123460
     95          6           0        1.504125   -4.858201    1.844663
     96          6           0        3.554215   -4.125719    3.200194
     97          1           0        3.777659   -5.191530    3.107795
     98          1           0        3.027128   -3.999304    4.154777
     99          8           0        1.888592   -5.953993    1.393810
    100          6           0        4.872135   -3.310806    3.165614
    101          1           0        4.928791   -2.756940    2.226520
    102          1           0        5.725680   -3.997478    3.167579
    103          6           0        5.123938   -2.357051    4.338973
    104          1           0        6.079054   -1.843510    4.198767
    105          1           0        5.190104   -2.919074    5.274810
    106          7           0        4.105989   -1.315408    4.574368
    107          1           0        3.365031   -1.530180    5.224722
    108          7           0        4.871465    0.213820    2.993686
    109          1           0        4.791879    1.175403    2.680732
    110          1           0        4.833983   -0.460461    2.227264
    111          7           0        3.373888    0.894480    4.613481
    112          1           0        2.973766    0.796068    5.533057
    113          1           0        3.092808    1.667508    4.001380
    114          6           0        4.110343   -0.079801    4.062425
    115          8           0        0.301119   -4.505584    2.101615
    116          1           0       -1.537641    6.976298   -1.865592
 ---------------------------------------------------------------------

 SCF Done:  E(RB3LYP) =  -2782.74582439     A.U. after    1 cycles

 Alpha  occ. eigenvalues --  -19.28381 -19.23648 -19.22850 -19.22311 -19.21922
 Alpha  occ. eigenvalues --  -19.21649 -19.21589 -19.21150 -19.19891 -19.19434
 Alpha  occ. eigenvalues --  -19.18511 -14.50327 -14.49643 -14.49024 -14.47776
 Alpha  occ. eigenvalues --  -14.46104 -14.45596 -14.45283 -14.45162 -14.45147
 Alpha  occ. eigenvalues --  -14.43284 -10.45407 -10.41400 -10.39138 -10.38768
 Alpha  occ. eigenvalues --  -10.38570 -10.38549 -10.38507 -10.36865 -10.36340
 Alpha  occ. eigenvalues --  -10.33905 -10.33270 -10.33256 -10.33052 -10.33034
 Alpha  occ. eigenvalues --  -10.32962 -10.32384 -10.31665 -10.30906 -10.28939
 Alpha  occ. eigenvalues --  -10.28515 -10.28273 -10.28034 -10.28015 -10.27965
 Alpha  occ. eigenvalues --  -10.27771 -10.27765 -10.26668 -10.26650 -10.26643
 Alpha  occ. eigenvalues --  -10.26608 -10.26571 -10.26538 -10.26092 -10.25662
 Alpha  occ. eigenvalues --  -10.25536 -10.25410  -1.19783  -1.14703  -1.14137
 Alpha  occ. eigenvalues --   -1.13980  -1.13610  -1.13262  -1.13224  -1.12493
 Alpha  occ. eigenvalues --   -1.11160  -1.10602  -1.10408  -1.04986  -1.03923
 Alpha  occ. eigenvalues --   -1.03613  -1.03011  -1.02537  -1.02211  -1.01812
 Alpha  occ. eigenvalues --   -1.01724  -1.01391  -1.00168  -0.93578  -0.90862
 Alpha  occ. eigenvalues --   -0.89399  -0.89237  -0.88660  -0.86860  -0.85998
 Alpha  occ. eigenvalues --   -0.85348  -0.85173  -0.83049  -0.82231  -0.82061
 Alpha  occ. eigenvalues --   -0.81333  -0.78590  -0.78111  -0.77083  -0.75999
 Alpha  occ. eigenvalues --   -0.75389  -0.75232  -0.74761  -0.73240  -0.72123
 Alpha  occ. eigenvalues --   -0.71398  -0.70584  -0.69798  -0.69247  -0.68487
 Alpha  occ. eigenvalues --   -0.68400  -0.68107  -0.67695  -0.67631  -0.67227
 Alpha  occ. eigenvalues --   -0.67107  -0.66936  -0.66237  -0.65647  -0.65602
 Alpha  occ. eigenvalues --   -0.64223  -0.63604  -0.63193  -0.62800  -0.61990
 Alpha  occ. eigenvalues --   -0.61308  -0.60349  -0.59365  -0.59208  -0.58902
 Alpha  occ. eigenvalues --   -0.58824  -0.58431  -0.58172  -0.58076  -0.57857
 Alpha  occ. eigenvalues --   -0.57340  -0.57182  -0.56424  -0.56393  -0.56005
 Alpha  occ. eigenvalues --   -0.55505  -0.55406  -0.55172  -0.54949  -0.54513
 Alpha  occ. eigenvalues --   -0.54368  -0.53793  -0.53300  -0.53139  -0.52867
 Alpha  occ. eigenvalues --   -0.52620  -0.52295  -0.52065  -0.51864  -0.51494
 Alpha  occ. eigenvalues --   -0.51277  -0.51149  -0.50923  -0.50661  -0.50340
 Alpha  occ. eigenvalues --   -0.49921  -0.49912  -0.49463  -0.49293  -0.49058
 Alpha  occ. eigenvalues --   -0.48715  -0.48657  -0.48532  -0.48177  -0.48115
 Alpha  occ. eigenvalues --   -0.47760  -0.47699  -0.47263  -0.46782  -0.46740
 Alpha  occ. eigenvalues --   -0.46645  -0.46257  -0.46113  -0.45888  -0.45752
 Alpha  occ. eigenvalues --   -0.45524  -0.45464  -0.45187  -0.44979  -0.44897
 Alpha  occ. eigenvalues --   -0.44836  -0.44436  -0.44134  -0.44099  -0.43627
 Alpha  occ. eigenvalues --   -0.43484  -0.43346  -0.43225  -0.42308  -0.41904
 Alpha  occ. eigenvalues --   -0.41822  -0.41282  -0.41090  -0.40992  -0.40539
 Alpha  occ. eigenvalues --   -0.40069  -0.39171  -0.38120  -0.37298  -0.37055
 Alpha  occ. eigenvalues --   -0.36673  -0.36124  -0.35939  -0.35873  -0.35682
 Alpha  occ. eigenvalues --   -0.35425  -0.35064  -0.34908  -0.34679  -0.34507
 Alpha  occ. eigenvalues --   -0.34384  -0.33125  -0.32784  -0.32313  -0.32127
 Alpha  occ. eigenvalues --   -0.31816
 Alpha virt. eigenvalues --   -0.11736  -0.09247  -0.09213  -0.08750  -0.08059
 Alpha virt. eigenvalues --   -0.07867  -0.07524  -0.07415  -0.06998  -0.05734
 Alpha virt. eigenvalues --   -0.04945  -0.04596  -0.02647  -0.01670  -0.01542

 Mulliken charges:
               1
     1  N   -0.567804
     2  H    0.382392
     3  H    0.329941
     4  H    0.326764
     5  C   -0.072019
     6  H    0.132913
     7  C    0.620179
     8  C    0.176413
     9  H    0.128806
    10  O   -0.527573
    11  C   -0.338723
    12  H    0.114067
    13  H    0.145056
    14  H    0.119143
    15  O   -0.564990
    16  H    0.350364
    17  N   -0.526037
    18  H    0.286239
    19  C   -0.010339
    20  H    0.148004
    21  C    0.616165
    22  C   -0.255639
    23  H    0.117909
    24  H    0.112919
    25  O   -0.545420
    26  C    0.141484
    27  C   -0.108137
    28  H    0.086570
    29  C   -0.143335
    30  H    0.074943
    31  C   -0.079018
    32  H    0.105302
    33  C   -0.123370
    34  H    0.109674
    35  C   -0.089870
    36  H    0.101316
    37  N   -0.519240
    38  H    0.275405
    39  C   -0.034956
    40  H    0.153124
    41  C    0.610796
    42  C   -0.323049
    43  H    0.140156
    44  H    0.131661
    45  H    0.119876
    46  O   -0.527272
    47  N   -0.563845
    48  H    0.315273
    49  C    0.036352
    50  H    0.149301
    51  C    0.571606
    52  C   -0.202937
    53  H    0.123679
    54  H    0.122261
    55  O   -0.560646
    56  C   -0.278592
    57  H    0.200340
    58  H    0.147765
    59  C    0.592164
    60  O   -0.501511
    61  O   -0.459164
    62  N   -0.541988
    63  H    0.328080
    64  C   -0.036583
    65  H    0.160680
    66  C    0.609117
    67  C   -0.323297
    68  H    0.130608
    69  H    0.131808
    70  H    0.128845
    71  O   -0.589383
    72  N   -0.489180
    73  H    0.323549
    74  C   -0.046081
    75  H    0.126615
    76  C    0.605581
    77  C   -0.178948
    78  H    0.107643
    79  H    0.104805
    80  O   -0.565467
    81  C   -0.071627
    82  H    0.097470
    83  C   -0.316647
    84  H    0.120418
    85  H    0.101701
    86  H    0.106091
    87  C   -0.324476
    88  H    0.100025
    89  H    0.119088
    90  H    0.098368
    91  N   -0.531178
    92  H    0.288525
    93  C   -0.018008
    94  H    0.148090
    95  C    0.603162
    96  C   -0.177956
    97  H    0.148920
    98  H    0.085044
    99  O   -0.584411
   100  C   -0.201750
   101  H    0.140464
   102  H    0.128969
   103  C   -0.090812
   104  H    0.153169
   105  H    0.140314
   106  N   -0.502559
   107  H    0.286337
   108  N   -0.587895
   109  H    0.302246
   110  H    0.330218
   111  N   -0.619308
   112  H    0.294246
   113  H    0.346249
   114  C    0.708040
   115  O   -0.636167
   116  H    0.336393
 Sum of Mulliken charges =   1.00000

 Dipole moment (field-independent basis, Debye):
    X=              4.1512    Y=             -0.3750    Z=              7.6117  Tot=              8.6782
 Quadrupole moment (field-independent basis, Debye-Ang):
   XX=           -278.9141   YY=           -288.5397   ZZ=           -249.7501
   XY=              5.3799   XZ=             47.0570   YZ=             -8.8317

 Normal termination of Gaussian 16 at Thu Sep  8 18:21:43 2022.
