 Gaussian 16, Revision C.01,
 Gaussian 16:  ES64L-G16RevC.01  3-Jul-2019

 ----------------------------------------------------------------------
 # B3LYP/6-31G** empiricaldispersion=gd3bj guess=read geom=check nosymm
  integral(ultrafinegrid)
 ----------------------------------------------------------------------

 ------------------------------------------------------
 Candidate Structure: Conf:879 Charge calc in gas phase
 ------------------------------------------------------
 Structure from the checkpoint file:  "conf-879.chk"
 Charge =  1 Multiplicity = 1

                          Input orientation:
 ---------------------------------------------------------------------
 Center     Atomic      Atomic             Coordinates (Angstroms)
 Number     Number       Type             X           Y           Z
 ---------------------------------------------------------------------
      1          7           0       -7.197892   -1.290626    0.237088
      2          1           0       -6.790805   -0.812324    1.041940
      3          1           0       -7.727608   -0.586316   -0.331971
      4          1           0       -7.762720   -2.095500    0.553419
      5          6           0       -6.163130   -1.810703   -0.718200
      6          1           0       -5.213983   -1.948941   -0.194536
      7          6           0       -6.066667   -0.712172   -1.791975
      8          6           0       -6.694642   -3.162855   -1.278429
      9          1           0       -7.495497   -2.942121   -1.993656
     10          8           0       -6.966019    0.138137   -1.839876
     11          6           0       -5.602088   -3.985544   -1.944247
     12          1           0       -5.210823   -3.488662   -2.835262
     13          1           0       -6.013762   -4.948105   -2.256040
     14          1           0       -4.766535   -4.152571   -1.255831
     15          8           0       -7.334231   -3.855020   -0.204188
     16          1           0       -6.708383   -4.475842    0.195666
     17          7           0       -5.009464   -0.792576   -2.586268
     18          1           0       -4.326745   -1.538268   -2.475891
     19          6           0       -4.654368    0.143145   -3.642211
     20          1           0       -5.476247    0.200903   -4.366376
     21          6           0       -3.447007   -0.528024   -4.330906
     22          6           0       -4.389623    1.569889   -3.089472
     23          1           0       -4.088275    2.215834   -3.920500
     24          1           0       -5.354386    1.950108   -2.744616
     25          8           0       -3.125692   -1.681918   -4.019421
     26          6           0       -3.373959    1.632376   -1.971609
     27          6           0       -3.776779    1.416019   -0.645699
     28          1           0       -4.830781    1.258807   -0.431385
     29          6           0       -2.025229    1.909284   -2.225914
     30          1           0       -1.683210    2.088357   -3.239450
     31          6           0       -2.851051    1.455665    0.396354
     32          1           0       -3.177444    1.296927    1.420063
     33          6           0       -1.095024    1.962210   -1.183825
     34          1           0       -0.049846    2.174657   -1.391609
     35          6           0       -1.507659    1.727176    0.128972
     36          1           0       -0.785452    1.763214    0.935702
     37          7           0       -2.797161    0.181154   -5.268683
     38          1           0       -3.019916    1.158870   -5.392198
     39          6           0       -1.507374   -0.278693   -5.815054
     40          1           0       -1.609829   -1.349098   -6.006463
     41          6           0       -0.463886   -0.018257   -4.710327
     42          6           0       -1.175267    0.477900   -7.091254
     43          1           0       -0.248473    0.091256   -7.520721
     44          1           0       -1.018951    1.536797   -6.870270
     45          1           0       -1.974663    0.363813   -7.827210
     46          8           0        0.020141    1.107640   -4.567356
     47          7           0       -0.218770   -1.056171   -3.884329
     48          1           0       -0.743046   -1.906050   -4.039629
     49          6           0        0.445732   -0.892401   -2.586650
     50          1           0        0.168340    0.099213   -2.218777
     51          6           0        1.985538   -0.852904   -2.661062
     52          6           0       -0.018501   -1.933543   -1.575338
     53          1           0        0.586644   -1.800344   -0.678506
     54          1           0        0.206538   -2.943582   -1.934070
     55          8           0        2.676505   -1.629749   -2.014229
     56          6           0       -1.501158   -1.800947   -1.209152
     57          1           0       -1.784196   -0.743651   -1.130630
     58          1           0       -2.159249   -2.237489   -1.963432
     59          6           0       -1.805155   -2.413285    0.130681
     60          8           0       -1.026866   -2.662625    1.016387
     61          8           0       -3.154361   -2.667392    0.306768
     62          7           0        2.494666    0.194409   -3.374527
     63          1           0        1.797465    0.860431   -3.700029
     64          6           0        3.722895    0.792008   -2.857503
     65          1           0        4.504811    0.029076   -2.857490
     66          6           0        3.432041    1.234981   -1.403898
     67          6           0        4.132472    1.987130   -3.715037
     68          1           0        5.063109    2.422123   -3.341775
     69          1           0        3.357723    2.759636   -3.681071
     70          1           0        4.281030    1.680380   -4.753440
     71          8           0        2.329758    1.710554   -1.105907
     72          7           0        4.431847    1.045864   -0.530360
     73          1           0        5.343867    0.720363   -0.831951
     74          6           0        4.357765    1.362040    0.884342
     75          1           0        3.605540    2.143023    1.019286
     76          6           0        5.752763    1.858542    1.291933
     77          6           0        4.013768    0.116413    1.735548
     78          1           0        4.840192   -0.594540    1.614523
     79          1           0        4.012082    0.416561    2.791702
     80          8           0        6.747102    1.503191    0.651665
     81          6           0        2.690331   -0.587402    1.397614
     82          1           0        2.700325   -0.823233    0.327605
     83          6           0        2.593317   -1.913534    2.162323
     84          1           0        2.597482   -1.744121    3.246122
     85          1           0        3.434205   -2.572486    1.923198
     86          1           0        1.667097   -2.439190    1.909515
     87          6           0        1.471739    0.295498    1.689767
     88          1           0        1.446551    0.588901    2.747000
     89          1           0        0.547616   -0.254021    1.477956
     90          1           0        1.484093    1.194360    1.069161
     91          7           0        5.793136    2.631029    2.389475
     92          1           0        4.963547    2.863497    2.931551
     93          6           0        7.019364    3.017719    3.068200
     94          1           0        7.653936    2.136906    3.213166
     95          6           0        6.608765    3.583238    4.448306
     96          6           0        7.825873    4.051757    2.251619
     97          1           0        8.034422    3.596326    1.281547
     98          1           0        8.793820    4.183438    2.747963
     99          8           0        7.582836    3.882667    5.225445
    100          6           0        7.108561    5.411682    2.067264
    101          1           0        6.078691    5.343433    2.435387
    102          1           0        7.044632    5.665582    1.003781
    103          6           0        7.806094    6.585185    2.772351
    104          1           0        7.271969    7.516295    2.566787
    105          1           0        8.825595    6.706232    2.392147
    106          7           0        7.890557    6.377487    4.223020
    107          1           0        8.183768    5.425705    4.496815
    108          7           0        6.425933    8.071492    4.900615
    109          1           0        5.839273    8.460307    5.621132
    110          1           0        6.873393    8.733005    4.286569
    111          7           0        6.797788    6.176636    6.225264
    112          1           0        7.000498    5.140109    6.132553
    113          1           0        6.153135    6.522955    6.917775
    114          6           0        7.027625    6.875535    5.119552
    115          8           0        5.399273    3.780262    4.664267
    116          1           0       -3.202385   -3.040111    1.204975
 ---------------------------------------------------------------------

 SCF Done:  E(RB3LYP) =  -2782.67803195     A.U. after    2 cycles

 Alpha  occ. eigenvalues --  -19.30537 -19.30144 -19.26852 -19.24485 -19.23679
 Alpha  occ. eigenvalues --  -19.20786 -19.17443 -19.16040 -19.14912 -19.12986
 Alpha  occ. eigenvalues --  -19.12654 -14.59365 -14.49745 -14.48132 -14.45094
 Alpha  occ. eigenvalues --  -14.44980 -14.42185 -14.41667 -14.40152 -14.39745
 Alpha  occ. eigenvalues --  -14.38440 -10.43619 -10.41552 -10.41263 -10.39682
 Alpha  occ. eigenvalues --  -10.39608 -10.39519 -10.37639 -10.36157 -10.34002
 Alpha  occ. eigenvalues --  -10.33438 -10.32954 -10.31867 -10.31145 -10.30475
 Alpha  occ. eigenvalues --  -10.30232 -10.30205 -10.28805 -10.28718 -10.28516
 Alpha  occ. eigenvalues --  -10.28026 -10.27971 -10.27569 -10.26958 -10.26912
 Alpha  occ. eigenvalues --  -10.26901 -10.26675 -10.26400 -10.26321 -10.25077
 Alpha  occ. eigenvalues --  -10.23498 -10.23496 -10.22232 -10.22134 -10.21845
 Alpha  occ. eigenvalues --  -10.20558 -10.20234  -1.20233  -1.19570  -1.17865
 Alpha  occ. eigenvalues --   -1.16411  -1.13256  -1.12619  -1.11187  -1.09402
 Alpha  occ. eigenvalues --   -1.08517  -1.07698  -1.06918  -1.06726  -1.05940
 Alpha  occ. eigenvalues --   -1.04401  -1.01337  -0.98292  -0.97259  -0.97142
 Alpha  occ. eigenvalues --   -0.96726  -0.96007  -0.94995  -0.94583  -0.93223
 Alpha  occ. eigenvalues --   -0.90055  -0.88715  -0.86660  -0.85452  -0.84784
 Alpha  occ. eigenvalues --   -0.83743  -0.83110  -0.82836  -0.82696  -0.80917
 Alpha  occ. eigenvalues --   -0.79353  -0.78072  -0.77078  -0.77037  -0.74985
 Alpha  occ. eigenvalues --   -0.73866  -0.73101  -0.72275  -0.71967  -0.71905
 Alpha  occ. eigenvalues --   -0.71533  -0.70497  -0.70183  -0.69997  -0.68985
 Alpha  occ. eigenvalues --   -0.68258  -0.67494  -0.66795  -0.66776  -0.66124
 Alpha  occ. eigenvalues --   -0.65342  -0.64946  -0.64775  -0.63493  -0.62771
 Alpha  occ. eigenvalues --   -0.62439  -0.61875  -0.61624  -0.61039  -0.60321
 Alpha  occ. eigenvalues --   -0.59816  -0.59641  -0.59152  -0.58916  -0.58603
 Alpha  occ. eigenvalues --   -0.58554  -0.58177  -0.58037  -0.57601  -0.57325
 Alpha  occ. eigenvalues --   -0.56833  -0.56452  -0.56134  -0.55774  -0.55022
 Alpha  occ. eigenvalues --   -0.54854  -0.54737  -0.54454  -0.53792  -0.53327
 Alpha  occ. eigenvalues --   -0.52972  -0.52734  -0.51763  -0.51313  -0.51145
 Alpha  occ. eigenvalues --   -0.51084  -0.50877  -0.50872  -0.50553  -0.50445
 Alpha  occ. eigenvalues --   -0.50145  -0.49959  -0.49851  -0.49659  -0.48945
 Alpha  occ. eigenvalues --   -0.48831  -0.48539  -0.48323  -0.48088  -0.47732
 Alpha  occ. eigenvalues --   -0.47693  -0.47577  -0.47380  -0.47088  -0.46620
 Alpha  occ. eigenvalues --   -0.46489  -0.46165  -0.45717  -0.45632  -0.45451
 Alpha  occ. eigenvalues --   -0.45282  -0.44573  -0.44450  -0.43941  -0.43872
 Alpha  occ. eigenvalues --   -0.43478  -0.42816  -0.42791  -0.42437  -0.42355
 Alpha  occ. eigenvalues --   -0.41994  -0.41978  -0.41815  -0.41747  -0.41523
 Alpha  occ. eigenvalues --   -0.41200  -0.40905  -0.40894  -0.40756  -0.40441
 Alpha  occ. eigenvalues --   -0.39921  -0.39541  -0.39031  -0.38940  -0.38369
 Alpha  occ. eigenvalues --   -0.38150  -0.37609  -0.37133  -0.35831  -0.35587
 Alpha  occ. eigenvalues --   -0.35531  -0.35481  -0.35335  -0.34125  -0.33408
 Alpha  occ. eigenvalues --   -0.33052  -0.32148  -0.31636  -0.30419  -0.30256
 Alpha  occ. eigenvalues --   -0.29250  -0.29063  -0.28709  -0.28222  -0.27356
 Alpha  occ. eigenvalues --   -0.26738
 Alpha virt. eigenvalues --   -0.12677  -0.10680  -0.10376  -0.09245  -0.08816
 Alpha virt. eigenvalues --   -0.08273  -0.07004  -0.05707  -0.04815  -0.04640
 Alpha virt. eigenvalues --   -0.04462  -0.03294  -0.02695  -0.01999  -0.01586

 Mulliken charges:
               1
     1  N   -0.540505
     2  H    0.350604
     3  H    0.359540
     4  H    0.355651
     5  C   -0.126645
     6  H    0.183891
     7  C    0.647059
     8  C    0.167778
     9  H    0.147265
    10  O   -0.547676
    11  C   -0.377035
    12  H    0.151513
    13  H    0.159174
    14  H    0.135938
    15  O   -0.547031
    16  H    0.334413
    17  N   -0.525322
    18  H    0.314789
    19  C    0.000162
    20  H    0.166814
    21  C    0.628528
    22  C   -0.285689
    23  H    0.117107
    24  H    0.156773
    25  O   -0.562353
    26  C    0.127348
    27  C   -0.129549
    28  H    0.052957
    29  C   -0.138564
    30  H    0.106876
    31  C   -0.095067
    32  H    0.085371
    33  C   -0.121033
    34  H    0.161520
    35  C   -0.091462
    36  H    0.123073
    37  N   -0.518021
    38  H    0.282460
    39  C   -0.022835
    40  H    0.139176
    41  C    0.627104
    42  C   -0.336234
    43  H    0.145144
    44  H    0.142706
    45  H    0.124297
    46  O   -0.545809
    47  N   -0.508399
    48  H    0.282548
    49  C   -0.050821
    50  H    0.159575
    51  C    0.615384
    52  C   -0.213300
    53  H    0.183537
    54  H    0.124418
    55  O   -0.511127
    56  C   -0.294094
    57  H    0.164564
    58  H    0.135602
    59  C    0.584930
    60  O   -0.427672
    61  O   -0.525885
    62  N   -0.518787
    63  H    0.294715
    64  C   -0.015790
    65  H    0.132461
    66  C    0.614151
    67  C   -0.332247
    68  H    0.125933
    69  H    0.123698
    70  H    0.126056
    71  O   -0.567133
    72  N   -0.502867
    73  H    0.282504
    74  C   -0.034657
    75  H    0.125929
    76  C    0.602515
    77  C   -0.149810
    78  H    0.105710
    79  H    0.100700
    80  O   -0.556649
    81  C   -0.077251
    82  H    0.122020
    83  C   -0.320849
    84  H    0.094109
    85  H    0.103161
    86  H    0.109726
    87  C   -0.338239
    88  H    0.089336
    89  H    0.085726
    90  H    0.128080
    91  N   -0.528514
    92  H    0.279614
    93  C    0.004026
    94  H    0.132209
    95  C    0.586998
    96  C   -0.203676
    97  H    0.140221
    98  H    0.107198
    99  O   -0.644993
   100  C   -0.188071
   101  H    0.122806
   102  H    0.106667
   103  C   -0.081471
   104  H    0.099649
   105  H    0.133083
   106  N   -0.522873
   107  H    0.319480
   108  N   -0.617615
   109  H    0.291475
   110  H    0.296858
   111  N   -0.605355
   112  H    0.349378
   113  H    0.273486
   114  C    0.742978
   115  O   -0.571931
   116  H    0.322656
 Sum of Mulliken charges =   1.00000

 Dipole moment (field-independent basis, Debye):
    X=            -22.1366    Y=              5.2148    Z=             -3.4685  Tot=             23.0055
 Quadrupole moment (field-independent basis, Debye-Ang):
   XX=           -160.2477   YY=           -195.8038   ZZ=           -256.6853
   XY=            130.0115   XZ=             27.2870   YZ=             55.3455

 Normal termination of Gaussian 16 at Thu Sep  8 18:22:38 2022.
