 Gaussian 16, Revision C.01,
 Gaussian 16:  ES64L-G16RevC.01  3-Jul-2019

 ----------------------------------------------------------------------
 # B3LYP/6-31G** empiricaldispersion=gd3bj guess=read geom=check nosymm
  integral(ultrafinegrid)
 ----------------------------------------------------------------------

 -----------------------------------------------------
 Candidate Structure: Conf:95 Charge calc in gas phase
 -----------------------------------------------------
 Structure from the checkpoint file:  "conf-95.chk"
 Charge =  1 Multiplicity = 1

                          Input orientation:
 ---------------------------------------------------------------------
 Center     Atomic      Atomic             Coordinates (Angstroms)
 Number     Number       Type             X           Y           Z
 ---------------------------------------------------------------------
      1          7           0       -6.594070   -4.092950   -2.181534
      2          1           0       -7.321022   -3.374516   -2.321655
      3          1           0       -6.574949   -4.678169   -3.041807
      4          1           0       -6.740859   -4.640521   -1.323502
      5          6           0       -5.228850   -3.476622   -2.127903
      6          1           0       -5.292532   -2.525977   -1.596061
      7          6           0       -4.866158   -3.290609   -3.606573
      8          6           0       -4.297967   -4.465186   -1.395222
      9          1           0       -4.177227   -5.348782   -2.032585
     10          8           0       -5.329829   -4.101703   -4.416537
     11          6           0       -2.941804   -3.842576   -1.102009
     12          1           0       -2.439539   -3.549670   -2.028057
     13          1           0       -2.310087   -4.561161   -0.575705
     14          1           0       -3.055822   -2.942229   -0.487903
     15          8           0       -4.981351   -4.929822   -0.229178
     16          1           0       -4.751977   -4.357426    0.516792
     17          7           0       -4.098606   -2.239073   -3.873665
     18          1           0       -3.844072   -1.616639   -3.102128
     19          6           0       -3.969214   -1.701060   -5.214141
     20          1           0       -4.090108   -2.529835   -5.916982
     21          6           0       -2.547128   -1.122123   -5.304349
     22          6           0       -5.081574   -0.625774   -5.448700
     23          1           0       -4.741959    0.308483   -4.991887
     24          1           0       -5.190670   -0.460990   -6.526457
     25          8           0       -1.670651   -1.502229   -4.535460
     26          6           0       -6.409726   -1.035346   -4.854150
     27          6           0       -7.295991   -1.866753   -5.549880
     28          1           0       -7.053362   -2.179026   -6.561120
     29          6           0       -6.733593   -0.655625   -3.544811
     30          1           0       -6.046749   -0.025723   -2.988177
     31          6           0       -8.473935   -2.315752   -4.955163
     32          1           0       -9.150267   -2.954834   -5.513430
     33          6           0       -7.914589   -1.099854   -2.941966
     34          1           0       -8.166177   -0.768221   -1.938206
     35          6           0       -8.789940   -1.935317   -3.646625
     36          1           0       -9.724093   -2.256504   -3.195019
     37          7           0       -2.330490   -0.132012   -6.216094
     38          1           0       -3.146254    0.265296   -6.660186
     39          6           0       -1.284124    0.832969   -5.888812
     40          1           0       -0.320921    0.316602   -5.905635
     41          6           0       -1.553436    1.345261   -4.454851
     42          6           0       -1.291465    1.985503   -6.892280
     43          1           0       -0.495432    2.696625   -6.660535
     44          1           0       -2.244750    2.522815   -6.852046
     45          1           0       -1.135958    1.611402   -7.907211
     46          8           0       -2.701576    1.400272   -4.000371
     47          7           0       -0.469198    1.711042   -3.752295
     48          1           0        0.468934    1.676095   -4.136120
     49          6           0       -0.556887    2.197797   -2.389043
     50          1           0       -1.503468    2.729240   -2.272081
     51          6           0        0.642860    3.116748   -2.156970
     52          6           0       -0.457447    1.048817   -1.355050
     53          1           0       -0.505145    1.470454   -0.347760
     54          1           0        0.537031    0.603426   -1.451090
     55          8           0        1.681645    2.951132   -2.790412
     56          6           0       -1.481131   -0.073978   -1.532555
     57          1           0       -1.386877   -0.559839   -2.507602
     58          1           0       -1.278092   -0.856437   -0.788819
     59          6           0       -2.931569    0.285691   -1.362242
     60          8           0       -3.867409   -0.458022   -1.647633
     61          8           0       -3.143153    1.475490   -0.792033
     62          7           0        0.485464    4.050146   -1.177869
     63          1           0       -0.314472    3.910715   -0.571589
     64          6           0        1.669565    4.528864   -0.465253
     65          1           0        2.441510    4.709265   -1.215566
     66          6           0        2.101797    3.397949    0.487730
     67          6           0        1.352047    5.803866    0.313506
     68          1           0        2.246291    6.166942    0.826748
     69          1           0        0.586494    5.606236    1.070504
     70          1           0        0.992708    6.584826   -0.360691
     71          8           0        1.244857    2.733015    1.076831
     72          7           0        3.426608    3.199729    0.597582
     73          1           0        4.092966    3.835237    0.173181
     74          6           0        4.023128    2.181483    1.442079
     75          1           0        3.300723    1.924213    2.220690
     76          6           0        5.289424    2.797587    2.049085
     77          6           0        4.420012    0.926175    0.630899
     78          1           0        5.187475    1.233958   -0.089847
     79          1           0        4.899299    0.212477    1.313248
     80          8           0        5.861691    3.736997    1.489564
     81          6           0        3.272848    0.227242   -0.115963
     82          1           0        2.778949    0.980451   -0.743766
     83          6           0        3.844376   -0.851463   -1.044643
     84          1           0        4.362727   -1.628742   -0.471142
     85          1           0        4.558890   -0.428634   -1.758060
     86          1           0        3.047347   -1.338759   -1.616428
     87          6           0        2.237395   -0.369392    0.844946
     88          1           0        2.710951   -1.081938    1.531029
     89          1           0        1.467758   -0.917442    0.288663
     90          1           0        1.737417    0.407937    1.426313
     91          7           0        5.739656    2.207374    3.169484
     92          1           0        5.269954    1.416396    3.599594
     93          6           0        7.014481    2.539186    3.776149
     94          1           0        7.773471    2.585620    2.987941
     95          6           0        7.365124    1.364153    4.708566
     96          6           0        6.997607    3.902903    4.528919
     97          1           0        7.498525    3.784652    5.491896
     98          1           0        5.955805    4.140128    4.759190
     99          8           0        8.613659    1.302873    5.134747
    100          6           0        7.658911    5.045851    3.730573
    101          1           0        6.896185    5.659007    3.244446
    102          1           0        8.227978    4.621440    2.901256
    103          6           0        8.554881    5.999400    4.545732
    104          1           0        7.927069    6.711018    5.091387
    105          1           0        9.160661    6.589456    3.844552
    106          7           0        9.398147    5.368034    5.561083
    107          1           0        9.606758    5.915592    6.382293
    108          7           0       10.109763    3.373105    4.452966
    109          1           0        9.220743    2.031031    4.748645
    110          1           0        9.982081    3.895211    3.592487
    111          7           0       10.373223    3.643460    6.729771
    112          1           0        9.758683    3.803607    7.516059
    113          1           0       10.751237    2.707154    6.684464
    114          6           0        9.962853    4.126992    5.505309
    115          8           0        6.517418    0.550062    5.028793
    116          1           0       -4.104942    1.610020   -0.744550
 ---------------------------------------------------------------------

 SCF Done:  E(RB3LYP) =  -2782.67984312     A.U. after    3 cycles

 Alpha  occ. eigenvalues --  -19.30024 -19.28167 -19.24684 -19.23766 -19.21263
 Alpha  occ. eigenvalues --  -19.20864 -19.20200 -19.19900 -19.17891 -19.17426
 Alpha  occ. eigenvalues --  -19.17041 -14.56797 -14.46570 -14.44853 -14.44385
 Alpha  occ. eigenvalues --  -14.43319 -14.42216 -14.42035 -14.41288 -14.40495
 Alpha  occ. eigenvalues --  -14.35271 -10.42765 -10.40637 -10.38230 -10.37251
 Alpha  occ. eigenvalues --  -10.37171 -10.37153 -10.36557 -10.35491 -10.35279
 Alpha  occ. eigenvalues --  -10.34927 -10.34367 -10.33674 -10.32171 -10.31289
 Alpha  occ. eigenvalues --  -10.30130 -10.29831 -10.29604 -10.29453 -10.29265
 Alpha  occ. eigenvalues --  -10.29216 -10.29048 -10.29027 -10.28952 -10.28843
 Alpha  occ. eigenvalues --  -10.28759 -10.28751 -10.28498 -10.27246 -10.27144
 Alpha  occ. eigenvalues --  -10.25236 -10.24569 -10.24409 -10.24255 -10.24181
 Alpha  occ. eigenvalues --  -10.22445 -10.22204  -1.21185  -1.16808  -1.15289
 Alpha  occ. eigenvalues --   -1.13715  -1.12656  -1.12180  -1.11676  -1.11422
 Alpha  occ. eigenvalues --   -1.10834  -1.09921  -1.09032  -1.04893  -1.04319
 Alpha  occ. eigenvalues --   -1.04225  -1.01719  -1.00973  -1.00146  -0.98838
 Alpha  occ. eigenvalues --   -0.98048  -0.95814  -0.95215  -0.91300  -0.90659
 Alpha  occ. eigenvalues --   -0.89280  -0.88720  -0.86890  -0.86140  -0.85077
 Alpha  occ. eigenvalues --   -0.84746  -0.84534  -0.84093  -0.81924  -0.81558
 Alpha  occ. eigenvalues --   -0.80807  -0.78724  -0.76766  -0.75157  -0.74634
 Alpha  occ. eigenvalues --   -0.73455  -0.73341  -0.73128  -0.72224  -0.71501
 Alpha  occ. eigenvalues --   -0.70880  -0.70162  -0.70064  -0.69300  -0.68985
 Alpha  occ. eigenvalues --   -0.68359  -0.67999  -0.67385  -0.67045  -0.66003
 Alpha  occ. eigenvalues --   -0.65041  -0.64305  -0.64105  -0.63893  -0.63052
 Alpha  occ. eigenvalues --   -0.62984  -0.62425  -0.61484  -0.61044  -0.60990
 Alpha  occ. eigenvalues --   -0.60830  -0.60285  -0.59328  -0.58558  -0.58427
 Alpha  occ. eigenvalues --   -0.58003  -0.57923  -0.57751  -0.57288  -0.56619
 Alpha  occ. eigenvalues --   -0.56156  -0.55804  -0.55566  -0.55324  -0.54805
 Alpha  occ. eigenvalues --   -0.54455  -0.54283  -0.53907  -0.53553  -0.53334
 Alpha  occ. eigenvalues --   -0.52994  -0.52690  -0.52591  -0.51880  -0.51787
 Alpha  occ. eigenvalues --   -0.51605  -0.51535  -0.51312  -0.50686  -0.50485
 Alpha  occ. eigenvalues --   -0.50210  -0.50050  -0.49795  -0.49425  -0.49343
 Alpha  occ. eigenvalues --   -0.49314  -0.48941  -0.48895  -0.48626  -0.48432
 Alpha  occ. eigenvalues --   -0.48262  -0.47830  -0.47686  -0.47495  -0.47193
 Alpha  occ. eigenvalues --   -0.46914  -0.46595  -0.46271  -0.46111  -0.45908
 Alpha  occ. eigenvalues --   -0.45643  -0.45548  -0.45298  -0.44933  -0.44819
 Alpha  occ. eigenvalues --   -0.44440  -0.44202  -0.44121  -0.43904  -0.43732
 Alpha  occ. eigenvalues --   -0.43503  -0.43330  -0.43077  -0.42688  -0.42351
 Alpha  occ. eigenvalues --   -0.42237  -0.41816  -0.41741  -0.41343  -0.41186
 Alpha  occ. eigenvalues --   -0.40665  -0.39498  -0.39130  -0.38482  -0.38125
 Alpha  occ. eigenvalues --   -0.38056  -0.37662  -0.37569  -0.37186  -0.36128
 Alpha  occ. eigenvalues --   -0.35376  -0.35006  -0.34832  -0.34319  -0.34298
 Alpha  occ. eigenvalues --   -0.33998  -0.33630  -0.33593  -0.33059  -0.32543
 Alpha  occ. eigenvalues --   -0.31884  -0.31446  -0.31340  -0.30675  -0.30530
 Alpha  occ. eigenvalues --   -0.29486
 Alpha virt. eigenvalues --   -0.11489  -0.10802  -0.09931  -0.09543  -0.08083
 Alpha virt. eigenvalues --   -0.06286  -0.05944  -0.05479  -0.04140  -0.03630
 Alpha virt. eigenvalues --   -0.02939  -0.02555  -0.02264  -0.01888  -0.00956

 Mulliken charges:
               1
     1  N   -0.536611
     2  H    0.335232
     3  H    0.350728
     4  H    0.343098
     5  C   -0.105191
     6  H    0.167543
     7  C    0.633305
     8  C    0.164411
     9  H    0.145062
    10  O   -0.550858
    11  C   -0.364953
    12  H    0.163149
    13  H    0.151621
    14  H    0.116904
    15  O   -0.547830
    16  H    0.327834
    17  N   -0.510641
    18  H    0.329017
    19  C   -0.024596
    20  H    0.173256
    21  C    0.614714
    22  C   -0.285412
    23  H    0.157368
    24  H    0.121191
    25  O   -0.519319
    26  C    0.096831
    27  C   -0.085586
    28  H    0.107083
    29  C   -0.122172
    30  H    0.112710
    31  C   -0.084270
    32  H    0.116836
    33  C   -0.143782
    34  H    0.106255
    35  C   -0.134969
    36  H    0.112700
    37  N   -0.509763
    38  H    0.271533
    39  C   -0.017332
    40  H    0.145305
    41  C    0.622765
    42  C   -0.342040
    43  H    0.138727
    44  H    0.125408
    45  H    0.140746
    46  O   -0.569316
    47  N   -0.518888
    48  H    0.287429
    49  C   -0.028007
    50  H    0.143621
    51  C    0.601582
    52  C   -0.178216
    53  H    0.150461
    54  H    0.131420
    55  O   -0.529262
    56  C   -0.312811
    57  H    0.190533
    58  H    0.144777
    59  C    0.650522
    60  O   -0.538656
    61  O   -0.460192
    62  N   -0.497322
    63  H    0.273345
    64  C   -0.041301
    65  H    0.143117
    66  C    0.615722
    67  C   -0.324055
    68  H    0.128352
    69  H    0.123336
    70  H    0.131839
    71  O   -0.555158
    72  N   -0.507254
    73  H    0.283227
    74  C   -0.039490
    75  H    0.137143
    76  C    0.603836
    77  C   -0.151168
    78  H    0.105973
    79  H    0.105506
    80  O   -0.551641
    81  C   -0.066636
    82  H    0.100874
    83  C   -0.311977
    84  H    0.106801
    85  H    0.107120
    86  H    0.091505
    87  C   -0.327959
    88  H    0.098392
    89  H    0.076794
    90  H    0.136763
    91  N   -0.537472
    92  H    0.286100
    93  C   -0.006115
    94  H    0.135473
    95  C    0.579466
    96  C   -0.177516
    97  H    0.113289
    98  H    0.117714
    99  O   -0.524930
   100  C   -0.200441
   101  H    0.128957
   102  H    0.114829
   103  C   -0.050031
   104  H    0.116277
   105  H    0.123268
   106  N   -0.530053
   107  H    0.271306
   108  N   -0.678121
   109  H    0.381207
   110  H    0.234724
   111  N   -0.606261
   112  H    0.270564
   113  H    0.292749
   114  C    0.631533
   115  O   -0.484478
   116  H    0.331273
 Sum of Mulliken charges =   1.00000

 Dipole moment (field-independent basis, Debye):
    X=            -16.2562    Y=              0.9819    Z=             -6.0582  Tot=             17.3761
 Quadrupole moment (field-independent basis, Debye-Ang):
   XX=           -141.6861   YY=           -245.9174   ZZ=           -243.7082
   XY=            120.0975   XZ=             94.6613   YZ=             51.7383

 Normal termination of Gaussian 16 at Thu Sep  8 18:22:45 2022.
