 Gaussian 16, Revision C.01,
 Gaussian 16:  ES64L-G16RevC.01  3-Jul-2019

 ----------------------------------------------------------------------
 # B3LYP/6-31G** empiricaldispersion=gd3bj guess=read geom=check nosymm
  integral(ultrafinegrid)
 ----------------------------------------------------------------------

 ------------------------------------------------------
 Candidate Structure: Conf:961 Charge calc in gas phase
 ------------------------------------------------------
 Structure from the checkpoint file:  "conf-961.chk"
 Charge =  1 Multiplicity = 1

                          Input orientation:
 ---------------------------------------------------------------------
 Center     Atomic      Atomic             Coordinates (Angstroms)
 Number     Number       Type             X           Y           Z
 ---------------------------------------------------------------------
      1          7           0       -6.063003   -4.780230   -7.245927
      2          1           0       -5.799621   -5.613809   -6.695129
      3          1           0       -6.871504   -4.346564   -6.757851
      4          1           0       -6.260032   -5.001975   -8.229944
      5          6           0       -4.990613   -3.730869   -7.193429
      6          1           0       -4.024037   -4.232785   -7.261645
      7          6           0       -5.227317   -3.062350   -5.829549
      8          6           0       -5.193499   -2.784537   -8.385065
      9          1           0       -6.112908   -2.206747   -8.206545
     10          8           0       -6.394020   -3.006841   -5.428707
     11          6           0       -4.008247   -1.845224   -8.558996
     12          1           0       -3.868130   -1.220889   -7.671718
     13          1           0       -4.176874   -1.176597   -9.407445
     14          1           0       -3.092757   -2.413580   -8.746386
     15          8           0       -5.371136   -3.670167   -9.492447
     16          1           0       -5.572931   -3.159346  -10.287732
     17          7           0       -4.151904   -2.652816   -5.159744
     18          1           0       -3.215966   -2.633578   -5.558023
     19          6           0       -4.183250   -2.348094   -3.740202
     20          1           0       -5.142773   -1.885959   -3.501979
     21          6           0       -2.995879   -1.405532   -3.493169
     22          6           0       -3.978195   -3.654082   -2.897902
     23          1           0       -2.904686   -3.864397   -2.864943
     24          1           0       -4.300730   -3.451930   -1.872540
     25          8           0       -2.053704   -1.406799   -4.290961
     26          6           0       -4.700340   -4.851458   -3.470134
     27          6           0       -6.047187   -5.103157   -3.179360
     28          1           0       -6.574483   -4.452218   -2.488846
     29          6           0       -4.041815   -5.698682   -4.370487
     30          1           0       -2.990340   -5.531461   -4.587351
     31          6           0       -6.722763   -6.165220   -3.777096
     32          1           0       -7.763982   -6.347639   -3.532186
     33          6           0       -4.710323   -6.770818   -4.972901
     34          1           0       -4.168910   -7.444758   -5.631198
     35          6           0       -6.058951   -7.004325   -4.678462
     36          1           0       -6.575946   -7.852275   -5.117707
     37          7           0       -3.049245   -0.687870   -2.366782
     38          1           0       -3.817752   -0.753955   -1.701498
     39          6           0       -1.941499    0.117592   -1.876827
     40          1           0       -1.014022   -0.455217   -1.991264
     41          6           0       -2.234936    0.333853   -0.380768
     42          6           0       -1.811786    1.445234   -2.636145
     43          1           0       -0.967033    2.027115   -2.258704
     44          1           0       -2.722167    2.039513   -2.519857
     45          1           0       -1.647735    1.241806   -3.696016
     46          8           0       -3.335610    0.032239    0.092324
     47          7           0       -1.233668    0.875935    0.325510
     48          1           0       -0.321343    1.072383   -0.077302
     49          6           0       -1.309422    1.161701    1.748672
     50          1           0       -2.247345    1.677912    1.967810
     51          6           0       -0.108478    2.070891    2.043523
     52          6           0       -1.243100   -0.164326    2.550349
     53          1           0       -0.340241   -0.697747    2.241249
     54          1           0       -2.103608   -0.759397    2.232671
     55          8           0        0.878019    2.055100    1.299316
     56          6           0       -1.223089   -0.055781    4.089347
     57          1           0       -1.222279   -1.063524    4.508319
     58          1           0       -0.319437    0.455205    4.436673
     59          6           0       -2.407765    0.703832    4.625252
     60          8           0       -2.564075    1.913562    4.530123
     61          8           0       -3.323609   -0.078319    5.216174
     62          7           0       -0.197485    2.819105    3.158568
     63          1           0       -1.018046    2.693265    3.753922
     64          6           0        0.994823    3.436854    3.734825
     65          1           0        1.494064    4.005910    2.945222
     66          6           0        1.909305    2.300402    4.234867
     67          6           0        0.594113    4.345233    4.891966
     68          1           0        1.474349    4.846106    5.302750
     69          1           0        0.137961    3.748505    5.686050
     70          1           0       -0.115668    5.105389    4.556161
     71          8           0        1.528401    1.544434    5.132735
     72          7           0        3.096751    2.189028    3.610150
     73          1           0        3.326532    2.816368    2.852519
     74          6           0        4.017571    1.094102    3.840616
     75          1           0        3.781956    0.672977    4.820946
     76          6           0        5.447721    1.617953    3.830054
     77          6           0        3.911567   -0.009962    2.758022
     78          1           0        4.119824    0.460079    1.788339
     79          1           0        4.704190   -0.746546    2.938540
     80          8           0        5.725093    2.722089    3.330087
     81          6           0        2.552205   -0.721488    2.697682
     82          1           0        1.782612    0.048258    2.581002
     83          6           0        2.500526   -1.618041    1.454663
     84          1           0        3.275696   -2.391225    1.496113
     85          1           0        2.652787   -1.035283    0.539896
     86          1           0        1.531910   -2.125355    1.375873
     87          6           0        2.266056   -1.524071    3.971898
     88          1           0        3.068060   -2.245404    4.164827
     89          1           0        1.330588   -2.086763    3.872490
     90          1           0        2.163063   -0.869882    4.840889
     91          7           0        6.365214    0.786458    4.380010
     92          1           0        6.069271   -0.230414    4.561075
     93          6           0        7.666154    0.520525    3.712576
     94          1           0        7.545386    0.747037    2.645770
     95          6           0        7.803199   -1.065351    3.829459
     96          6           0        8.931593    1.230129    4.195933
     97          1           0        9.733378    0.570211    3.853637
     98          1           0        8.978273    1.214620    5.293238
     99          8           0        6.736708   -1.625946    4.245130
    100          6           0        9.160663    2.657159    3.646214
    101          1           0        8.512395    2.826102    2.779960
    102          1           0       10.191251    2.773593    3.292559
    103          6           0        8.910573    3.774606    4.665811
    104          1           0        8.963335    4.761420    4.196226
    105          1           0        9.664763    3.737537    5.456943
    106          7           0        7.586070    3.591955    5.277714
    107          1           0        6.852160    3.332433    4.598232
    108          7           0        8.176154    3.715564    7.525365
    109          1           0        8.289355    3.217960    8.393766
    110          1           0        8.785743    4.496058    7.342948
    111          7           0        6.427068    2.348135    6.835787
    112          1           0        6.235108    1.633801    6.118358
    113          1           0        6.165290    2.183018    7.795237
    114          6           0        7.404847    3.213030    6.538959
    115          8           0        8.887818   -1.545628    3.494648
    116          1           0       -4.042926    0.504887    5.516266
 ---------------------------------------------------------------------

 SCF Done:  E(RB3LYP) =  -2782.64433938     A.U. after    3 cycles

 Alpha  occ. eigenvalues --  -19.29338 -19.26380 -19.25404 -19.21205 -19.20984
 Alpha  occ. eigenvalues --  -19.19414 -19.18256 -19.18213 -19.16508 -19.09177
 Alpha  occ. eigenvalues --  -19.07806 -14.58001 -14.48753 -14.46854 -14.44826
 Alpha  occ. eigenvalues --  -14.44818 -14.44270 -14.43013 -14.41420 -14.41133
 Alpha  occ. eigenvalues --  -14.38136 -10.42617 -10.41778 -10.39257 -10.38894
 Alpha  occ. eigenvalues --  -10.38805 -10.38363 -10.36363 -10.34921 -10.34523
 Alpha  occ. eigenvalues --  -10.33884 -10.33658 -10.31496 -10.30620 -10.30374
 Alpha  occ. eigenvalues --  -10.30356 -10.30190 -10.30163 -10.30063 -10.29960
 Alpha  occ. eigenvalues --  -10.29734 -10.29591 -10.29535 -10.28952 -10.27791
 Alpha  occ. eigenvalues --  -10.26600 -10.25986 -10.25611 -10.25445 -10.23953
 Alpha  occ. eigenvalues --  -10.23681 -10.23504 -10.22343 -10.22268 -10.21532
 Alpha  occ. eigenvalues --  -10.21091 -10.20168  -1.18421  -1.17473  -1.16687
 Alpha  occ. eigenvalues --   -1.13330  -1.12089  -1.11345  -1.10581  -1.10093
 Alpha  occ. eigenvalues --   -1.09231  -1.08169  -1.08149  -1.05587  -1.02182
 Alpha  occ. eigenvalues --   -1.01580  -0.99835  -0.99618  -0.98727  -0.98429
 Alpha  occ. eigenvalues --   -0.97658  -0.96643  -0.95711  -0.92941  -0.92807
 Alpha  occ. eigenvalues --   -0.89865  -0.87373  -0.86037  -0.85334  -0.85111
 Alpha  occ. eigenvalues --   -0.84584  -0.84126  -0.83041  -0.82739  -0.79994
 Alpha  occ. eigenvalues --   -0.79078  -0.77869  -0.77591  -0.75955  -0.73870
 Alpha  occ. eigenvalues --   -0.72889  -0.72881  -0.72326  -0.71629  -0.71596
 Alpha  occ. eigenvalues --   -0.71191  -0.70791  -0.70612  -0.70122  -0.69041
 Alpha  occ. eigenvalues --   -0.68673  -0.67572  -0.67220  -0.66219  -0.66017
 Alpha  occ. eigenvalues --   -0.65681  -0.64731  -0.64483  -0.63954  -0.63449
 Alpha  occ. eigenvalues --   -0.63264  -0.62732  -0.61726  -0.60897  -0.60341
 Alpha  occ. eigenvalues --   -0.60064  -0.59385  -0.59157  -0.58654  -0.58650
 Alpha  occ. eigenvalues --   -0.58354  -0.57186  -0.56778  -0.56551  -0.56122
 Alpha  occ. eigenvalues --   -0.56026  -0.55813  -0.55552  -0.55088  -0.54614
 Alpha  occ. eigenvalues --   -0.54199  -0.53948  -0.53658  -0.52874  -0.52756
 Alpha  occ. eigenvalues --   -0.52613  -0.52287  -0.52111  -0.51987  -0.51766
 Alpha  occ. eigenvalues --   -0.51468  -0.51289  -0.51137  -0.50662  -0.50353
 Alpha  occ. eigenvalues --   -0.50041  -0.49854  -0.49410  -0.49180  -0.48456
 Alpha  occ. eigenvalues --   -0.48344  -0.48285  -0.47891  -0.47670  -0.47385
 Alpha  occ. eigenvalues --   -0.47246  -0.47090  -0.46986  -0.46759  -0.46131
 Alpha  occ. eigenvalues --   -0.45986  -0.45801  -0.45587  -0.45462  -0.44926
 Alpha  occ. eigenvalues --   -0.44709  -0.44523  -0.44464  -0.43995  -0.43942
 Alpha  occ. eigenvalues --   -0.43518  -0.43025  -0.42737  -0.42499  -0.42023
 Alpha  occ. eigenvalues --   -0.41791  -0.41761  -0.41608  -0.41433  -0.41276
 Alpha  occ. eigenvalues --   -0.40562  -0.40168  -0.39681  -0.39605  -0.39174
 Alpha  occ. eigenvalues --   -0.38855  -0.38405  -0.37849  -0.37573  -0.37155
 Alpha  occ. eigenvalues --   -0.36580  -0.36144  -0.35964  -0.35952  -0.35938
 Alpha  occ. eigenvalues --   -0.35787  -0.35013  -0.34737  -0.34509  -0.34236
 Alpha  occ. eigenvalues --   -0.33662  -0.33044  -0.32482  -0.32170  -0.31830
 Alpha  occ. eigenvalues --   -0.30953  -0.30119  -0.29369  -0.24226  -0.24081
 Alpha  occ. eigenvalues --   -0.21828
 Alpha virt. eigenvalues --   -0.12851  -0.11703  -0.11287  -0.07436  -0.07000
 Alpha virt. eigenvalues --   -0.06764  -0.06090  -0.05223  -0.04694  -0.04468
 Alpha virt. eigenvalues --   -0.04242  -0.03770  -0.02654  -0.02410  -0.01419

 Mulliken charges:
               1
     1  N   -0.537061
     2  H    0.336969
     3  H    0.351567
     4  H    0.351927
     5  C   -0.080655
     6  H    0.163009
     7  C    0.640735
     8  C    0.167137
     9  H    0.128579
    10  O   -0.537647
    11  C   -0.344985
    12  H    0.142718
    13  H    0.141233
    14  H    0.140229
    15  O   -0.562959
    16  H    0.341826
    17  N   -0.514977
    18  H    0.293151
    19  C   -0.022200
    20  H    0.156863
    21  C    0.613360
    22  C   -0.249110
    23  H    0.136075
    24  H    0.142128
    25  O   -0.549772
    26  C    0.109663
    27  C   -0.082279
    28  H    0.111896
    29  C   -0.128890
    30  H    0.104772
    31  C   -0.084757
    32  H    0.119844
    33  C   -0.153062
    34  H    0.117036
    35  C   -0.126229
    36  H    0.117440
    37  N   -0.530430
    38  H    0.290295
    39  C   -0.010528
    40  H    0.145506
    41  C    0.608024
    42  C   -0.312065
    43  H    0.126037
    44  H    0.123316
    45  H    0.141856
    46  O   -0.554167
    47  N   -0.540630
    48  H    0.290210
    49  C   -0.003867
    50  H    0.148559
    51  C    0.600775
    52  C   -0.200754
    53  H    0.134490
    54  H    0.140685
    55  O   -0.560384
    56  C   -0.291384
    57  H    0.139458
    58  H    0.190520
    59  C    0.596261
    60  O   -0.491658
    61  O   -0.462963
    62  N   -0.532277
    63  H    0.311821
    64  C   -0.000597
    65  H    0.117076
    66  C    0.614643
    67  C   -0.338923
    68  H    0.119864
    69  H    0.140961
    70  H    0.122786
    71  O   -0.549954
    72  N   -0.492412
    73  H    0.280927
    74  C   -0.031454
    75  H    0.141339
    76  C    0.563866
    77  C   -0.175262
    78  H    0.095746
    79  H    0.147456
    80  O   -0.559760
    81  C   -0.063821
    82  H    0.093350
    83  C   -0.318593
    84  H    0.120914
    85  H    0.096566
    86  H    0.081927
    87  C   -0.334490
    88  H    0.123288
    89  H    0.081839
    90  H    0.126356
    91  N   -0.597716
    92  H    0.319332
    93  C   -0.045751
    94  H    0.114276
    95  C    0.591942
    96  C   -0.187911
    97  H    0.159209
    98  H    0.069157
    99  O   -0.615648
   100  C   -0.206428
   101  H    0.129203
   102  H    0.114793
   103  C   -0.083263
   104  H    0.131452
   105  H    0.110385
   106  N   -0.512542
   107  H    0.335654
   108  N   -0.605549
   109  H    0.302523
   110  H    0.306145
   111  N   -0.616605
   112  H    0.337110
   113  H    0.287471
   114  C    0.730548
   115  O   -0.552012
   116  H    0.330310
 Sum of Mulliken charges =   1.00000

 Dipole moment (field-independent basis, Debye):
    X=            -19.2992    Y=             -3.3504    Z=            -16.3496  Tot=             25.5146
 Quadrupole moment (field-independent basis, Debye-Ang):
   XX=           -180.1755   YY=           -227.6970   ZZ=             -0.8062
   XY=            205.6002   XZ=            229.5194   YZ=            193.0316

 Normal termination of Gaussian 16 at Thu Sep  8 18:25:31 2022.
