 Gaussian 16, Revision C.01,
 Gaussian 16:  ES64L-G16RevC.01  3-Jul-2019

 ----------------------------------------------------------------------
 # B3LYP/6-31G** empiricaldispersion=gd3bj guess=read geom=check nosymm
  integral(ultrafinegrid)
 ----------------------------------------------------------------------

 ------------------------------------------------------
 Candidate Structure: Conf:796 Charge calc in gas phase
 ------------------------------------------------------
 Structure from the checkpoint file:  "conf-796.chk"
 Charge =  1 Multiplicity = 1

                          Input orientation:
 ---------------------------------------------------------------------
 Center     Atomic      Atomic             Coordinates (Angstroms)
 Number     Number       Type             X           Y           Z
 ---------------------------------------------------------------------
      1          7           0       -2.315165   -4.885983    0.878357
      2          1           0       -1.363450   -4.553394    1.476885
      3          1           0       -3.132631   -4.345257    1.179278
      4          1           0       -2.505982   -5.887279    0.956904
      5          6           0       -2.042973   -4.560459   -0.544049
      6          1           0       -0.986681   -4.770768   -0.728236
      7          6           0       -2.378377   -3.075583   -0.715136
      8          6           0       -2.906415   -5.430330   -1.470522
      9          1           0       -3.954208   -5.122891   -1.337313
     10          8           0       -3.396577   -2.632259   -0.189826
     11          6           0       -2.496661   -5.287433   -2.931434
     12          1           0       -2.606699   -4.256434   -3.279221
     13          1           0       -3.122673   -5.920656   -3.566719
     14          1           0       -1.454921   -5.594193   -3.064853
     15          8           0       -2.711247   -6.759654   -0.985755
     16          1           0       -3.320056   -7.353101   -1.444046
     17          7           0       -1.502570   -2.351020   -1.438944
     18          1           0       -0.742903   -2.797051   -1.944121
     19          6           0       -1.735007   -0.970075   -1.829967
     20          1           0       -2.807686   -0.772237   -1.763265
     21          6           0       -1.231131   -0.835798   -3.271501
     22          6           0       -0.963169    0.041242   -0.940603
     23          1           0        0.069727   -0.300695   -0.837603
     24          1           0       -0.935040    0.991978   -1.474601
     25          8           0       -0.334377   -1.574536   -3.687892
     26          6           0       -1.606750    0.252033    0.406839
     27          6           0       -2.351017    1.414603    0.649491
     28          1           0       -2.441342    2.158098   -0.137041
     29          6           0       -1.513505   -0.711195    1.419839
     30          1           0       -0.930886   -1.607976    1.249010
     31          6           0       -3.002953    1.600906    1.873779
     32          1           0       -3.593247    2.497449    2.039384
     33          6           0       -2.181717   -0.545177    2.631072
     34          1           0       -2.125988   -1.328300    3.380160
     35          6           0       -2.930902    0.614151    2.861293
     36          1           0       -3.479393    0.731915    3.792016
     37          7           0       -1.804657    0.149315   -3.993585
     38          1           0       -2.370665    0.831782   -3.500922
     39          6           0       -1.291125    0.567097   -5.299230
     40          1           0       -0.705034   -0.277837   -5.672873
     41          6           0       -0.345833    1.776521   -5.116716
     42          6           0       -2.431653    0.898944   -6.251340
     43          1           0       -2.036565    1.217976   -7.217050
     44          1           0       -3.035648    1.720985   -5.857951
     45          1           0       -3.068220    0.022886   -6.392134
     46          8           0       -0.551364    2.855872   -5.662319
     47          7           0        0.677688    1.548709   -4.252545
     48          1           0        0.903198    0.597253   -3.974490
     49          6           0        1.689109    2.534457   -3.906115
     50          1           0        2.327769    2.744239   -4.778611
     51          6           0        2.582079    1.823258   -2.874403
     52          6           0        1.106894    3.881244   -3.442814
     53          1           0        0.633666    4.354331   -4.302273
     54          1           0        1.934207    4.539799   -3.157366
     55          8           0        2.704892    0.599581   -2.893808
     56          6           0        0.085710    3.776848   -2.285244
     57          1           0        0.300589    2.933252   -1.625729
     58          1           0        0.132450    4.694625   -1.689583
     59          6           0       -1.337150    3.663247   -2.785075
     60          8           0       -2.093914    2.724122   -2.595335
     61          8           0       -1.702404    4.752662   -3.470753
     62          7           0        3.226888    2.581209   -1.954084
     63          1           0        3.028265    3.565432   -1.875090
     64          6           0        3.979762    1.942284   -0.884633
     65          1           0        4.905408    1.523749   -1.297674
     66          6           0        3.130787    0.809684   -0.288083
     67          6           0        4.302222    2.960902    0.208331
     68          1           0        4.890806    2.490603    0.999333
     69          1           0        3.374173    3.338322    0.647420
     70          1           0        4.879129    3.797179   -0.196149
     71          8           0        1.968895    1.021182    0.086064
     72          7           0        3.729475   -0.379763   -0.162112
     73          1           0        4.633592   -0.513396   -0.589386
     74          6           0        2.989639   -1.557361    0.250421
     75          1           0        2.055847   -1.574362   -0.321173
     76          6           0        2.634941   -1.461376    1.751086
     77          6           0        3.827541   -2.807313   -0.085431
     78          1           0        4.225799   -2.658259   -1.098246
     79          1           0        4.687208   -2.845119    0.594823
     80          8           0        3.240993   -0.683399    2.499146
     81          6           0        3.098732   -4.163439   -0.070808
     82          1           0        2.742004   -4.368364    0.945059
     83          6           0        1.888486   -4.183305   -1.016204
     84          1           0        2.178272   -3.903909   -2.035526
     85          1           0        1.097629   -3.498239   -0.695083
     86          1           0        1.454589   -5.187340   -1.050348
     87          6           0        4.091462   -5.271003   -0.446137
     88          1           0        4.463070   -5.134509   -1.468109
     89          1           0        3.616047   -6.254489   -0.392205
     90          1           0        4.954358   -5.277904    0.227090
     91          7           0        1.645844   -2.298951    2.093830
     92          1           0        1.245233   -2.877741    1.361064
     93          6           0        1.097335   -2.727526    3.388823
     94          1           0        1.791533   -3.450035    3.843725
     95          6           0       -0.200569   -3.521542    3.034525
     96          6           0        0.794895   -1.620957    4.398964
     97          1           0        0.039847   -2.033030    5.071661
     98          1           0        0.301817   -0.815980    3.849553
     99          8           0       -0.175299   -4.045853    1.845468
    100          6           0        2.003378   -1.100601    5.198099
    101          1           0        2.933244   -1.327156    4.674562
    102          1           0        2.054137   -1.585800    6.178703
    103          6           0        1.952933    0.417092    5.421504
    104          1           0        2.854699    0.764750    5.931889
    105          1           0        1.109850    0.683713    6.063541
    106          7           0        1.846817    1.131165    4.140344
    107          1           0        2.500147    0.760993    3.442771
    108          7           0       -0.332726    1.957444    4.422053
    109          1           0       -1.254919    1.955766    4.004986
    110          1           0       -0.286921    1.785713    5.411978
    111          7           0        0.592287    1.818285    2.321388
    112          1           0        1.230831    1.394986    1.641496
    113          1           0       -0.306573    2.095346    1.948540
    114          6           0        0.703327    1.605315    3.632347
    115          8           0       -1.124091   -3.598873    3.839217
    116          1           0       -2.585544    4.588998   -3.842420
 ---------------------------------------------------------------------

 SCF Done:  E(RB3LYP) =  -2782.74381255     A.U. after    3 cycles

 Alpha  occ. eigenvalues --  -19.28431 -19.24953 -19.23496 -19.22163 -19.21595
 Alpha  occ. eigenvalues --  -19.21350 -19.20928 -19.20805 -19.20224 -19.19420
 Alpha  occ. eigenvalues --  -19.18039 -14.48195 -14.47596 -14.46851 -14.46334
 Alpha  occ. eigenvalues --  -14.46134 -14.45950 -14.45717 -14.44457 -14.44377
 Alpha  occ. eigenvalues --  -14.43498 -10.43519 -10.41600 -10.39010 -10.38634
 Alpha  occ. eigenvalues --  -10.38595 -10.38024 -10.37553 -10.36576 -10.36306
 Alpha  occ. eigenvalues --  -10.34328 -10.33814 -10.33570 -10.32732 -10.32601
 Alpha  occ. eigenvalues --  -10.32568 -10.32334 -10.31216 -10.30882 -10.29295
 Alpha  occ. eigenvalues --  -10.28616 -10.28491 -10.28242 -10.28065 -10.27990
 Alpha  occ. eigenvalues --  -10.27689 -10.27531 -10.27316 -10.27215 -10.27184
 Alpha  occ. eigenvalues --  -10.26976 -10.26961 -10.26827 -10.26336 -10.25936
 Alpha  occ. eigenvalues --  -10.24862 -10.24836  -1.19800  -1.14751  -1.13847
 Alpha  occ. eigenvalues --   -1.13437  -1.12837  -1.12626  -1.12305  -1.12291
 Alpha  occ. eigenvalues --   -1.11949  -1.11177  -1.10596  -1.04720  -1.03308
 Alpha  occ. eigenvalues --   -1.02916  -1.02767  -1.02290  -1.01806  -1.01497
 Alpha  occ. eigenvalues --   -1.00941  -1.00102  -1.00048  -0.94229  -0.90518
 Alpha  occ. eigenvalues --   -0.89720  -0.88698  -0.88163  -0.87319  -0.86865
 Alpha  occ. eigenvalues --   -0.85048  -0.84552  -0.82926  -0.82590  -0.82275
 Alpha  occ. eigenvalues --   -0.81711  -0.79006  -0.77432  -0.76679  -0.75769
 Alpha  occ. eigenvalues --   -0.75045  -0.74607  -0.73897  -0.73123  -0.72266
 Alpha  occ. eigenvalues --   -0.71094  -0.70119  -0.69954  -0.69281  -0.68939
 Alpha  occ. eigenvalues --   -0.68912  -0.68422  -0.68164  -0.67073  -0.66831
 Alpha  occ. eigenvalues --   -0.66178  -0.65753  -0.65082  -0.64793  -0.64705
 Alpha  occ. eigenvalues --   -0.64258  -0.63477  -0.62319  -0.61401  -0.60846
 Alpha  occ. eigenvalues --   -0.60587  -0.60315  -0.59882  -0.59534  -0.59115
 Alpha  occ. eigenvalues --   -0.58725  -0.58655  -0.57840  -0.57601  -0.57543
 Alpha  occ. eigenvalues --   -0.57185  -0.56904  -0.56517  -0.55810  -0.55215
 Alpha  occ. eigenvalues --   -0.55115  -0.54897  -0.54835  -0.54615  -0.54301
 Alpha  occ. eigenvalues --   -0.54049  -0.53813  -0.53678  -0.53402  -0.52970
 Alpha  occ. eigenvalues --   -0.52757  -0.52497  -0.51930  -0.51522  -0.51323
 Alpha  occ. eigenvalues --   -0.50994  -0.50797  -0.50584  -0.50404  -0.50230
 Alpha  occ. eigenvalues --   -0.49928  -0.49779  -0.49701  -0.49246  -0.49009
 Alpha  occ. eigenvalues --   -0.48802  -0.48724  -0.48558  -0.48238  -0.47888
 Alpha  occ. eigenvalues --   -0.47590  -0.47541  -0.47456  -0.47391  -0.46682
 Alpha  occ. eigenvalues --   -0.46619  -0.46499  -0.46394  -0.46155  -0.46042
 Alpha  occ. eigenvalues --   -0.45625  -0.45440  -0.45399  -0.45147  -0.45068
 Alpha  occ. eigenvalues --   -0.44454  -0.44373  -0.43789  -0.43781  -0.43563
 Alpha  occ. eigenvalues --   -0.42840  -0.42730  -0.42684  -0.42246  -0.42154
 Alpha  occ. eigenvalues --   -0.41793  -0.41476  -0.40952  -0.40832  -0.40818
 Alpha  occ. eigenvalues --   -0.38974  -0.37513  -0.37228  -0.36981  -0.36753
 Alpha  occ. eigenvalues --   -0.36654  -0.36274  -0.35921  -0.35503  -0.35395
 Alpha  occ. eigenvalues --   -0.35331  -0.35253  -0.34917  -0.34466  -0.34378
 Alpha  occ. eigenvalues --   -0.34114  -0.33600  -0.33413  -0.32583  -0.31611
 Alpha  occ. eigenvalues --   -0.31558
 Alpha virt. eigenvalues --   -0.10099  -0.09274  -0.09005  -0.08971  -0.08163
 Alpha virt. eigenvalues --   -0.07969  -0.07314  -0.07197  -0.06732  -0.04605
 Alpha virt. eigenvalues --   -0.04001  -0.03329  -0.02501  -0.02202  -0.01743

 Mulliken charges:
               1
     1  N   -0.607875
     2  H    0.431598
     3  H    0.319884
     4  H    0.321663
     5  C   -0.053761
     6  H    0.141224
     7  C    0.621266
     8  C    0.166044
     9  H    0.115684
    10  O   -0.528565
    11  C   -0.337567
    12  H    0.126586
    13  H    0.124375
    14  H    0.129594
    15  O   -0.557082
    16  H    0.328558
    17  N   -0.529854
    18  H    0.291327
    19  C   -0.021782
    20  H    0.151092
    21  C    0.596909
    22  C   -0.263279
    23  H    0.138883
    24  H    0.135106
    25  O   -0.552173
    26  C    0.117589
    27  C   -0.169234
    28  H    0.110402
    29  C   -0.097216
    30  H    0.080646
    31  C   -0.106352
    32  H    0.106169
    33  C   -0.096800
    34  H    0.133273
    35  C   -0.141534
    36  H    0.104486
    37  N   -0.506216
    38  H    0.296717
    39  C   -0.054933
    40  H    0.159561
    41  C    0.616120
    42  C   -0.298004
    43  H    0.138388
    44  H    0.112723
    45  H    0.115409
    46  O   -0.531856
    47  N   -0.563675
    48  H    0.304804
    49  C    0.033119
    50  H    0.155724
    51  C    0.605992
    52  C   -0.236896
    53  H    0.187858
    54  H    0.097163
    55  O   -0.537153
    56  C   -0.255840
    57  H    0.140597
    58  H    0.141542
    59  C    0.601312
    60  O   -0.505696
    61  O   -0.446317
    62  N   -0.531274
    63  H    0.274654
    64  C    0.018257
    65  H    0.123896
    66  C    0.658912
    67  C   -0.358287
    68  H    0.144141
    69  H    0.131731
    70  H    0.133687
    71  O   -0.591270
    72  N   -0.503296
    73  H    0.277987
    74  C   -0.013935
    75  H    0.144085
    76  C    0.624655
    77  C   -0.204462
    78  H    0.116779
    79  H    0.119389
    80  O   -0.578894
    81  C   -0.084772
    82  H    0.110354
    83  C   -0.326951
    84  H    0.123036
    85  H    0.084241
    86  H    0.116805
    87  C   -0.315413
    88  H    0.110747
    89  H    0.114836
    90  H    0.111182
    91  N   -0.549550
    92  H    0.315823
    93  C    0.001099
    94  H    0.142826
    95  C    0.610143
    96  C   -0.197168
    97  H    0.148631
    98  H    0.094640
    99  O   -0.664791
   100  C   -0.201747
   101  H    0.143620
   102  H    0.117855
   103  C   -0.089096
   104  H    0.145287
   105  H    0.104669
   106  N   -0.509559
   107  H    0.320836
   108  N   -0.605350
   109  H    0.294130
   110  H    0.296315
   111  N   -0.631984
   112  H    0.349305
   113  H    0.287947
   114  C    0.730938
   115  O   -0.523633
   116  H    0.338266
 Sum of Mulliken charges =   1.00000

 Dipole moment (field-independent basis, Debye):
    X=              1.9410    Y=             -0.6574    Z=              2.1373  Tot=              2.9611
 Quadrupole moment (field-independent basis, Debye-Ang):
   XX=           -278.2271   YY=           -250.2664   ZZ=           -283.3587
   XY=             22.8438   XZ=             13.1864   YZ=             21.3224

 Normal termination of Gaussian 16 at Thu Sep  8 18:24:31 2022.
