 Gaussian 16, Revision C.01,
 Gaussian 16:  ES64L-G16RevC.01  3-Jul-2019

 ----------------------------------------------------------------------
 # B3LYP/6-31G** empiricaldispersion=gd3bj guess=read geom=check nosymm
  integral(ultrafinegrid)
 ----------------------------------------------------------------------

 ------------------------------------------------------
 Candidate Structure: Conf:684 Charge calc in gas phase
 ------------------------------------------------------
 Structure from the checkpoint file:  "conf-684.chk"
 Charge =  1 Multiplicity = 1

                          Input orientation:
 ---------------------------------------------------------------------
 Center     Atomic      Atomic             Coordinates (Angstroms)
 Number     Number       Type             X           Y           Z
 ---------------------------------------------------------------------
      1          7           0       -8.580715   -0.945657   -6.486949
      2          1           0       -9.268815   -1.617718   -6.144468
      3          1           0       -8.499093   -0.155574   -5.795628
      4          1           0       -8.825922   -0.649183   -7.444257
      5          6           0       -7.184024   -1.498246   -6.520859
      6          1           0       -7.231027   -2.587275   -6.577548
      7          6           0       -6.551929   -0.973998   -5.212589
      8          6           0       -6.479957   -0.922012   -7.772929
      9          1           0       -6.233459    0.130861   -7.568537
     10          8           0       -7.119307   -0.025719   -4.651801
     11          6           0       -5.222000   -1.695515   -8.143713
     12          1           0       -4.460129   -1.638559   -7.361978
     13          1           0       -4.784624   -1.271196   -9.051887
     14          1           0       -5.461098   -2.744759   -8.338914
     15          8           0       -7.484418   -0.998119   -8.788813
     16          1           0       -7.161352   -0.579190   -9.598028
     17          7           0       -5.426659   -1.556562   -4.829400
     18          1           0       -4.980011   -2.305102   -5.361674
     19          6           0       -4.571397   -1.092561   -3.743711
     20          1           0       -4.654305   -0.005854   -3.662881
     21          6           0       -3.156973   -1.511664   -4.180421
     22          6           0       -4.980216   -1.747628   -2.395716
     23          1           0       -6.008101   -1.430837   -2.190255
     24          1           0       -4.989401   -2.832658   -2.539825
     25          8           0       -3.022093   -2.411879   -5.021350
     26          6           0       -4.060179   -1.376937   -1.257951
     27          6           0       -3.113775   -2.292372   -0.781373
     28          1           0       -3.080247   -3.293072   -1.205153
     29          6           0       -4.094881   -0.089572   -0.707034
     30          1           0       -4.833183    0.627457   -1.059068
     31          6           0       -2.220193   -1.931484    0.226261
     32          1           0       -1.485386   -2.636260    0.598727
     33          6           0       -3.195586    0.275362    0.295361
     34          1           0       -3.229256    1.276928    0.712217
     35          6           0       -2.257053   -0.644257    0.762524
     36          1           0       -1.553415   -0.371089    1.538938
     37          7           0       -2.148887   -0.871950   -3.583063
     38          1           0       -2.320092   -0.188579   -2.849262
     39          6           0       -0.766311   -1.325462   -3.661000
     40          1           0       -0.766522   -2.419529   -3.702920
     41          6           0       -0.112978   -0.827397   -2.367067
     42          6           0       -0.041406   -0.761160   -4.890190
     43          1           0        0.993208   -1.114096   -4.924674
     44          1           0       -0.035593    0.331074   -4.852588
     45          1           0       -0.553342   -1.090047   -5.796817
     46          8           0       -0.519276    0.212815   -1.838933
     47          7           0        0.901437   -1.563765   -1.880660
     48          1           0        1.205516   -2.386903   -2.381028
     49          6           0        1.566809   -1.235417   -0.614492
     50          1           0        0.787311   -0.849121    0.046105
     51          6           0        2.628065   -0.134211   -0.808114
     52          6           0        2.179864   -2.495375   -0.002502
     53          1           0        3.031364   -2.805925   -0.615041
     54          1           0        1.423477   -3.286816   -0.026776
     55          8           0        3.829981   -0.364234   -0.667737
     56          6           0        2.672261   -2.305105    1.434619
     57          1           0        3.222001   -3.192061    1.767101
     58          1           0        3.389899   -1.480310    1.518174
     59          6           0        1.560003   -2.065416    2.422222
     60          8           0        0.379030   -1.926415    2.153318
     61          8           0        2.017681   -2.003437    3.686471
     62          7           0        2.127363    1.089753   -1.084363
     63          1           0        1.117404    1.190211   -1.132131
     64          6           0        2.963944    2.289881   -1.054534
     65          1           0        3.968254    1.970255   -1.349096
     66          6           0        3.027077    2.820101    0.400612
     67          6           0        2.428782    3.347379   -2.007929
     68          1           0        3.054598    4.239948   -1.965971
     69          1           0        1.417677    3.649670   -1.721322
     70          1           0        2.415048    2.962587   -3.030956
     71          8           0        2.667581    3.957656    0.690346
     72          7           0        3.456962    1.898269    1.294589
     73          1           0        3.888978    1.035193    0.973823
     74          6           0        3.475904    2.105562    2.729346
     75          1           0        3.636303    3.168641    2.928838
     76          6           0        4.624012    1.248435    3.276564
     77          6           0        2.181930    1.612396    3.422063
     78          1           0        2.156369    0.524124    3.304458
     79          1           0        2.282602    1.802538    4.499280
     80          8           0        4.926437    0.186887    2.720372
     81          6           0        0.858911    2.213575    2.926519
     82          1           0        0.820306    2.091076    1.835916
     83          6           0       -0.313743    1.427689    3.529046
     84          1           0       -0.323758    1.518813    4.622019
     85          1           0       -0.254014    0.362689    3.280503
     86          1           0       -1.272881    1.809391    3.162146
     87          6           0        0.743415    3.706657    3.249793
     88          1           0        0.814987    3.872813    4.331794
     89          1           0       -0.223336    4.100278    2.918099
     90          1           0        1.523302    4.280237    2.746108
     91          7           0        5.205691    1.701030    4.400073
     92          1           0        4.866893    2.526476    4.886875
     93          6           0        6.134910    0.915286    5.199923
     94          1           0        5.727236   -0.092313    5.338074
     95          6           0        6.274969    1.574364    6.590362
     96          6           0        7.510292    0.749391    4.518345
     97          1           0        7.342729    0.154130    3.617258
     98          1           0        8.133550    0.160850    5.198651
     99          8           0        7.004753    1.013136    7.415461
    100          6           0        8.243404    2.038933    4.103197
    101          1           0        7.531370    2.758116    3.678388
    102          1           0        8.929799    1.788912    3.287252
    103          6           0        9.100137    2.739402    5.169671
    104          1           0        9.814476    3.407870    4.673888
    105          1           0        9.668738    1.982149    5.722909
    106          7           0        8.292639    3.517071    6.116205
    107          1           0        7.293300    3.576903    5.912350
    108          7           0        9.793172    3.452160    7.899455
    109          1           0        9.928518    3.173689    8.858147
    110          1           0       10.539938    3.239112    7.258635
    111          7           0        7.519812    3.877787    8.246635
    112          1           0        6.600000    3.495976    7.896088
    113          1           0        7.696696    3.879215    9.239689
    114          6           0        8.533715    3.587883    7.430505
    115          8           0        5.693097    2.721193    6.718657
    116          1           0        1.251257   -1.823130    4.257097
 ---------------------------------------------------------------------

 SCF Done:  E(RB3LYP) =  -2782.67773372     A.U. after    2 cycles

 Alpha  occ. eigenvalues --  -19.30574 -19.26679 -19.25074 -19.22036 -19.20545
 Alpha  occ. eigenvalues --  -19.19949 -19.17122 -19.14983 -19.14914 -19.13076
 Alpha  occ. eigenvalues --  -19.11340 -14.59269 -14.49514 -14.45279 -14.44983
 Alpha  occ. eigenvalues --  -14.44317 -14.42264 -14.40888 -14.40632 -14.38494
 Alpha  occ. eigenvalues --  -14.38475 -10.43653 -10.40592 -10.40032 -10.38835
 Alpha  occ. eigenvalues --  -10.38827 -10.37816 -10.37434 -10.34478 -10.34014
 Alpha  occ. eigenvalues --  -10.32369 -10.31944 -10.31749 -10.30981 -10.29878
 Alpha  occ. eigenvalues --  -10.29643 -10.28818 -10.28542 -10.27520 -10.26938
 Alpha  occ. eigenvalues --  -10.26440 -10.26434 -10.25784 -10.25659 -10.25489
 Alpha  occ. eigenvalues --  -10.25323 -10.24980 -10.24897 -10.24665 -10.24593
 Alpha  occ. eigenvalues --  -10.23640 -10.22307 -10.22242 -10.22033 -10.21576
 Alpha  occ. eigenvalues --  -10.21064 -10.19509  -1.19580  -1.17840  -1.16259
 Alpha  occ. eigenvalues --   -1.14031  -1.13100  -1.12476  -1.09082  -1.08075
 Alpha  occ. eigenvalues --   -1.07103  -1.07043  -1.06336  -1.06314  -1.05308
 Alpha  occ. eigenvalues --   -1.02213  -1.01098  -0.97669  -0.97583  -0.96892
 Alpha  occ. eigenvalues --   -0.95594  -0.95305  -0.94672  -0.93851  -0.92562
 Alpha  occ. eigenvalues --   -0.88939  -0.87145  -0.85311  -0.84895  -0.84565
 Alpha  occ. eigenvalues --   -0.83594  -0.82049  -0.81648  -0.80915  -0.79364
 Alpha  occ. eigenvalues --   -0.78831  -0.77563  -0.76785  -0.75544  -0.74595
 Alpha  occ. eigenvalues --   -0.73955  -0.71915  -0.71720  -0.71598  -0.71261
 Alpha  occ. eigenvalues --   -0.71125  -0.70087  -0.69551  -0.68885  -0.67263
 Alpha  occ. eigenvalues --   -0.67151  -0.66960  -0.66562  -0.65451  -0.65268
 Alpha  occ. eigenvalues --   -0.65017  -0.64072  -0.63737  -0.63572  -0.62798
 Alpha  occ. eigenvalues --   -0.61641  -0.61290  -0.60843  -0.59923  -0.59658
 Alpha  occ. eigenvalues --   -0.59507  -0.59203  -0.58576  -0.57839  -0.57601
 Alpha  occ. eigenvalues --   -0.57273  -0.56719  -0.56303  -0.56122  -0.55531
 Alpha  occ. eigenvalues --   -0.54869  -0.54760  -0.54650  -0.54297  -0.53869
 Alpha  occ. eigenvalues --   -0.53466  -0.53128  -0.52940  -0.52685  -0.52475
 Alpha  occ. eigenvalues --   -0.52267  -0.52048  -0.51921  -0.51726  -0.51326
 Alpha  occ. eigenvalues --   -0.51157  -0.50320  -0.50163  -0.50070  -0.49967
 Alpha  occ. eigenvalues --   -0.49198  -0.48925  -0.48514  -0.48311  -0.48239
 Alpha  occ. eigenvalues --   -0.47857  -0.47820  -0.47372  -0.47126  -0.46823
 Alpha  occ. eigenvalues --   -0.46498  -0.46312  -0.46085  -0.45946  -0.45428
 Alpha  occ. eigenvalues --   -0.45168  -0.44898  -0.44611  -0.44466  -0.44156
 Alpha  occ. eigenvalues --   -0.43936  -0.43452  -0.43251  -0.42951  -0.42829
 Alpha  occ. eigenvalues --   -0.42539  -0.42273  -0.42206  -0.41806  -0.41742
 Alpha  occ. eigenvalues --   -0.41625  -0.41544  -0.41258  -0.40906  -0.40772
 Alpha  occ. eigenvalues --   -0.40550  -0.40387  -0.40108  -0.39960  -0.39131
 Alpha  occ. eigenvalues --   -0.38986  -0.38659  -0.38020  -0.37375  -0.36932
 Alpha  occ. eigenvalues --   -0.36291  -0.35927  -0.35779  -0.35686  -0.35406
 Alpha  occ. eigenvalues --   -0.35029  -0.34816  -0.34237  -0.33473  -0.32233
 Alpha  occ. eigenvalues --   -0.31766  -0.31615  -0.30917  -0.30035  -0.29636
 Alpha  occ. eigenvalues --   -0.29103  -0.28284  -0.28029  -0.27585  -0.27346
 Alpha  occ. eigenvalues --   -0.25321
 Alpha virt. eigenvalues --   -0.12518  -0.09989  -0.08146  -0.07291  -0.06971
 Alpha virt. eigenvalues --   -0.06059  -0.06033  -0.05022  -0.04346  -0.04139
 Alpha virt. eigenvalues --   -0.04058  -0.02240  -0.01207  -0.01054  -0.00447

 Mulliken charges:
               1
     1  N   -0.539755
     2  H    0.352338
     3  H    0.361097
     4  H    0.359362
     5  C   -0.093345
     6  H    0.174015
     7  C    0.630203
     8  C    0.163403
     9  H    0.131251
    10  O   -0.539029
    11  C   -0.348717
    12  H    0.150237
    13  H    0.140525
    14  H    0.142110
    15  O   -0.561987
    16  H    0.345917
    17  N   -0.512638
    18  H    0.300440
    19  C   -0.031335
    20  H    0.153186
    21  C    0.612732
    22  C   -0.230262
    23  H    0.134311
    24  H    0.115380
    25  O   -0.563970
    26  C    0.097082
    27  C   -0.129693
    28  H    0.081401
    29  C   -0.146573
    30  H    0.084773
    31  C   -0.094279
    32  H    0.114576
    33  C   -0.074953
    34  H    0.102159
    35  C   -0.071083
    36  H    0.124602
    37  N   -0.516638
    38  H    0.305494
    39  C   -0.004675
    40  H    0.132457
    41  C    0.628817
    42  C   -0.307653
    43  H    0.122157
    44  H    0.132247
    45  H    0.135791
    46  O   -0.557242
    47  N   -0.538446
    48  H    0.273238
    49  C   -0.022978
    50  H    0.167902
    51  C    0.610744
    52  C   -0.196263
    53  H    0.126187
    54  H    0.104655
    55  O   -0.535088
    56  C   -0.287311
    57  H    0.148553
    58  H    0.205549
    59  C    0.589486
    60  O   -0.485175
    61  O   -0.466019
    62  N   -0.520443
    63  H    0.294832
    64  C   -0.039777
    65  H    0.148851
    66  C    0.608737
    67  C   -0.308446
    68  H    0.134466
    69  H    0.118867
    70  H    0.097436
    71  O   -0.527750
    72  N   -0.547517
    73  H    0.304919
    74  C   -0.009113
    75  H    0.124779
    76  C    0.593331
    77  C   -0.159875
    78  H    0.090705
    79  H    0.099218
    80  O   -0.551013
    81  C   -0.053734
    82  H    0.083660
    83  C   -0.329706
    84  H    0.099746
    85  H    0.101288
    86  H    0.093576
    87  C   -0.319875
    88  H    0.090175
    89  H    0.089971
    90  H    0.143179
    91  N   -0.534072
    92  H    0.280855
    93  C    0.002708
    94  H    0.131013
    95  C    0.580556
    96  C   -0.179953
    97  H    0.131810
    98  H    0.115321
    99  O   -0.569495
   100  C   -0.226205
   101  H    0.116478
   102  H    0.114391
   103  C   -0.052318
   104  H    0.119974
   105  H    0.119611
   106  N   -0.510372
   107  H    0.293283
   108  N   -0.620900
   109  H    0.298634
   110  H    0.297026
   111  N   -0.605554
   112  H    0.342353
   113  H    0.272124
   114  C    0.758090
   115  O   -0.655013
   116  H    0.329899
 Sum of Mulliken charges =   1.00000

 Dipole moment (field-independent basis, Debye):
    X=            -18.3265    Y=             -3.7258    Z=            -21.7773  Tot=             28.7053
 Quadrupole moment (field-independent basis, Debye-Ang):
   XX=             18.4396   YY=           -317.5970   ZZ=            -70.3348
   XY=             77.1948   XZ=            281.4085   YZ=             61.6393

 Normal termination of Gaussian 16 at Thu Sep  8 18:22:01 2022.
