 Gaussian 16, Revision C.01,
 Gaussian 16:  ES64L-G16RevC.01  3-Jul-2019

 ----------------------------------------------------------------------
 # B3LYP/6-31G** empiricaldispersion=gd3bj guess=read geom=check nosymm
  integral(ultrafinegrid)
 ----------------------------------------------------------------------

 ------------------------------------------------------
 Candidate Structure: Conf:112 Charge calc in gas phase
 ------------------------------------------------------
 Structure from the checkpoint file:  "conf-112.chk"
 Charge =  1 Multiplicity = 1

                          Input orientation:
 ---------------------------------------------------------------------
 Center     Atomic      Atomic             Coordinates (Angstroms)
 Number     Number       Type             X           Y           Z
 ---------------------------------------------------------------------
      1          7           0       -2.616890   -4.002502    0.961284
      2          1           0       -3.032762   -3.482895    1.735615
      3          1           0       -3.368543   -4.227095    0.262482
      4          1           0       -2.109159   -4.828739    1.316451
      5          6           0       -1.645856   -3.185791    0.159645
      6          1           0       -1.228202   -2.398203    0.787573
      7          6           0       -2.492792   -2.644326   -1.005324
      8          6           0       -0.537663   -4.163560   -0.331797
      9          1           0       -0.976201   -4.790339   -1.117009
     10          8           0       -3.549106   -3.239838   -1.266533
     11          6           0        0.692395   -3.442754   -0.859120
     12          1           0        0.451848   -2.803411   -1.711818
     13          1           0        1.430586   -4.178191   -1.186051
     14          1           0        1.139408   -2.812338   -0.082912
     15          8           0       -0.241563   -5.061079    0.739515
     16          1           0        0.506725   -4.715446    1.247818
     17          7           0       -1.987861   -1.613669   -1.665402
     18          1           0       -1.099968   -1.182749   -1.410070
     19          6           0       -2.577164   -1.040050   -2.865500
     20          1           0       -2.906515   -1.852187   -3.521409
     21          6           0       -1.417438   -0.269448   -3.527496
     22          6           0       -3.805797   -0.154599   -2.512299
     23          1           0       -4.440517   -0.766816   -1.864846
     24          1           0       -3.469947    0.699231   -1.918600
     25          8           0       -0.324374   -0.191934   -2.949911
     26          6           0       -4.588703    0.274608   -3.730975
     27          6           0       -4.518772    1.586026   -4.218260
     28          1           0       -3.910081    2.326414   -3.711606
     29          6           0       -5.358199   -0.666405   -4.431160
     30          1           0       -5.428868   -1.684526   -4.055710
     31          6           0       -5.191823    1.946141   -5.387105
     32          1           0       -5.110802    2.963541   -5.754957
     33          6           0       -6.036269   -0.306507   -5.594373
     34          1           0       -6.630720   -1.044594   -6.123410
     35          6           0       -5.951438    1.001510   -6.077112
     36          1           0       -6.475191    1.280892   -6.985566
     37          7           0       -1.676555    0.290341   -4.721474
     38          1           0       -2.641443    0.310609   -5.031986
     39          6           0       -0.777263    1.281534   -5.338539
     40          1           0        0.240351    0.892317   -5.255264
     41          6           0       -0.929315    2.573578   -4.507747
     42          6           0       -1.173963    1.497151   -6.790481
     43          1           0       -0.484782    2.198273   -7.266288
     44          1           0       -2.176767    1.928715   -6.840885
     45          1           0       -1.149881    0.553577   -7.340918
     46          8           0       -1.850193    3.361895   -4.706613
     47          7           0       -0.029408    2.702961   -3.501963
     48          1           0        0.559009    1.908550   -3.269317
     49          6           0       -0.306909    3.578718   -2.373506
     50          1           0       -0.653631    4.542127   -2.756413
     51          6           0        0.985366    3.703711   -1.572594
     52          6           0       -1.387296    2.917566   -1.491140
     53          1           0       -1.003997    1.939004   -1.192584
     54          1           0       -2.258221    2.745070   -2.128383
     55          8           0        1.697793    2.718170   -1.386641
     56          6           0       -1.810884    3.699897   -0.252612
     57          1           0       -0.960642    3.958635    0.394781
     58          1           0       -2.298619    4.646897   -0.509805
     59          6           0       -2.762977    2.890641    0.591118
     60          8           0       -2.985069    1.697348    0.469743
     61          8           0       -3.347158    3.636265    1.546052
     62          7           0        1.254484    4.919666   -1.039720
     63          1           0        0.565335    5.652973   -1.123192
     64          6           0        2.286908    5.065734   -0.016005
     65          1           0        3.236884    4.740203   -0.450370
     66          6           0        1.914699    4.163076    1.176493
     67          6           0        2.368501    6.522131    0.431597
     68          1           0        3.174710    6.648315    1.157892
     69          1           0        1.430288    6.814331    0.912173
     70          1           0        2.565225    7.179893   -0.419405
     71          8           0        0.812691    4.277090    1.722265
     72          7           0        2.856455    3.283648    1.547385
     73          1           0        3.733622    3.203414    1.044447
     74          6           0        2.686024    2.280656    2.580115
     75          1           0        2.095138    2.709467    3.393953
     76          6           0        4.100283    1.920004    3.061380
     77          6           0        2.012833    0.999353    2.036227
     78          1           0        2.600806    0.674845    1.169754
     79          1           0        2.106859    0.215435    2.800307
     80          8           0        5.069189    2.071254    2.313508
     81          6           0        0.534609    1.136462    1.641567
     82          1           0        0.447336    1.958375    0.928322
     83          6           0        0.071447   -0.134087    0.919754
     84          1           0        0.206211   -1.011189    1.570656
     85          1           0        0.649268   -0.292398    0.001893
     86          1           0       -0.988642   -0.043903    0.657014
     87          6           0       -0.354968    1.442200    2.850870
     88          1           0       -0.192851    0.711590    3.653976
     89          1           0       -1.411830    1.403704    2.572263
     90          1           0       -0.150683    2.442604    3.237051
     91          7           0        4.168675    1.379917    4.289764
     92          1           0        3.365469    1.327048    4.906940
     93          6           0        5.393695    0.861460    4.881362
     94          1           0        5.947152    0.297465    4.127939
     95          6           0        5.012666   -0.079767    6.037913
     96          6           0        6.275358    2.031500    5.393608
     97          1           0        5.611050    2.738381    5.908065
     98          1           0        6.649221    2.556372    4.511144
     99          8           0        5.782934   -1.013684    6.307571
    100          6           0        7.443264    1.626931    6.321513
    101          1           0        8.358593    2.146813    6.018925
    102          1           0        7.630965    0.552170    6.239470
    103          6           0        7.198018    1.988955    7.795152
    104          1           0        7.023378    3.064958    7.892553
    105          1           0        8.085085    1.777560    8.398972
    106          7           0        6.033995    1.322078    8.389292
    107          1           0        5.146284    1.506974    7.921104
    108          7           0        7.152996   -0.376771    9.548618
    109          1           0        7.211231   -1.368972    9.712245
    110          1           0        8.028880    0.105173    9.434864
    111          7           0        4.874627   -0.538182    9.064174
    112          1           0        4.265283   -0.380453    8.216273
    113          1           0        4.909633   -1.481176    9.422648
    114          6           0        6.037290    0.114221    8.971163
    115          8           0        3.967126    0.281821    6.700204
    116          1           0       -3.919013    3.041844    2.060302
 ---------------------------------------------------------------------

 SCF Done:  E(RB3LYP) =  -2782.68299157     A.U. after    3 cycles

 Alpha  occ. eigenvalues --  -19.29601 -19.26659 -19.25520 -19.22157 -19.21447
 Alpha  occ. eigenvalues --  -19.18975 -19.18467 -19.17447 -19.16825 -19.14775
 Alpha  occ. eigenvalues --  -19.13454 -14.58381 -14.48371 -14.45800 -14.45382
 Alpha  occ. eigenvalues --  -14.44311 -14.43578 -14.42454 -14.42129 -14.41762
 Alpha  occ. eigenvalues --  -14.40723 -10.42369 -10.40631 -10.39441 -10.38871
 Alpha  occ. eigenvalues --  -10.38847 -10.38721 -10.35863 -10.35445 -10.34590
 Alpha  occ. eigenvalues --  -10.33974 -10.33889 -10.31732 -10.31216 -10.30453
 Alpha  occ. eigenvalues --  -10.30422 -10.30154 -10.30127 -10.29102 -10.27913
 Alpha  occ. eigenvalues --  -10.27274 -10.26643 -10.26503 -10.26266 -10.26151
 Alpha  occ. eigenvalues --  -10.26061 -10.25863 -10.25834 -10.25770 -10.25559
 Alpha  occ. eigenvalues --  -10.25155 -10.25093 -10.25060 -10.24860 -10.24727
 Alpha  occ. eigenvalues --  -10.24105 -10.23000  -1.18415  -1.17794  -1.16778
 Alpha  occ. eigenvalues --   -1.13968  -1.12213  -1.11316  -1.10258  -1.09737
 Alpha  occ. eigenvalues --   -1.09397  -1.08580  -1.08530  -1.07174  -1.05312
 Alpha  occ. eigenvalues --   -1.02006  -0.99863  -0.99422  -0.99376  -0.98761
 Alpha  occ. eigenvalues --   -0.98459  -0.97338  -0.96692  -0.93267  -0.92170
 Alpha  occ. eigenvalues --   -0.88486  -0.87898  -0.87376  -0.85495  -0.84784
 Alpha  occ. eigenvalues --   -0.84411  -0.84317  -0.81788  -0.81572  -0.81386
 Alpha  occ. eigenvalues --   -0.80059  -0.79081  -0.76892  -0.75449  -0.75160
 Alpha  occ. eigenvalues --   -0.73802  -0.73547  -0.73119  -0.72917  -0.71949
 Alpha  occ. eigenvalues --   -0.71371  -0.71068  -0.70707  -0.69315  -0.68170
 Alpha  occ. eigenvalues --   -0.67518  -0.66743  -0.66276  -0.66090  -0.65787
 Alpha  occ. eigenvalues --   -0.65421  -0.65157  -0.64467  -0.64299  -0.63675
 Alpha  occ. eigenvalues --   -0.63068  -0.63007  -0.62365  -0.61809  -0.61128
 Alpha  occ. eigenvalues --   -0.59967  -0.59320  -0.58473  -0.58073  -0.57714
 Alpha  occ. eigenvalues --   -0.57387  -0.57148  -0.57032  -0.56744  -0.56330
 Alpha  occ. eigenvalues --   -0.56016  -0.55880  -0.55452  -0.55267  -0.54804
 Alpha  occ. eigenvalues --   -0.54346  -0.54191  -0.53943  -0.53286  -0.53185
 Alpha  occ. eigenvalues --   -0.53008  -0.52657  -0.52399  -0.52014  -0.51744
 Alpha  occ. eigenvalues --   -0.51462  -0.51373  -0.50752  -0.50205  -0.49978
 Alpha  occ. eigenvalues --   -0.49901  -0.49719  -0.49676  -0.49641  -0.49557
 Alpha  occ. eigenvalues --   -0.48964  -0.48645  -0.48362  -0.48150  -0.47935
 Alpha  occ. eigenvalues --   -0.47693  -0.47105  -0.46970  -0.46781  -0.46624
 Alpha  occ. eigenvalues --   -0.46320  -0.46145  -0.45913  -0.45805  -0.45682
 Alpha  occ. eigenvalues --   -0.45504  -0.45477  -0.45029  -0.44538  -0.44293
 Alpha  occ. eigenvalues --   -0.43956  -0.43929  -0.43632  -0.43444  -0.43271
 Alpha  occ. eigenvalues --   -0.43198  -0.42935  -0.42695  -0.42390  -0.42044
 Alpha  occ. eigenvalues --   -0.41586  -0.41451  -0.41237  -0.40688  -0.40568
 Alpha  occ. eigenvalues --   -0.40427  -0.39780  -0.39693  -0.39115  -0.38852
 Alpha  occ. eigenvalues --   -0.38750  -0.38485  -0.38112  -0.36663  -0.36322
 Alpha  occ. eigenvalues --   -0.35894  -0.35074  -0.34131  -0.33579  -0.33518
 Alpha  occ. eigenvalues --   -0.32524  -0.32049  -0.31745  -0.31736  -0.31141
 Alpha  occ. eigenvalues --   -0.31115  -0.30698  -0.30396  -0.30048  -0.29318
 Alpha  occ. eigenvalues --   -0.26945
 Alpha virt. eigenvalues --   -0.11490  -0.09099  -0.08571  -0.07422  -0.07174
 Alpha virt. eigenvalues --   -0.06511  -0.05934  -0.05488  -0.04760  -0.04602
 Alpha virt. eigenvalues --   -0.03861  -0.03021  -0.02665  -0.02023  -0.01806

 Mulliken charges:
               1
     1  N   -0.539301
     2  H    0.351232
     3  H    0.358700
     4  H    0.353784
     5  C   -0.110787
     6  H    0.163993
     7  C    0.643487
     8  C    0.164677
     9  H    0.147171
    10  O   -0.548411
    11  C   -0.366870
    12  H    0.154063
    13  H    0.159212
    14  H    0.131761
    15  O   -0.546995
    16  H    0.335235
    17  N   -0.524459
    18  H    0.317402
    19  C   -0.028043
    20  H    0.156680
    21  C    0.617869
    22  C   -0.249257
    23  H    0.139043
    24  H    0.144471
    25  O   -0.560313
    26  C    0.063265
    27  C   -0.144864
    28  H    0.119578
    29  C   -0.122999
    30  H    0.094473
    31  C   -0.085388
    32  H    0.116103
    33  C   -0.083704
    34  H    0.103479
    35  C   -0.086234
    36  H    0.106199
    37  N   -0.514016
    38  H    0.292222
    39  C   -0.021278
    40  H    0.135168
    41  C    0.604869
    42  C   -0.335434
    43  H    0.135667
    44  H    0.143298
    45  H    0.118773
    46  O   -0.534265
    47  N   -0.516287
    48  H    0.297820
    49  C   -0.021776
    50  H    0.129893
    51  C    0.618126
    52  C   -0.186595
    53  H    0.132046
    54  H    0.126319
    55  O   -0.545804
    56  C   -0.306139
    57  H    0.198210
    58  H    0.136071
    59  C    0.605469
    60  O   -0.501363
    61  O   -0.470523
    62  N   -0.514188
    63  H    0.271524
    64  C    0.003782
    65  H    0.127310
    66  C    0.629786
    67  C   -0.349800
    68  H    0.134757
    69  H    0.136403
    70  H    0.125611
    71  O   -0.560038
    72  N   -0.504554
    73  H    0.287203
    74  C   -0.024523
    75  H    0.127772
    76  C    0.597579
    77  C   -0.149331
    78  H    0.112690
    79  H    0.090646
    80  O   -0.550434
    81  C   -0.060062
    82  H    0.123236
    83  C   -0.361827
    84  H    0.068569
    85  H    0.129068
    86  H    0.115593
    87  C   -0.333009
    88  H    0.082011
    89  H    0.092004
    90  H    0.141747
    91  N   -0.533005
    92  H    0.275314
    93  C    0.028638
    94  H    0.130675
    95  C    0.565710
    96  C   -0.200111
    97  H    0.090240
    98  H    0.138813
    99  O   -0.574026
   100  C   -0.191890
   101  H    0.109469
   102  H    0.144199
   103  C   -0.087149
   104  H    0.138431
   105  H    0.101441
   106  N   -0.501977
   107  H    0.296748
   108  N   -0.619001
   109  H    0.300495
   110  H    0.297540
   111  N   -0.599052
   112  H    0.334971
   113  H    0.270966
   114  C    0.757272
   115  O   -0.653639
   116  H    0.324684
 Sum of Mulliken charges =   1.00000

 Dipole moment (field-independent basis, Debye):
    X=              0.2302    Y=             -7.2738    Z=              9.2105  Tot=             11.7385
 Quadrupole moment (field-independent basis, Debye-Ang):
   XX=           -232.4705   YY=           -257.6525   ZZ=           -175.9020
   XY=             31.5874   XZ=            102.3839   YZ=            -14.2964

 Normal termination of Gaussian 16 at Thu Sep  8 18:23:05 2022.
