 Gaussian 16, Revision C.01,
 Gaussian 16:  ES64L-G16RevC.01  3-Jul-2019

 ----------------------------------------------------------------------
 # B3LYP/6-31G** empiricaldispersion=gd3bj guess=read geom=check nosymm
  integral(ultrafinegrid)
 ----------------------------------------------------------------------

 ------------------------------------------------------
 Candidate Structure: Conf:315 Charge calc in gas phase
 ------------------------------------------------------
 Structure from the checkpoint file:  "conf-315.chk"
 Charge =  1 Multiplicity = 1

                          Input orientation:
 ---------------------------------------------------------------------
 Center     Atomic      Atomic             Coordinates (Angstroms)
 Number     Number       Type             X           Y           Z
 ---------------------------------------------------------------------
      1          7           0       -6.621481    0.559636   -7.216017
      2          1           0       -6.965040   -0.098885   -6.507742
      3          1           0       -6.741135    1.509948   -6.853005
      4          1           0       -7.173164    0.465112   -8.071799
      5          6           0       -5.188569    0.326733   -7.503618
      6          1           0       -5.062971   -0.700379   -7.863869
      7          6           0       -4.423815    0.515451   -6.203279
      8          6           0       -4.711058    1.275754   -8.600533
      9          1           0       -4.912011    2.299570   -8.275371
     10          8           0       -4.256830    1.641235   -5.703022
     11          6           0       -3.241442    1.102362   -8.927575
     12          1           0       -2.629181    1.289726   -8.043504
     13          1           0       -2.948809    1.802338   -9.712454
     14          1           0       -3.054262    0.084081   -9.273671
     15          8           0       -5.511711    1.086183   -9.765244
     16          1           0       -5.216075    0.275764  -10.185587
     17          7           0       -3.965725   -0.624916   -5.626493
     18          1           0       -4.259552   -1.494888   -6.035227
     19          6           0       -3.765662   -0.652262   -4.180440
     20          1           0       -4.143923    0.304894   -3.805272
     21          6           0       -2.270878   -0.699783   -3.865696
     22          6           0       -4.569837   -1.786412   -3.542883
     23          1           0       -4.124783   -2.746446   -3.799703
     24          1           0       -4.494332   -1.683236   -2.459040
     25          8           0       -1.759437   -1.589077   -3.184800
     26          6           0       -6.000082   -1.727812   -4.015600
     27          6           0       -6.824231   -0.669739   -3.643306
     28          1           0       -6.430311    0.096238   -2.981943
     29          6           0       -6.485901   -2.664320   -4.920363
     30          1           0       -5.847923   -3.483966   -5.239996
     31          6           0       -8.128016   -0.579539   -4.118622
     32          1           0       -8.747472    0.263602   -3.830677
     33          6           0       -7.774962   -2.558508   -5.430276
     34          1           0       -8.123528   -3.273794   -6.166290
     35          6           0       -8.605351   -1.523094   -5.021987
     36          1           0       -9.601165   -1.420901   -5.442834
     37          7           0       -1.552330    0.310502   -4.399181
     38          1           0       -2.044094    1.024548   -4.919234
     39          6           0       -0.102531    0.372425   -4.294763
     40          1           0        0.245758   -0.667209   -4.304828
     41          6           0        0.299491    0.988939   -2.951257
     42          6           0        0.480492    1.143841   -5.464061
     43          1           0        1.568042    1.171655   -5.393343
     44          1           0        0.112787    2.171073   -5.462247
     45          1           0        0.191850    0.660869   -6.400047
     46          8           0        0.827964    2.098047   -2.856214
     47          7           0        0.029159    0.232396   -1.868217
     48          1           0       -0.442989   -0.655976   -2.004749
     49          6           0        0.309269    0.685404   -0.519580
     50          1           0        0.130824    1.764229   -0.493030
     51          6           0        1.785712    0.437054   -0.174961
     52          6           0       -0.593847   -0.005266    0.495475
     53          1           0       -0.314138    0.342809    1.490107
     54          1           0       -0.403550   -1.078859    0.472272
     55          8           0        2.148149   -0.361733    0.679346
     56          6           0       -2.072018    0.277212    0.251556
     57          1           0       -2.373292   -0.001447   -0.763303
     58          1           0       -2.686876   -0.320579    0.929475
     59          6           0       -2.429568    1.717024    0.492942
     60          8           0       -1.736667    2.537142    1.043161
     61          8           0       -3.669578    2.009979    0.046485
     62          7           0        2.678354    1.155140   -0.891722
     63          1           0        2.340565    1.783064   -1.611178
     64          6           0        4.098286    0.989782   -0.648495
     65          1           0        4.357044   -0.054429   -0.856058
     66          6           0        4.364952    1.244772    0.829368
     67          6           0        4.916892    1.925212   -1.518727
     68          1           0        5.982739    1.795625   -1.316013
     69          1           0        4.650656    2.960726   -1.311691
     70          1           0        4.737927    1.715503   -2.576548
     71          8           0        4.115795    2.336668    1.349624
     72          7           0        4.854809    0.204426    1.523129
     73          1           0        4.822809   -0.700787    1.088415
     74          6           0        4.900452    0.239640    2.971705
     75          1           0        3.917462    0.561088    3.332103
     76          6           0        5.925277    1.287375    3.402263
     77          6           0        5.254988   -1.120514    3.548365
     78          1           0        6.233884   -1.409795    3.166849
     79          1           0        5.357151   -1.014956    4.633132
     80          8           0        7.097331    1.241249    3.044594
     81          6           0        4.225564   -2.214414    3.265361
     82          1           0        4.160797   -2.358592    2.179839
     83          6           0        4.693438   -3.523836    3.893175
     84          1           0        4.734616   -3.427666    4.981188
     85          1           0        5.689604   -3.801515    3.540650
     86          1           0        4.011859   -4.343140    3.652446
     87          6           0        2.839966   -1.831797    3.779601
     88          1           0        2.887601   -1.565400    4.840173
     89          1           0        2.144546   -2.668512    3.676166
     90          1           0        2.426539   -0.986904    3.227948
     91          7           0        5.414995    2.260685    4.194972
     92          1           0        4.578836    2.106476    4.746149
     93          6           0        6.226007    3.273641    4.807030
     94          1           0        7.265652    2.930622    4.889690
     95          6           0        5.609052    3.496383    6.224862
     96          6           0        6.180109    4.621515    4.075810
     97          1           0        6.572617    5.390163    4.747822
     98          1           0        5.133204    4.868832    3.880101
     99          8           0        4.516588    2.914191    6.412743
    100          6           0        6.969771    4.595505    2.766575
    101          1           0        6.998808    3.579150    2.375140
    102          1           0        8.009596    4.870556    2.967049
    103          6           0        6.391429    5.524754    1.712685
    104          1           0        7.063537    5.591540    0.850724
    105          1           0        6.268897    6.535333    2.113254
    106          7           0        5.084297    4.987081    1.297385
    107          1           0        4.859066    4.028756    1.553198
    108          7           0        4.646266    6.714598   -0.188576
    109          1           0        3.942131    7.221714   -0.699503
    110          1           0        5.329134    7.280762    0.288860
    111          7           0        3.217273    4.860784   -0.065311
    112          1           0        2.916312    4.053924    0.466142
    113          1           0        2.500593    5.374476   -0.550433
    114          6           0        4.310779    5.528499    0.371051
    115          8           0        6.242326    4.215112    7.000387
    116          1           0       -3.815243    2.940186    0.265296
 ---------------------------------------------------------------------

 SCF Done:  E(RB3LYP) =  -2782.56788590     A.U. after    3 cycles

 Alpha  occ. eigenvalues --  -19.30828 -19.27995 -19.27486 -19.24076 -19.21744
 Alpha  occ. eigenvalues --  -19.21312 -19.18524 -19.18428 -19.11321 -19.04173
 Alpha  occ. eigenvalues --  -19.04051 -14.64126 -14.51985 -14.48060 -14.47992
 Alpha  occ. eigenvalues --  -14.46940 -14.45742 -14.44845 -14.42447 -14.41106
 Alpha  occ. eigenvalues --  -14.33638 -10.44948 -10.43147 -10.42717 -10.40980
 Alpha  occ. eigenvalues --  -10.40589 -10.39793 -10.38089 -10.37028 -10.35350
 Alpha  occ. eigenvalues --  -10.34691 -10.33944 -10.33180 -10.32669 -10.32618
 Alpha  occ. eigenvalues --  -10.32502 -10.32482 -10.32393 -10.32247 -10.32122
 Alpha  occ. eigenvalues --  -10.30808 -10.30162 -10.29643 -10.28329 -10.28269
 Alpha  occ. eigenvalues --  -10.28129 -10.26489 -10.25517 -10.25295 -10.22011
 Alpha  occ. eigenvalues --  -10.21955 -10.21722 -10.21086 -10.20031 -10.19664
 Alpha  occ. eigenvalues --  -10.19309 -10.18950  -1.21114  -1.18796  -1.18792
 Alpha  occ. eigenvalues --   -1.17560  -1.16080  -1.13347  -1.12002  -1.11195
 Alpha  occ. eigenvalues --   -1.09769  -1.09537  -1.08800  -1.04582  -1.03460
 Alpha  occ. eigenvalues --   -1.01725  -1.00888  -1.00527  -0.99874  -0.99354
 Alpha  occ. eigenvalues --   -0.98408  -0.97882  -0.96094  -0.92832  -0.91477
 Alpha  occ. eigenvalues --   -0.89703  -0.88815  -0.88507  -0.88242  -0.87504
 Alpha  occ. eigenvalues --   -0.85968  -0.85440  -0.84262  -0.84135  -0.81513
 Alpha  occ. eigenvalues --   -0.80588  -0.79041  -0.78664  -0.78094  -0.76374
 Alpha  occ. eigenvalues --   -0.75716  -0.75098  -0.74845  -0.73940  -0.73730
 Alpha  occ. eigenvalues --   -0.73419  -0.72028  -0.71738  -0.71230  -0.71050
 Alpha  occ. eigenvalues --   -0.70121  -0.69615  -0.68668  -0.68303  -0.67214
 Alpha  occ. eigenvalues --   -0.66813  -0.66535  -0.65768  -0.65373  -0.64943
 Alpha  occ. eigenvalues --   -0.64381  -0.64060  -0.63585  -0.62205  -0.61328
 Alpha  occ. eigenvalues --   -0.61126  -0.60373  -0.59991  -0.59812  -0.59645
 Alpha  occ. eigenvalues --   -0.59419  -0.59281  -0.58964  -0.58742  -0.58314
 Alpha  occ. eigenvalues --   -0.58203  -0.57708  -0.56951  -0.56770  -0.55878
 Alpha  occ. eigenvalues --   -0.55828  -0.55617  -0.55362  -0.55226  -0.55130
 Alpha  occ. eigenvalues --   -0.54422  -0.54321  -0.54191  -0.53952  -0.53231
 Alpha  occ. eigenvalues --   -0.53109  -0.52415  -0.52365  -0.52190  -0.51686
 Alpha  occ. eigenvalues --   -0.51237  -0.50137  -0.50066  -0.49916  -0.49805
 Alpha  occ. eigenvalues --   -0.49392  -0.49079  -0.48922  -0.48766  -0.48636
 Alpha  occ. eigenvalues --   -0.48563  -0.48124  -0.47931  -0.47378  -0.47092
 Alpha  occ. eigenvalues --   -0.47034  -0.46895  -0.46817  -0.46458  -0.46197
 Alpha  occ. eigenvalues --   -0.45667  -0.45176  -0.44778  -0.44166  -0.44126
 Alpha  occ. eigenvalues --   -0.43739  -0.43634  -0.43313  -0.42896  -0.42768
 Alpha  occ. eigenvalues --   -0.42513  -0.42029  -0.41889  -0.41079  -0.40794
 Alpha  occ. eigenvalues --   -0.40518  -0.40298  -0.39793  -0.39300  -0.39252
 Alpha  occ. eigenvalues --   -0.39195  -0.39138  -0.38513  -0.38396  -0.37216
 Alpha  occ. eigenvalues --   -0.37097  -0.36335  -0.36144  -0.35836  -0.35617
 Alpha  occ. eigenvalues --   -0.35415  -0.35380  -0.34948  -0.34595  -0.34412
 Alpha  occ. eigenvalues --   -0.33715  -0.33568  -0.32650  -0.31831  -0.31452
 Alpha  occ. eigenvalues --   -0.30317  -0.25439  -0.24870  -0.19753  -0.19069
 Alpha  occ. eigenvalues --   -0.17609
 Alpha virt. eigenvalues --   -0.16988  -0.14358  -0.13894  -0.12122  -0.10872
 Alpha virt. eigenvalues --   -0.09395  -0.08010  -0.07864  -0.07206  -0.06841
 Alpha virt. eigenvalues --   -0.05627  -0.05436  -0.05132  -0.04113  -0.03904

 Mulliken charges:
               1
     1  N   -0.509710
     2  H    0.355369
     3  H    0.361299
     4  H    0.350731
     5  C   -0.114070
     6  H    0.145515
     7  C    0.583376
     8  C    0.165436
     9  H    0.149519
    10  O   -0.532166
    11  C   -0.345948
    12  H    0.142443
    13  H    0.170292
    14  H    0.114841
    15  O   -0.531971
    16  H    0.320522
    17  N   -0.493931
    18  H    0.270683
    19  C   -0.057747
    20  H    0.171045
    21  C    0.639673
    22  C   -0.264409
    23  H    0.142777
    24  H    0.163840
    25  O   -0.542015
    26  C    0.116789
    27  C   -0.135997
    28  H    0.118142
    29  C   -0.159671
    30  H    0.109779
    31  C   -0.111333
    32  H    0.122139
    33  C   -0.103992
    34  H    0.120937
    35  C   -0.122525
    36  H    0.121523
    37  N   -0.517277
    38  H    0.280415
    39  C   -0.030654
    40  H    0.152835
    41  C    0.620755
    42  C   -0.324434
    43  H    0.144821
    44  H    0.131375
    45  H    0.103997
    46  O   -0.552741
    47  N   -0.528636
    48  H    0.300807
    49  C   -0.036813
    50  H    0.148835
    51  C    0.627550
    52  C   -0.191112
    53  H    0.159013
    54  H    0.125992
    55  O   -0.526221
    56  C   -0.276165
    57  H    0.111087
    58  H    0.156922
    59  C    0.582433
    60  O   -0.456981
    61  O   -0.493002
    62  N   -0.543291
    63  H    0.287238
    64  C    0.013721
    65  H    0.110856
    66  C    0.648108
    67  C   -0.352944
    68  H    0.143549
    69  H    0.123170
    70  H    0.113887
    71  O   -0.590895
    72  N   -0.476334
    73  H    0.270976
    74  C   -0.000309
    75  H    0.122301
    76  C    0.591400
    77  C   -0.199149
    78  H    0.117182
    79  H    0.127804
    80  O   -0.562544
    81  C   -0.068854
    82  H    0.069783
    83  C   -0.307251
    84  H    0.112922
    85  H    0.100035
    86  H    0.094918
    87  C   -0.318042
    88  H    0.112714
    89  H    0.089638
    90  H    0.122015
    91  N   -0.503379
    92  H    0.272899
    93  C   -0.038197
    94  H    0.116901
    95  C    0.565406
    96  C   -0.173453
    97  H    0.131736
    98  H    0.081262
    99  O   -0.604465
   100  C   -0.238283
   101  H    0.149198
   102  H    0.120451
   103  C   -0.074946
   104  H    0.126770
   105  H    0.124236
   106  N   -0.517684
   107  H    0.355592
   108  N   -0.606192
   109  H    0.293790
   110  H    0.312171
   111  N   -0.614744
   112  H    0.324857
   113  H    0.287629
   114  C    0.743414
   115  O   -0.557033
   116  H    0.325472
 Sum of Mulliken charges =   1.00000

 Dipole moment (field-independent basis, Debye):
    X=            -33.6846    Y=              3.8342    Z=            -53.2873  Tot=             63.1577
 Quadrupole moment (field-independent basis, Debye-Ang):
   XX=           -185.0358   YY=           -252.8286   ZZ=           -218.3559
   XY=             17.1178   XZ=             83.9393   YZ=            -61.2700

 Normal termination of Gaussian 16 at Thu Sep  8 18:22:37 2022.
