 Gaussian 16, Revision C.01,
 Gaussian 16:  ES64L-G16RevC.01  3-Jul-2019

 ----------------------------------------------------------------------
 # B3LYP/6-31G** empiricaldispersion=gd3bj guess=read geom=check nosymm
  integral(ultrafinegrid)
 ----------------------------------------------------------------------

 -----------------------------------------------------
 Candidate Structure: Conf:90 Charge calc in gas phase
 -----------------------------------------------------
 Structure from the checkpoint file:  "conf-90.chk"
 Charge =  1 Multiplicity = 1

                          Input orientation:
 ---------------------------------------------------------------------
 Center     Atomic      Atomic             Coordinates (Angstroms)
 Number     Number       Type             X           Y           Z
 ---------------------------------------------------------------------
      1          7           0       -4.826803    0.975797   -0.144939
      2          1           0       -4.805101    1.981653   -0.375247
      3          1           0       -5.333956    0.504252   -0.917071
      4          1           0       -5.236846    0.790852    0.777286
      5          6           0       -3.442457    0.389916   -0.182967
      6          1           0       -2.722681    1.089036    0.254976
      7          6           0       -3.196189    0.192682   -1.684190
      8          6           0       -3.472816   -0.922308    0.606826
      9          1           0       -4.089869   -1.648253    0.053881
     10          8           0       -4.172026   -0.098017   -2.389887
     11          6           0       -2.071313   -1.475891    0.819880
     12          1           0       -1.620405   -1.747796   -0.138654
     13          1           0       -2.115233   -2.377487    1.439008
     14          1           0       -1.432850   -0.727236    1.291951
     15          8           0       -4.127295   -0.570258    1.833639
     16          1           0       -4.226134   -1.363679    2.375200
     17          7           0       -1.948447    0.415355   -2.109569
     18          1           0       -1.257385    0.713717   -1.399992
     19          6           0       -1.730146    0.763806   -3.500278
     20          1           0       -2.539288    0.307770   -4.076408
     21          6           0       -0.381297    0.251935   -3.995793
     22          6           0       -1.795764    2.314365   -3.659092
     23          1           0       -0.976473    2.749757   -3.080942
     24          1           0       -1.609308    2.567578   -4.707706
     25          8           0        0.566088    0.024861   -3.253295
     26          6           0       -3.124836    2.869249   -3.198227
     27          6           0       -4.258490    2.758309   -4.012065
     28          1           0       -4.168188    2.308667   -4.997514
     29          6           0       -3.260546    3.448593   -1.929735
     30          1           0       -2.399579    3.548748   -1.272568
     31          6           0       -5.505079    3.202441   -3.575408
     32          1           0       -6.370509    3.104766   -4.222907
     33          6           0       -4.509603    3.911290   -1.494867
     34          1           0       -4.584761    4.409562   -0.530792
     35          6           0       -5.637239    3.783286   -2.312225
     36          1           0       -6.602656    4.152547   -1.979466
     37          7           0       -0.308830    0.117752   -5.352671
     38          1           0       -1.079360    0.459811   -5.908336
     39          6           0        0.971877   -0.031621   -6.019549
     40          1           0        1.381544   -1.018138   -5.773473
     41          6           0        1.939131    1.050412   -5.507126
     42          6           0        0.789376    0.101178   -7.533058
     43          1           0        1.741460   -0.044257   -8.048259
     44          1           0        0.420617    1.101597   -7.779272
     45          1           0        0.080809   -0.644978   -7.903005
     46          8           0        1.540126    2.182586   -5.230474
     47          7           0        3.241613    0.686198   -5.426982
     48          1           0        3.474171   -0.275423   -5.631332
     49          6           0        4.173636    1.422892   -4.566568
     50          1           0        3.559721    1.869166   -3.777058
     51          6           0        4.881408    2.623235   -5.238543
     52          6           0        5.176516    0.460688   -3.927167
     53          1           0        5.929667    0.153503   -4.657576
     54          1           0        4.631818   -0.429941   -3.593821
     55          8           0        6.098278    2.785473   -5.142225
     56          6           0        5.862390    1.124132   -2.724305
     57          1           0        6.441589    1.975890   -3.104305
     58          1           0        5.128562    1.524181   -2.022008
     59          6           0        6.822574    0.258660   -1.975975
     60          8           0        7.028981    0.332616   -0.763169
     61          8           0        7.499597   -0.599828   -2.739067
     62          7           0        4.036645    3.525367   -5.793606
     63          1           0        3.043690    3.311753   -5.703316
     64          6           0        4.398562    4.935886   -5.961361
     65          1           0        5.458176    5.007540   -5.695494
     66          6           0        3.559165    5.771674   -4.951114
     67          6           0        4.181939    5.427794   -7.387009
     68          1           0        4.418080    6.490734   -7.455855
     69          1           0        3.137347    5.302141   -7.685389
     70          1           0        4.817779    4.866220   -8.075224
     71          8           0        3.017129    6.820883   -5.273443
     72          7           0        3.473750    5.192765   -3.720351
     73          1           0        3.962117    4.315497   -3.589768
     74          6           0        2.372216    5.301256   -2.769335
     75          1           0        2.493867    6.185070   -2.132084
     76          6           0        2.496408    4.032071   -1.896545
     77          6           0        1.010260    5.373560   -3.507808
     78          1           0        1.141296    6.135870   -4.279660
     79          1           0        0.860079    4.417874   -4.024125
     80          8           0        3.363559    3.176323   -2.149523
     81          6           0       -0.249281    5.740201   -2.701737
     82          1           0       -0.541150    4.903213   -2.058851
     83          6           0       -0.051320    6.973985   -1.811191
     84          1           0        0.306903    7.826480   -2.399581
     85          1           0        0.669758    6.802903   -1.004326
     86          1           0       -0.995840    7.261348   -1.339769
     87          6           0       -1.403033    5.982851   -3.684878
     88          1           0       -1.205459    6.866874   -4.301562
     89          1           0       -2.345813    6.140256   -3.153032
     90          1           0       -1.540220    5.132221   -4.359622
     91          7           0        1.628800    3.871520   -0.885816
     92          1           0        0.855510    4.517803   -0.746249
     93          6           0        1.327723    2.553261   -0.329061
     94          1           0        1.539167    1.797997   -1.093122
     95          6           0       -0.193009    2.504660   -0.030356
     96          6           0        2.123336    2.221946    0.941706
     97          1           0        1.652358    1.343920    1.397060
     98          1           0        2.018802    3.056648    1.646286
     99          8           0       -0.659440    1.340806    0.162048
    100          6           0        3.598965    1.936847    0.663330
    101          1           0        4.051502    2.771319    0.121932
    102          1           0        3.671499    1.062329    0.004770
    103          6           0        4.394127    1.664241    1.936569
    104          1           0        3.917821    0.874346    2.531998
    105          1           0        4.436436    2.575302    2.547975
    106          7           0        5.753294    1.246633    1.573563
    107          1           0        5.977453    1.109284    0.584282
    108          7           0        6.554415    1.111961    3.747828
    109          1           0        7.189372    0.701501    4.412756
    110          1           0        5.733197    1.572904    4.103268
    111          7           0        7.831319    0.326339    1.973832
    112          1           0        7.914531    0.167352    0.973434
    113          1           0        8.666762    0.329490    2.536745
    114          6           0        6.705984    0.904209    2.427849
    115          8           0       -0.810504    3.591358   -0.020940
    116          1           0        8.123355   -1.085545   -2.172976
 ---------------------------------------------------------------------

 SCF Done:  E(RB3LYP) =  -2782.69862339     A.U. after    2 cycles

 Alpha  occ. eigenvalues --  -19.30516 -19.25822 -19.25058 -19.20618 -19.19927
 Alpha  occ. eigenvalues --  -19.19454 -19.18765 -19.17532 -19.15674 -19.15132
 Alpha  occ. eigenvalues --  -19.14948 -14.53251 -14.50696 -14.49256 -14.49001
 Alpha  occ. eigenvalues --  -14.44207 -14.43882 -14.43184 -14.41433 -14.40545
 Alpha  occ. eigenvalues --  -14.39295 -10.46071 -10.43356 -10.37450 -10.36675
 Alpha  occ. eigenvalues --  -10.36329 -10.35241 -10.34341 -10.34030 -10.33746
 Alpha  occ. eigenvalues --  -10.32930 -10.32847 -10.32714 -10.31737 -10.31020
 Alpha  occ. eigenvalues --  -10.29838 -10.28768 -10.27775 -10.27774 -10.27537
 Alpha  occ. eigenvalues --  -10.27387 -10.27277 -10.26772 -10.26617 -10.26526
 Alpha  occ. eigenvalues --  -10.26279 -10.26069 -10.25972 -10.25915 -10.25856
 Alpha  occ. eigenvalues --  -10.25464 -10.24895 -10.23177 -10.22539 -10.21785
 Alpha  occ. eigenvalues --  -10.21665 -10.21432  -1.21883  -1.14876  -1.13507
 Alpha  occ. eigenvalues --   -1.12451  -1.12324  -1.12039  -1.10840  -1.10493
 Alpha  occ. eigenvalues --   -1.09163  -1.08381  -1.07351  -1.07327  -1.03887
 Alpha  occ. eigenvalues --   -1.03038  -1.00940  -1.00591  -1.00534  -0.99763
 Alpha  occ. eigenvalues --   -0.98201  -0.97857  -0.95942  -0.92582  -0.88965
 Alpha  occ. eigenvalues --   -0.88875  -0.88080  -0.86455  -0.85583  -0.84924
 Alpha  occ. eigenvalues --   -0.82823  -0.82396  -0.81276  -0.81105  -0.80296
 Alpha  occ. eigenvalues --   -0.78882  -0.78515  -0.77046  -0.74810  -0.74270
 Alpha  occ. eigenvalues --   -0.73471  -0.72694  -0.72369  -0.72055  -0.71258
 Alpha  occ. eigenvalues --   -0.70836  -0.70221  -0.68869  -0.68024  -0.67857
 Alpha  occ. eigenvalues --   -0.67671  -0.67403  -0.66533  -0.65828  -0.65541
 Alpha  occ. eigenvalues --   -0.65307  -0.65081  -0.64400  -0.63970  -0.63409
 Alpha  occ. eigenvalues --   -0.62904  -0.62092  -0.61596  -0.60898  -0.60438
 Alpha  occ. eigenvalues --   -0.60079  -0.59610  -0.59307  -0.59002  -0.58728
 Alpha  occ. eigenvalues --   -0.58213  -0.57816  -0.57567  -0.57198  -0.56897
 Alpha  occ. eigenvalues --   -0.56078  -0.55487  -0.55047  -0.54808  -0.54748
 Alpha  occ. eigenvalues --   -0.54199  -0.53638  -0.53448  -0.53139  -0.52466
 Alpha  occ. eigenvalues --   -0.52308  -0.51944  -0.51569  -0.51252  -0.51034
 Alpha  occ. eigenvalues --   -0.50850  -0.50560  -0.50156  -0.49649  -0.49619
 Alpha  occ. eigenvalues --   -0.49339  -0.49138  -0.48875  -0.48673  -0.48330
 Alpha  occ. eigenvalues --   -0.48165  -0.47769  -0.47415  -0.47354  -0.46910
 Alpha  occ. eigenvalues --   -0.46893  -0.46637  -0.46559  -0.46338  -0.46153
 Alpha  occ. eigenvalues --   -0.45897  -0.45668  -0.45564  -0.45087  -0.45021
 Alpha  occ. eigenvalues --   -0.44715  -0.44575  -0.44287  -0.43973  -0.43600
 Alpha  occ. eigenvalues --   -0.43337  -0.43033  -0.42910  -0.42847  -0.42611
 Alpha  occ. eigenvalues --   -0.42466  -0.42148  -0.42097  -0.41781  -0.41437
 Alpha  occ. eigenvalues --   -0.41380  -0.41092  -0.41064  -0.40830  -0.40724
 Alpha  occ. eigenvalues --   -0.40403  -0.39519  -0.39410  -0.39031  -0.38587
 Alpha  occ. eigenvalues --   -0.37461  -0.37371  -0.37011  -0.36581  -0.35418
 Alpha  occ. eigenvalues --   -0.35075  -0.34735  -0.34095  -0.33305  -0.33071
 Alpha  occ. eigenvalues --   -0.32953  -0.32656  -0.32233  -0.31967  -0.31133
 Alpha  occ. eigenvalues --   -0.30782  -0.30270  -0.29434  -0.29225  -0.28699
 Alpha  occ. eigenvalues --   -0.28112
 Alpha virt. eigenvalues --   -0.10268  -0.09764  -0.08736  -0.07473  -0.07212
 Alpha virt. eigenvalues --   -0.06407  -0.06131  -0.05181  -0.04691  -0.04215
 Alpha virt. eigenvalues --   -0.02719  -0.02622  -0.02424  -0.01842  -0.01283

 Mulliken charges:
               1
     1  N   -0.543158
     2  H    0.337494
     3  H    0.340034
     4  H    0.341922
     5  C   -0.085509
     6  H    0.204869
     7  C    0.612581
     8  C    0.164555
     9  H    0.106344
    10  O   -0.559277
    11  C   -0.335565
    12  H    0.132412
    13  H    0.102960
    14  H    0.164951
    15  O   -0.567015
    16  H    0.328792
    17  N   -0.518847
    18  H    0.330996
    19  C   -0.067948
    20  H    0.145798
    21  C    0.637501
    22  C   -0.240002
    23  H    0.141202
    24  H    0.119856
    25  O   -0.528770
    26  C    0.110660
    27  C   -0.087318
    28  H    0.083591
    29  C   -0.143513
    30  H    0.166210
    31  C   -0.083212
    32  H    0.103275
    33  C   -0.190375
    34  H    0.108366
    35  C   -0.091187
    36  H    0.101386
    37  N   -0.520338
    38  H    0.270064
    39  C    0.008401
    40  H    0.121438
    41  C    0.641699
    42  C   -0.348885
    43  H    0.134781
    44  H    0.136854
    45  H    0.133456
    46  O   -0.550349
    47  N   -0.537901
    48  H    0.267626
    49  C   -0.034706
    50  H    0.190064
    51  C    0.590019
    52  C   -0.209572
    53  H    0.143318
    54  H    0.105063
    55  O   -0.531909
    56  C   -0.288017
    57  H    0.202162
    58  H    0.160737
    59  C    0.598108
    60  O   -0.538155
    61  O   -0.437928
    62  N   -0.525849
    63  H    0.297996
    64  C   -0.039874
    65  H    0.155204
    66  C    0.581802
    67  C   -0.291063
    68  H    0.134461
    69  H    0.109092
    70  H    0.107621
    71  O   -0.515006
    72  N   -0.553257
    73  H    0.285035
    74  C    0.011605
    75  H    0.133456
    76  C    0.593913
    77  C   -0.206537
    78  H    0.152013
    79  H    0.114479
    80  O   -0.572901
    81  C   -0.096410
    82  H    0.105572
    83  C   -0.313831
    84  H    0.116595
    85  H    0.086822
    86  H    0.107524
    87  C   -0.314687
    88  H    0.109715
    89  H    0.104030
    90  H    0.091874
    91  N   -0.522894
    92  H    0.299905
    93  C   -0.024730
    94  H    0.140653
    95  C    0.581547
    96  C   -0.175113
    97  H    0.120479
    98  H    0.103740
    99  O   -0.618328
   100  C   -0.229526
   101  H    0.146536
   102  H    0.117173
   103  C   -0.048905
   104  H    0.132836
   105  H    0.129462
   106  N   -0.557588
   107  H    0.330163
   108  N   -0.621957
   109  H    0.309471
   110  H    0.315390
   111  N   -0.635640
   112  H    0.326410
   113  H    0.299669
   114  C    0.795453
   115  O   -0.566006
   116  H    0.332313
 Sum of Mulliken charges =   1.00000

 Dipole moment (field-independent basis, Debye):
    X=             11.3378    Y=             -3.6765    Z=              4.8713  Tot=             12.8760
 Quadrupole moment (field-independent basis, Debye-Ang):
   XX=           -112.4491   YY=           -358.4065   ZZ=           -256.9869
   XY=            -20.7310   XZ=             63.7087   YZ=             30.8773

 Normal termination of Gaussian 16 at Thu Sep  8 18:22:44 2022.
