 Gaussian 16, Revision C.01,
 Gaussian 16:  ES64L-G16RevC.01  3-Jul-2019

 ----------------------------------------------------------------------
 # B3LYP/6-31G** empiricaldispersion=gd3bj guess=read geom=check nosymm
  integral(ultrafinegrid)
 ----------------------------------------------------------------------

 ------------------------------------------------------
 Candidate Structure: Conf:472 Charge calc in gas phase
 ------------------------------------------------------
 Structure from the checkpoint file:  "conf-472.chk"
 Charge =  1 Multiplicity = 1

                          Input orientation:
 ---------------------------------------------------------------------
 Center     Atomic      Atomic             Coordinates (Angstroms)
 Number     Number       Type             X           Y           Z
 ---------------------------------------------------------------------
      1          7           0       -5.520013   -2.423873   -8.547459
      2          1           0       -5.274703   -3.306485   -8.068523
      3          1           0       -6.363412   -2.051960   -8.067380
      4          1           0       -5.654935   -2.546329   -9.558725
      5          6           0       -4.472043   -1.372566   -8.323289
      6          1           0       -3.493989   -1.852686   -8.384389
      7          6           0       -4.800940   -0.853083   -6.914229
      8          6           0       -4.622972   -0.309897   -9.420334
      9          1           0       -5.562406    0.233661   -9.238550
     10          8           0       -5.990741   -0.851514   -6.582998
     11          6           0       -3.448290    0.658362   -9.423760
     12          1           0       -3.372123    1.186749   -8.468929
     13          1           0       -3.580366    1.410873  -10.205872
     14          1           0       -2.512519    0.125246   -9.614507
     15          8           0       -4.718090   -1.076417  -10.622843
     16          1           0       -4.882502   -0.486972  -11.370891
     17          7           0       -3.774620   -0.507981   -6.139899
     18          1           0       -2.817131   -0.433543   -6.475896
     19          6           0       -3.895021   -0.360685   -4.700517
     20          1           0       -4.871684    0.069019   -4.471293
     21          6           0       -2.733870    0.550664   -4.276907
     22          6           0       -3.725332   -1.749809   -3.992653
     23          1           0       -2.653405   -1.955840   -3.914104
     24          1           0       -4.112318   -1.662747   -2.973454
     25          8           0       -1.753923    0.661174   -5.019170
     26          6           0       -4.393711   -2.883427   -4.734348
     27          6           0       -5.751799   -3.176444   -4.556321
     28          1           0       -6.329597   -2.608133   -3.834066
     29          6           0       -3.668734   -3.624173   -5.676626
     30          1           0       -2.608418   -3.426457   -5.807727
     31          6           0       -6.373460   -4.174402   -5.304117
     32          1           0       -7.424671   -4.391163   -5.144799
     33          6           0       -4.282839   -4.631913   -6.429537
     34          1           0       -3.691877   -5.227637   -7.119884
     35          6           0       -5.643270   -4.907078   -6.246043
     36          1           0       -6.119473   -5.707998   -6.803730
     37          7           0       -2.851094    1.107838   -3.067140
     38          1           0       -3.642421    0.925137   -2.452110
     39          6           0       -1.754582    1.780460   -2.386983
     40          1           0       -0.824406    1.253072   -2.625096
     41          6           0       -2.070635    1.632051   -0.887290
     42          6           0       -1.625279    3.250538   -2.806329
     43          1           0       -0.792623    3.729380   -2.284320
     44          1           0       -2.543424    3.795212   -2.570061
     45          1           0       -1.441355    3.307225   -3.881255
     46          8           0       -3.201300    1.298808   -0.518765
     47          7           0       -1.054498    1.902753   -0.056109
     48          1           0       -0.117630    2.109290   -0.391127
     49          6           0       -1.127656    1.723712    1.385636
     50          1           0       -2.021575    2.229119    1.767882
     51          6           0        0.147019    2.376463    1.935112
     52          6           0       -1.193719    0.217521    1.729577
     53          1           0       -0.285516   -0.262890    1.356752
     54          1           0       -2.031791   -0.197703    1.166470
     55          8           0        1.133438    2.515870    1.212761
     56          6           0       -1.375882   -0.100490    3.211791
     57          1           0       -0.487487    0.148457    3.806146
     58          1           0       -2.219340    0.454031    3.644947
     59          6           0       -1.643631   -1.571148    3.423552
     60          8           0       -1.625350   -2.425364    2.562396
     61          8           0       -1.903273   -1.845566    4.720639
     62          7           0        0.122811    2.754217    3.237861
     63          1           0       -0.651336    2.428815    3.800947
     64          6           0        1.381268    2.974704    3.957957
     65          1           0        1.988032    3.642846    3.342971
     66          6           0        2.068496    1.603501    4.114460
     67          6           0        1.094185    3.589373    5.323591
     68          1           0        2.031463    3.802752    5.843771
     69          1           0        0.525046    2.882862    5.935146
     70          1           0        0.530322    4.520261    5.221316
     71          8           0        1.448321    0.673331    4.641425
     72          7           0        3.308460    1.512094    3.618727
     73          1           0        3.811121    2.329634    3.289956
     74          6           0        4.100518    0.295399    3.593488
     75          1           0        3.784566   -0.341654    4.423010
     76          6           0        5.569894    0.720314    3.763280
     77          6           0        3.952589   -0.452632    2.248204
     78          1           0        4.318196    0.221335    1.462984
     79          1           0        4.628160   -1.316633    2.259762
     80          8           0        5.900331    1.906018    3.596907
     81          6           0        2.531297   -0.917726    1.898197
     82          1           0        1.872601   -0.044986    1.971906
     83          6           0        2.487464   -1.403948    0.444140
     84          1           0        3.153318   -2.262300    0.297684
     85          1           0        2.798965   -0.614935   -0.249157
     86          1           0        1.475407   -1.721611    0.168708
     87          6           0        2.020413   -2.001535    2.853967
     88          1           0        2.695621   -2.865462    2.854319
     89          1           0        1.031140   -2.354094    2.545370
     90          1           0        1.935757   -1.620654    3.874061
     91          7           0        6.407622   -0.280236    4.040786
     92          1           0        6.141358   -1.278528    4.033399
     93          6           0        7.851883   -0.224047    3.918867
     94          1           0        8.121688    0.234808    2.957528
     95          6           0        8.341526   -1.734359    3.923383
     96          6           0        8.492707    0.596350    5.044142
     97          1           0        8.374508    0.050944    5.990144
     98          1           0        7.922641    1.536233    5.125093
     99          8           0        9.578160   -1.904297    3.991297
    100          6           0        9.978449    0.852060    4.767279
    101          1           0       10.096923    1.567759    3.944240
    102          1           0       10.399481   -0.111440    4.452705
    103          6           0       10.726295    1.351065    5.992981
    104          1           0       11.761767    1.615937    5.751500
    105          1           0       10.724485    0.576790    6.770788
    106          7           0       10.053672    2.558770    6.524303
    107          1           0        9.106446    2.699918    6.190349
    108          7           0       11.652899    3.052682    8.120633
    109          1           0       12.168665    3.762814    8.615315
    110          1           0       12.110151    2.170457    7.951960
    111          7           0        9.898591    4.519027    7.759384
    112          1           0        9.076086    4.790463    7.242864
    113          1           0       10.030512    4.943759    8.664142
    114          6           0       10.524360    3.360310    7.459732
    115          8           0        7.408877   -2.574091    3.865879
    116          1           0       -2.024426   -2.808438    4.776867
 ---------------------------------------------------------------------

 SCF Done:  E(RB3LYP) =  -2782.60978148     A.U. after    3 cycles

 Alpha  occ. eigenvalues --  -19.28920 -19.24890 -19.23118 -19.20627 -19.18700
 Alpha  occ. eigenvalues --  -19.18099 -19.17599 -19.15011 -19.13145 -19.06055
 Alpha  occ. eigenvalues --  -19.05471 -14.57502 -14.49732 -14.49639 -14.48773
 Alpha  occ. eigenvalues --  -14.48215 -14.44151 -14.42364 -14.41943 -14.39223
 Alpha  occ. eigenvalues --  -14.35284 -10.45571 -10.42100 -10.38772 -10.38365
 Alpha  occ. eigenvalues --  -10.37754 -10.35797 -10.35645 -10.34828 -10.33929
 Alpha  occ. eigenvalues --  -10.32193 -10.30950 -10.30800 -10.30040 -10.29941
 Alpha  occ. eigenvalues --  -10.29833 -10.29831 -10.29658 -10.29512 -10.29502
 Alpha  occ. eigenvalues --  -10.29498 -10.29188 -10.29023 -10.28313 -10.25244
 Alpha  occ. eigenvalues --  -10.25068 -10.24302 -10.23918 -10.23856 -10.23505
 Alpha  occ. eigenvalues --  -10.22172 -10.21671 -10.21482 -10.20734 -10.20560
 Alpha  occ. eigenvalues --  -10.19650 -10.18227  -1.17928  -1.16236  -1.14298
 Alpha  occ. eigenvalues --   -1.14130  -1.12739  -1.11595  -1.10771  -1.09887
 Alpha  occ. eigenvalues --   -1.06915  -1.05065  -1.05048  -1.04502  -1.03142
 Alpha  occ. eigenvalues --   -1.02663  -1.00960  -0.99355  -0.99195  -0.98377
 Alpha  occ. eigenvalues --   -0.96084  -0.95711  -0.92766  -0.92332  -0.90450
 Alpha  occ. eigenvalues --   -0.89293  -0.86450  -0.85622  -0.85295  -0.84778
 Alpha  occ. eigenvalues --   -0.83965  -0.83305  -0.82214  -0.82047  -0.79057
 Alpha  occ. eigenvalues --   -0.78314  -0.77335  -0.77032  -0.75789  -0.75427
 Alpha  occ. eigenvalues --   -0.73154  -0.72401  -0.71951  -0.71150  -0.70987
 Alpha  occ. eigenvalues --   -0.70481  -0.70055  -0.69903  -0.69706  -0.69600
 Alpha  occ. eigenvalues --   -0.68474  -0.68153  -0.67428  -0.66001  -0.65604
 Alpha  occ. eigenvalues --   -0.65014  -0.64149  -0.63831  -0.63060  -0.62736
 Alpha  occ. eigenvalues --   -0.62403  -0.62280  -0.62246  -0.61340  -0.61164
 Alpha  occ. eigenvalues --   -0.60070  -0.58971  -0.58532  -0.58140  -0.58103
 Alpha  occ. eigenvalues --   -0.57659  -0.57302  -0.56238  -0.56195  -0.55563
 Alpha  occ. eigenvalues --   -0.55399  -0.54985  -0.54517  -0.54251  -0.53922
 Alpha  occ. eigenvalues --   -0.53550  -0.53330  -0.52932  -0.52296  -0.52072
 Alpha  occ. eigenvalues --   -0.52014  -0.51876  -0.51614  -0.51303  -0.51170
 Alpha  occ. eigenvalues --   -0.50920  -0.50460  -0.50133  -0.50005  -0.49516
 Alpha  occ. eigenvalues --   -0.49355  -0.49000  -0.48697  -0.48242  -0.47963
 Alpha  occ. eigenvalues --   -0.47482  -0.47283  -0.46859  -0.46608  -0.46430
 Alpha  occ. eigenvalues --   -0.46255  -0.46211  -0.46058  -0.45358  -0.45335
 Alpha  occ. eigenvalues --   -0.44982  -0.44714  -0.44288  -0.44088  -0.43922
 Alpha  occ. eigenvalues --   -0.43896  -0.43520  -0.43463  -0.43001  -0.42608
 Alpha  occ. eigenvalues --   -0.41870  -0.41585  -0.41509  -0.41370  -0.41368
 Alpha  occ. eigenvalues --   -0.41017  -0.40556  -0.40241  -0.39947  -0.39663
 Alpha  occ. eigenvalues --   -0.39654  -0.39406  -0.38908  -0.38766  -0.38306
 Alpha  occ. eigenvalues --   -0.38055  -0.37580  -0.36971  -0.36757  -0.35631
 Alpha  occ. eigenvalues --   -0.35414  -0.35402  -0.35387  -0.34537  -0.34427
 Alpha  occ. eigenvalues --   -0.34266  -0.34192  -0.34109  -0.33569  -0.33177
 Alpha  occ. eigenvalues --   -0.32601  -0.31858  -0.31378  -0.31280  -0.29090
 Alpha  occ. eigenvalues --   -0.28342  -0.27064  -0.26274  -0.21395  -0.20942
 Alpha  occ. eigenvalues --   -0.19732
 Alpha virt. eigenvalues --   -0.12344  -0.11151  -0.10746  -0.09741  -0.06465
 Alpha virt. eigenvalues --   -0.06187  -0.05890  -0.04754  -0.04021  -0.03792
 Alpha virt. eigenvalues --   -0.03272  -0.02544  -0.01867  -0.01342  -0.00959

 Mulliken charges:
               1
     1  N   -0.537293
     2  H    0.336804
     3  H    0.351195
     4  H    0.351101
     5  C   -0.080191
     6  H    0.162837
     7  C    0.640302
     8  C    0.167069
     9  H    0.128085
    10  O   -0.538110
    11  C   -0.344966
    12  H    0.143294
    13  H    0.140141
    14  H    0.140068
    15  O   -0.563077
    16  H    0.341158
    17  N   -0.514771
    18  H    0.292893
    19  C   -0.023356
    20  H    0.157183
    21  C    0.609873
    22  C   -0.250814
    23  H    0.138006
    24  H    0.146470
    25  O   -0.548774
    26  C    0.110458
    27  C   -0.081529
    28  H    0.112598
    29  C   -0.128461
    30  H    0.105184
    31  C   -0.084827
    32  H    0.119057
    33  C   -0.153970
    34  H    0.116407
    35  C   -0.126045
    36  H    0.116369
    37  N   -0.524964
    38  H    0.290533
    39  C   -0.016638
    40  H    0.145125
    41  C    0.611785
    42  C   -0.307993
    43  H    0.125610
    44  H    0.123509
    45  H    0.138160
    46  O   -0.552255
    47  N   -0.541187
    48  H    0.290186
    49  C   -0.013849
    50  H    0.129919
    51  C    0.612938
    52  C   -0.171371
    53  H    0.137506
    54  H    0.143676
    55  O   -0.539004
    56  C   -0.314924
    57  H    0.197682
    58  H    0.120952
    59  C    0.592740
    60  O   -0.475461
    61  O   -0.481925
    62  N   -0.512593
    63  H    0.271291
    64  C   -0.012996
    65  H    0.127530
    66  C    0.616150
    67  C   -0.336855
    68  H    0.123536
    69  H    0.133736
    70  H    0.119310
    71  O   -0.550716
    72  N   -0.496310
    73  H    0.277499
    74  C   -0.038154
    75  H    0.139747
    76  C    0.592116
    77  C   -0.154843
    78  H    0.093949
    79  H    0.124161
    80  O   -0.589949
    81  C   -0.059872
    82  H    0.088802
    83  C   -0.317758
    84  H    0.108667
    85  H    0.092268
    86  H    0.090214
    87  C   -0.343938
    88  H    0.101822
    89  H    0.103874
    90  H    0.127764
    91  N   -0.531230
    92  H    0.290100
    93  C   -0.027589
    94  H    0.103815
    95  C    0.580847
    96  C   -0.190304
    97  H    0.099245
    98  H    0.084267
    99  O   -0.589745
   100  C   -0.231814
   101  H    0.101651
   102  H    0.197192
   103  C   -0.084125
   104  H    0.129014
   105  H    0.149251
   106  N   -0.515067
   107  H    0.298591
   108  N   -0.614334
   109  H    0.311356
   110  H    0.324108
   111  N   -0.623413
   112  H    0.315212
   113  H    0.309663
   114  C    0.796797
   115  O   -0.598267
   116  H    0.325209
 Sum of Mulliken charges =   1.00000

 Dipole moment (field-independent basis, Debye):
    X=             -5.1936    Y=             12.9146    Z=            -13.9959  Tot=             19.7394
 Quadrupole moment (field-independent basis, Debye-Ang):
   XX=            -26.5933   YY=           -269.8513   ZZ=            141.3285
   XY=            220.0681   XZ=            367.1316   YZ=            185.4713

 Normal termination of Gaussian 16 at Thu Sep  8 18:22:23 2022.
