 Gaussian 16, Revision C.01,
 Gaussian 16:  ES64L-G16RevC.01  3-Jul-2019

 ----------------------------------------------------------------------
 # B3LYP/6-31G** empiricaldispersion=gd3bj guess=read geom=check nosymm
  integral(ultrafinegrid)
 ----------------------------------------------------------------------

 ------------------------------------------------------
 Candidate Structure: Conf:883 Charge calc in gas phase
 ------------------------------------------------------
 Structure from the checkpoint file:  "conf-883.chk"
 Charge =  1 Multiplicity = 1

                          Input orientation:
 ---------------------------------------------------------------------
 Center     Atomic      Atomic             Coordinates (Angstroms)
 Number     Number       Type             X           Y           Z
 ---------------------------------------------------------------------
      1          7           0       -4.765322    1.245640   -0.342093
      2          1           0       -3.928796    1.381438    0.422969
      3          1           0       -5.619583    1.559255    0.144346
      4          1           0       -4.807582    0.265417   -0.618453
      5          6           0       -4.606637    2.183677   -1.503091
      6          1           0       -5.199934    1.790796   -2.334941
      7          6           0       -3.111447    2.212119   -1.859371
      8          6           0       -5.135831    3.590313   -1.039790
      9          1           0       -4.262034    4.243759   -0.984779
     10          8           0       -2.370599    3.080230   -1.408020
     11          6           0       -6.157062    4.133432   -2.025781
     12          1           0       -5.733917    4.192817   -3.034042
     13          1           0       -6.472933    5.133046   -1.721033
     14          1           0       -7.043084    3.490525   -2.056797
     15          8           0       -5.735352    3.486742    0.242143
     16          1           0       -5.006812    3.617921    0.898962
     17          7           0       -2.645043    1.169585   -2.596869
     18          1           0       -3.248218    0.438989   -2.951501
     19          6           0       -1.232823    0.857889   -2.483332
     20          1           0       -0.707533    1.813482   -2.422800
     21          6           0       -0.703800    0.048223   -3.654479
     22          6           0       -0.961455    0.108058   -1.146892
     23          1           0        0.116896    0.000808   -1.061753
     24          1           0       -1.304805    0.785162   -0.366304
     25          8           0       -1.407698   -0.682322   -4.333615
     26          6           0       -1.622395   -1.243120   -0.966509
     27          6           0       -2.568340   -1.423128    0.054820
     28          1           0       -2.802240   -0.590062    0.707508
     29          6           0       -1.270167   -2.362308   -1.735323
     30          1           0       -0.525219   -2.288022   -2.512074
     31          6           0       -3.158919   -2.668406    0.287110
     32          1           0       -3.877196   -2.781491    1.093833
     33          6           0       -1.866962   -3.603458   -1.515212
     34          1           0       -1.596129   -4.434677   -2.160091
     35          6           0       -2.816863   -3.764126   -0.503868
     36          1           0       -3.280911   -4.730557   -0.334020
     37          7           0        0.666118    0.151950   -3.783814
     38          1           0        1.098486    0.709885   -3.055828
     39          6           0        1.483024   -1.001327   -4.142218
     40          1           0        0.802643   -1.788879   -4.488001
     41          6           0        2.135552   -1.487586   -2.834801
     42          6           0        2.494033   -0.678485   -5.246503
     43          1           0        3.070988   -1.560611   -5.539442
     44          1           0        3.194444    0.099059   -4.925398
     45          1           0        1.961227   -0.317030   -6.127572
     46          8           0        1.763078   -1.050342   -1.748364
     47          7           0        3.170346   -2.378301   -2.867630
     48          1           0        3.326972   -2.904714   -3.715679
     49          6           0        3.478049   -3.014650   -1.579780
     50          1           0        2.527846   -3.126325   -1.048456
     51          6           0        4.225850   -2.086229   -0.610943
     52          6           0        4.073268   -4.413507   -1.720233
     53          1           0        4.215298   -4.782916   -0.702742
     54          1           0        5.057572   -4.386058   -2.198783
     55          8           0        4.314822   -2.393201    0.575143
     56          6           0        3.141436   -5.369468   -2.515270
     57          1           0        3.331822   -5.304976   -3.588623
     58          1           0        3.330051   -6.400002   -2.203720
     59          6           0        1.676155   -5.032663   -2.319173
     60          8           0        0.989918   -4.461869   -3.144765
     61          8           0        1.225504   -5.368858   -1.095650
     62          7           0        4.671330   -0.899395   -1.108366
     63          1           0        4.422388   -0.706356   -2.068901
     64          6           0        4.807894    0.265249   -0.228693
     65          1           0        5.312237   -0.077262    0.677230
     66          6           0        3.378915    0.744957    0.124950
     67          6           0        5.623022    1.350581   -0.914001
     68          1           0        5.733336    2.217787   -0.258026
     69          1           0        5.123646    1.676049   -1.832204
     70          1           0        6.615755    0.973553   -1.167531
     71          8           0        2.766016    1.561135   -0.585865
     72          7           0        2.843481    0.152555    1.201386
     73          1           0        3.379419   -0.605129    1.607873
     74          6           0        1.434093    0.228451    1.561404
     75          1           0        0.848376   -0.115810    0.707509
     76          6           0        0.998012    1.678176    1.859248
     77          6           0        1.156046   -0.692254    2.763635
     78          1           0        1.712616   -0.312873    3.629511
     79          1           0        0.093101   -0.600516    3.013263
     80          8           0        1.824275    2.570837    2.093740
     81          6           0        1.482504   -2.183127    2.543862
     82          1           0        2.559429   -2.296837    2.366167
     83          6           0        1.142656   -2.967414    3.816865
     84          1           0        0.068634   -2.917139    4.030715
     85          1           0        1.676951   -2.573014    4.687223
     86          1           0        1.411874   -4.021921    3.707083
     87          6           0        0.757107   -2.768036    1.327140
     88          1           0       -0.330608   -2.708945    1.443728
     89          1           0        1.027042   -3.820981    1.202052
     90          1           0        1.019004   -2.249647    0.401856
     91          7           0       -0.336517    1.837747    1.850813
     92          1           0       -0.925346    1.038044    1.642788
     93          6           0       -1.137591    3.047026    2.069104
     94          1           0       -1.181711    3.266548    3.144681
     95          6           0       -2.596561    2.740693    1.635308
     96          6           0       -0.615615    4.291052    1.326083
     97          1           0       -1.485620    4.871256    1.015237
     98          1           0       -0.122522    3.950090    0.411121
     99          8           0       -3.409331    3.674950    1.655449
    100          6           0        0.315001    5.175472    2.174489
    101          1           0        0.841195    4.573258    2.918435
    102          1           0       -0.267770    5.927125    2.715749
    103          6           0        1.359068    5.900570    1.328476
    104          1           0        1.954191    6.575007    1.957622
    105          1           0        0.869989    6.498441    0.549113
    106          7           0        2.230409    4.909824    0.685240
    107          1           0        2.204962    3.958447    1.085357
    108          7           0        3.201434    6.422148   -0.781168
    109          1           0        3.528284    6.612630   -1.714010
    110          1           0        2.878725    7.199342   -0.229541
    111          7           0        3.542745    4.148188   -1.060231
    112          1           0        3.273364    3.164991   -0.890788
    113          1           0        4.298164    4.341830   -1.697048
    114          6           0        2.984403    5.152205   -0.375190
    115          8           0       -2.836209    1.525389    1.288541
    116          1           0        0.314433   -5.028870   -1.016194
 ---------------------------------------------------------------------

 SCF Done:  E(RB3LYP) =  -2782.72686275     A.U. after    2 cycles

 Alpha  occ. eigenvalues --  -19.28140 -19.22789 -19.22744 -19.22142 -19.21150
 Alpha  occ. eigenvalues --  -19.21060 -19.21028 -19.20522 -19.20453 -19.20305
 Alpha  occ. eigenvalues --  -19.18687 -14.49591 -14.49224 -14.47245 -14.47070
 Alpha  occ. eigenvalues --  -14.46889 -14.45445 -14.45441 -14.45208 -14.44111
 Alpha  occ. eigenvalues --  -14.44056 -10.44390 -10.40889 -10.39290 -10.38646
 Alpha  occ. eigenvalues --  -10.38279 -10.38232 -10.37689 -10.37236 -10.37060
 Alpha  occ. eigenvalues --  -10.33394 -10.33177 -10.33044 -10.32954 -10.32806
 Alpha  occ. eigenvalues --  -10.31669 -10.31651 -10.31445 -10.30860 -10.29416
 Alpha  occ. eigenvalues --  -10.29215 -10.28202 -10.27819 -10.27236 -10.26932
 Alpha  occ. eigenvalues --  -10.26882 -10.26456 -10.26385 -10.26247 -10.26152
 Alpha  occ. eigenvalues --  -10.26105 -10.26010 -10.25985 -10.25961 -10.24655
 Alpha  occ. eigenvalues --  -10.23732 -10.23648  -1.19134  -1.15490  -1.13832
 Alpha  occ. eigenvalues --   -1.13545  -1.13108  -1.12929  -1.12764  -1.12123
 Alpha  occ. eigenvalues --   -1.11702  -1.10081  -1.09312  -1.05148  -1.03505
 Alpha  occ. eigenvalues --   -1.03481  -1.02440  -1.02291  -1.01599  -1.01525
 Alpha  occ. eigenvalues --   -1.01253  -1.01094  -1.00561  -0.92972  -0.90246
 Alpha  occ. eigenvalues --   -0.89312  -0.88236  -0.87910  -0.86918  -0.85826
 Alpha  occ. eigenvalues --   -0.85005  -0.84397  -0.82169  -0.81794  -0.81744
 Alpha  occ. eigenvalues --   -0.81286  -0.78172  -0.77122  -0.75617  -0.75311
 Alpha  occ. eigenvalues --   -0.74907  -0.74642  -0.74075  -0.73334  -0.72145
 Alpha  occ. eigenvalues --   -0.70745  -0.69958  -0.69548  -0.68922  -0.68545
 Alpha  occ. eigenvalues --   -0.68183  -0.67829  -0.67374  -0.67006  -0.66731
 Alpha  occ. eigenvalues --   -0.66566  -0.65923  -0.65380  -0.64993  -0.64559
 Alpha  occ. eigenvalues --   -0.63581  -0.63315  -0.62510  -0.62447  -0.61867
 Alpha  occ. eigenvalues --   -0.61386  -0.60484  -0.59851  -0.59506  -0.59368
 Alpha  occ. eigenvalues --   -0.58751  -0.58496  -0.58123  -0.57556  -0.57349
 Alpha  occ. eigenvalues --   -0.56948  -0.56656  -0.56234  -0.55715  -0.55465
 Alpha  occ. eigenvalues --   -0.55131  -0.54735  -0.54376  -0.53997  -0.53844
 Alpha  occ. eigenvalues --   -0.53623  -0.53393  -0.53290  -0.52775  -0.52584
 Alpha  occ. eigenvalues --   -0.52277  -0.52029  -0.51831  -0.51236  -0.51031
 Alpha  occ. eigenvalues --   -0.50874  -0.50604  -0.50500  -0.50276  -0.50132
 Alpha  occ. eigenvalues --   -0.49995  -0.49760  -0.49231  -0.49125  -0.48776
 Alpha  occ. eigenvalues --   -0.48716  -0.48497  -0.48370  -0.48045  -0.47872
 Alpha  occ. eigenvalues --   -0.47659  -0.47192  -0.47054  -0.46674  -0.46393
 Alpha  occ. eigenvalues --   -0.46148  -0.45803  -0.45746  -0.45636  -0.45533
 Alpha  occ. eigenvalues --   -0.45444  -0.45187  -0.45130  -0.44724  -0.44678
 Alpha  occ. eigenvalues --   -0.44328  -0.43704  -0.43533  -0.43473  -0.43088
 Alpha  occ. eigenvalues --   -0.42841  -0.42509  -0.41799  -0.41037  -0.40823
 Alpha  occ. eigenvalues --   -0.40591  -0.39971  -0.39895  -0.39611  -0.39275
 Alpha  occ. eigenvalues --   -0.39171  -0.38204  -0.37653  -0.37031  -0.36521
 Alpha  occ. eigenvalues --   -0.36165  -0.36108  -0.36021  -0.35513  -0.35357
 Alpha  occ. eigenvalues --   -0.34945  -0.34730  -0.34381  -0.34022  -0.33879
 Alpha  occ. eigenvalues --   -0.33776  -0.33630  -0.33472  -0.32551  -0.32432
 Alpha  occ. eigenvalues --   -0.31620
 Alpha virt. eigenvalues --   -0.09677  -0.09329  -0.08836  -0.08687  -0.08443
 Alpha virt. eigenvalues --   -0.08038  -0.07931  -0.06869  -0.06591  -0.06504
 Alpha virt. eigenvalues --   -0.04927  -0.03929  -0.03075  -0.02826  -0.02167

 Mulliken charges:
               1
     1  N   -0.606756
     2  H    0.422444
     3  H    0.329518
     4  H    0.305431
     5  C   -0.085302
     6  H    0.135087
     7  C    0.612255
     8  C    0.168267
     9  H    0.146839
    10  O   -0.511932
    11  C   -0.322096
    12  H    0.107819
    13  H    0.137287
    14  H    0.114208
    15  O   -0.589084
    16  H    0.355413
    17  N   -0.518573
    18  H    0.278739
    19  C   -0.030464
    20  H    0.147192
    21  C    0.586452
    22  C   -0.296639
    23  H    0.168679
    24  H    0.126367
    25  O   -0.507213
    26  C    0.114572
    27  C   -0.190039
    28  H    0.109528
    29  C   -0.086296
    30  H    0.096351
    31  C   -0.093247
    32  H    0.097406
    33  C   -0.138330
    34  H    0.110017
    35  C   -0.084992
    36  H    0.102272
    37  N   -0.495264
    38  H    0.272533
    39  C   -0.060870
    40  H    0.188994
    41  C    0.595623
    42  C   -0.312617
    43  H    0.109293
    44  H    0.107020
    45  H    0.153337
    46  O   -0.510614
    47  N   -0.561167
    48  H    0.282057
    49  C   -0.013900
    50  H    0.177079
    51  C    0.617717
    52  C   -0.214540
    53  H    0.165344
    54  H    0.128032
    55  O   -0.537116
    56  C   -0.254448
    57  H    0.132146
    58  H    0.157590
    59  C    0.563817
    60  O   -0.474514
    61  O   -0.467626
    62  N   -0.501665
    63  H    0.268404
    64  C   -0.026907
    65  H    0.149703
    66  C    0.656873
    67  C   -0.337886
    68  H    0.126443
    69  H    0.101661
    70  H    0.139448
    71  O   -0.606487
    72  N   -0.506953
    73  H    0.298401
    74  C   -0.016279
    75  H    0.143293
    76  C    0.637745
    77  C   -0.198183
    78  H    0.116378
    79  H    0.110743
    80  O   -0.583616
    81  C   -0.087432
    82  H    0.117012
    83  C   -0.311059
    84  H    0.104483
    85  H    0.106739
    86  H    0.112436
    87  C   -0.345328
    88  H    0.110953
    89  H    0.105974
    90  H    0.121022
    91  N   -0.541294
    92  H    0.294861
    93  C    0.013987
    94  H    0.145092
    95  C    0.629939
    96  C   -0.189331
    97  H    0.152694
    98  H    0.113119
    99  O   -0.557053
   100  C   -0.230997
   101  H    0.144388
   102  H    0.124189
   103  C   -0.072765
   104  H    0.129783
   105  H    0.125865
   106  N   -0.541018
   107  H    0.348289
   108  N   -0.625395
   109  H    0.302090
   110  H    0.309758
   111  N   -0.665380
   112  H    0.369701
   113  H    0.283900
   114  C    0.777314
   115  O   -0.642046
   116  H    0.335312
 Sum of Mulliken charges =   1.00000

 Dipole moment (field-independent basis, Debye):
    X=              9.1717    Y=              7.7079    Z=             -6.9859  Tot=             13.8684
 Quadrupole moment (field-independent basis, Debye-Ang):
   XX=           -247.8621   YY=           -219.4645   ZZ=           -312.5681
   XY=             34.4074   XZ=            -25.0517   YZ=             -5.3479

 Normal termination of Gaussian 16 at Thu Sep  8 18:23:27 2022.
