 Gaussian 16, Revision C.01,
 Gaussian 16:  ES64L-G16RevC.01  3-Jul-2019

 -------------------------------------------------------------------
 # B3LYP/6-31G* guess=read geom=check nosymm integral(ultrafinegrid)
 -------------------------------------------------------------------

 ------------------------------------------------------
 Candidate Structure: Conf:304 Charge calc in gas phase
 ------------------------------------------------------
 Structure from the checkpoint file:  "conf-304.chk"
 Charge =  1 Multiplicity = 1

                          Input orientation:
 ---------------------------------------------------------------------
 Center     Atomic      Atomic             Coordinates (Angstroms)
 Number     Number       Type             X           Y           Z
 ---------------------------------------------------------------------
      1          7           0      -10.294437   -2.778327    8.490539
      2          1           0      -11.286793   -2.722322    8.247270
      3          1           0       -9.853371   -3.616679    7.989098
      4          1           0      -10.209559   -2.867025    9.506554
      5          6           0       -9.471917   -1.634675    7.921404
      6          1           0      -10.165894   -0.872663    7.558111
      7          6           0       -8.737975   -2.334409    6.738625
      8          6           0       -8.551412   -1.036177    9.018313
      9          1           0       -9.221733   -0.804351    9.860822
     10          8           0       -8.768867   -3.578842    6.713322
     11          6           0       -7.479041   -2.026453    9.501105
     12          1           0       -6.763251   -2.257463    8.705367
     13          1           0       -6.921181   -1.586940   10.332922
     14          1           0       -7.893115   -2.977414    9.859887
     15          6           0       -7.929890    0.296530    8.568683
     16          1           0       -7.186552    0.167137    7.775997
     17          1           0       -8.691034    1.003255    8.218226
     18          1           0       -7.419785    0.760103    9.418271
     19          7           0       -8.136692   -1.555198    5.855592
     20          1           0       -8.084297   -0.538832    5.961580
     21          6           0       -7.288218   -2.021965    4.752495
     22          1           0       -6.736179   -2.900028    5.098635
     23          6           0       -6.320204   -0.835916    4.522461
     24          6           0       -8.143919   -2.413155    3.507391
     25          1           0       -8.900242   -3.104399    3.905606
     26          8           0       -6.598287    0.276239    4.995290
     27          6           0       -7.355150   -3.187595    2.428875
     28          1           0       -6.604955   -2.538855    1.960165
     29          1           0       -8.072076   -3.426868    1.633152
     30          6           0       -8.864724   -1.200434    2.900708
     31          1           0       -8.156797   -0.491347    2.456958
     32          1           0       -9.457983   -0.657456    3.644897
     33          1           0       -9.545837   -1.526516    2.107962
     34          6           0       -6.696775   -4.490554    2.900473
     35          1           0       -6.283728   -5.036531    2.046824
     36          1           0       -5.865008   -4.321327    3.595356
     37          1           0       -7.419429   -5.146025    3.401564
     38          7           0       -5.216729   -1.099481    3.816074
     39          1           0       -5.063990   -2.001662    3.366963
     40          6           0       -4.273226   -0.084095    3.366342
     41          1           0       -4.842278    0.798092    3.048614
     42          6           0       -3.579805   -0.708200    2.130538
     43          6           0       -3.295954    0.372013    4.487219
     44          1           0       -3.921498    0.755533    5.300608
     45          1           0       -2.724567    1.228464    4.110310
     46          8           0       -3.860186   -1.857820    1.778010
     47          6           0       -2.348411   -0.693745    4.995585
     48          6           0       -2.755489   -1.610737    5.975171
     49          1           0       -3.757394   -1.536605    6.392403
     50          6           0       -1.040515   -0.783382    4.497797
     51          1           0       -0.696181   -0.067993    3.754909
     52          6           0       -1.888031   -2.602863    6.432839
     53          1           0       -2.219420   -3.302919    7.195743
     54          6           0       -0.170576   -1.774400    4.955305
     55          1           0        0.839722   -1.825219    4.558767
     56          6           0       -0.592279   -2.689784    5.920452
     57          1           0        0.086411   -3.458984    6.278518
     58          7           0       -2.706856    0.088213    1.490644
     59          1           0       -2.399971    0.965352    1.901981
     60          6           0       -1.837270   -0.363138    0.406119
     61          1           0       -1.859514   -1.455341    0.398585
     62          6           0       -0.433302    0.168452    0.754681
     63          6           0       -2.336007    0.202326   -0.949007
     64          1           0       -2.342711    1.297124   -0.860155
     65          1           0       -3.382807   -0.112263   -1.059672
     66          8           0       -0.317159    1.216747    1.399659
     67          6           0       -1.543787   -0.201556   -2.209392
     68          1           0       -0.489834    0.065719   -2.067420
     69          6           0       -1.610032   -1.709187   -2.497071
     70          1           0       -2.645457   -2.029126   -2.674299
     71          1           0       -1.213974   -2.317037   -1.675001
     72          1           0       -1.018714   -1.951512   -3.385686
     73          6           0       -2.043869    0.594957   -3.424423
     74          1           0       -3.079559    0.331519   -3.676922
     75          1           0       -1.411904    0.388699   -4.294301
     76          1           0       -2.012459    1.674939   -3.231714
     77          7           0        0.598316   -0.565044    0.299909
     78          1           0        0.429796   -1.383852   -0.278526
     79          6           0        1.982807   -0.095772    0.242083
     80          1           0        1.983696    0.993341    0.262553
     81          6           0        2.502653   -0.600832   -1.120081
     82          6           0        2.797302   -0.613705    1.452834
     83          1           0        2.548581   -1.673999    1.590492
     84          1           0        2.419714   -0.079770    2.333125
     85          8           0        2.059665   -1.640927   -1.610933
     86          6           0        4.326312   -0.491951    1.375774
     87          1           0        4.767205   -0.889766    2.295457
     88          1           0        4.708694   -1.133376    0.568408
     89          6           0        4.949348    0.890615    1.131632
     90          8           0        6.137423    1.040313    1.499159
     91          8           0        4.252500    1.765884    0.504673
     92          7           0        3.411169    0.205992   -1.722024
     93          1           0        3.820491    0.951415   -1.147952
     94          6           0        3.910639   -0.063316   -3.054183
     95          1           0        3.340514   -0.918179   -3.427530
     96          6           0        5.416796   -0.356056   -3.063433
     97          6           0        3.664361    1.137275   -3.992734
     98          1           0        4.055866    2.050042   -3.528098
     99          1           0        4.228901    0.993672   -4.924357
    100          8           0        6.218233    0.275702   -2.376446
    101          6           0        2.182666    1.279440   -4.347171
    102          7           0        1.756782    2.561021   -4.549431
    103          1           0        0.819916    2.699408   -4.902976
    104          1           0        2.392928    3.343403   -4.564502
    105          8           0        1.437182    0.315813   -4.458220
    106          7           0        5.800658   -1.320401   -3.945229
    107          1           0        5.093031   -1.704103   -4.558102
    108          6           0        7.186191   -1.466116   -4.362495
    109          1           0        7.789650   -1.710944   -3.481700
    110          6           0        7.691089   -0.134120   -4.963606
    111          6           0        7.277542   -2.619487   -5.391820
    112          1           0        6.835914   -3.508169   -4.922973
    113          1           0        6.645902   -2.357347   -6.250172
    114          8           0        6.951176    0.606519   -5.604626
    115          6           0        8.683627   -2.914086   -5.865809
    116          6           0        9.118934   -2.505943   -7.134955
    117          1           0        8.425517   -1.993160   -7.797712
    118          6           0        9.597933   -3.583679   -5.042370
    119          1           0        9.286275   -3.932438   -4.059700
    120          6           0       10.419019   -2.744420   -7.568955
    121          1           0       10.750674   -2.433058   -8.554423
    122          6           0       10.905992   -3.824875   -5.459840
    123          1           0       11.599968   -4.347696   -4.804479
    124          8           0       12.586721   -3.603325   -7.197571
    125          1           0       13.113848   -4.050699   -6.517302
    126          6           0       11.322822   -3.399961   -6.726037
    127          7           0        8.999520    0.148744   -4.715243
    128          1           0        9.610369   -0.570771   -4.344162
    129          6           0        9.660753    1.307554   -5.288268
    130          1           0        9.081479    1.638042   -6.155100
    131          6           0       11.057044    0.887041   -5.728027
    132          6           0        9.783259    2.475619   -4.273197
    133          1           0       10.421656    2.137994   -3.444510
    134          1           0       10.306184    3.307138   -4.761586
    135          8           0       11.647923   -0.079463   -5.298637
    136          6           0        8.427100    2.932664   -3.723209
    137          1           0        7.824793    3.375115   -4.526725
    138          1           0        7.863794    2.064659   -3.365818
    139          6           0        8.581241    3.940672   -2.572914
    140          1           0        9.264279    3.556432   -1.807946
    141          1           0        9.007915    4.883742   -2.931669
    142          7           0        7.319929    4.257466   -1.903326
    143          1           0        6.697419    4.903348   -2.368367
    144          7           0        7.400427    2.428928   -0.442148
    145          1           0        6.953661    1.932800    0.375344
    146          1           0        7.852114    1.824072   -1.115521
    147          7           0        5.661417    3.924795   -0.296423
    148          1           0        5.068474    3.182188    0.168104
    149          1           0        5.292958    4.848769   -0.467894
    150          6           0        6.783506    3.521873   -0.896375
    151          8           0       11.585888    1.754420   -6.613496
    152          1           0       12.489634    1.440900   -6.810785
 ---------------------------------------------------------------------

 SCF Done:  E(RB3LYP) =  -3586.64811734     A.U. after    3 cycles

 Alpha  occ. eigenvalues --  -19.26078 -19.25671 -19.21874 -19.20729 -19.20047
 Alpha  occ. eigenvalues --  -19.17952 -19.16815 -19.16660 -19.15757 -19.15727
 Alpha  occ. eigenvalues --  -19.14907 -19.12786 -19.11687 -14.59142 -14.48402
 Alpha  occ. eigenvalues --  -14.43874 -14.43764 -14.41449 -14.41208 -14.41173
 Alpha  occ. eigenvalues --  -14.40433 -14.40389 -14.39609 -14.39482 -14.38631
 Alpha  occ. eigenvalues --  -10.42729 -10.39949 -10.37992 -10.37929 -10.37648
 Alpha  occ. eigenvalues --  -10.35055 -10.34073 -10.33772 -10.33579 -10.33576
 Alpha  occ. eigenvalues --  -10.33056 -10.32793 -10.31861 -10.30522 -10.30116
 Alpha  occ. eigenvalues --  -10.29992 -10.29544 -10.29275 -10.29260 -10.29154
 Alpha  occ. eigenvalues --  -10.28803 -10.28036 -10.27735 -10.27512 -10.25846
 Alpha  occ. eigenvalues --  -10.25564 -10.25442 -10.25332 -10.25240 -10.24996
 Alpha  occ. eigenvalues --  -10.24678 -10.24613 -10.24528 -10.24168 -10.23989
 Alpha  occ. eigenvalues --  -10.23864 -10.23727 -10.23664 -10.23549 -10.23419
 Alpha  occ. eigenvalues --  -10.23391 -10.23317 -10.23280 -10.22685 -10.22635
 Alpha  occ. eigenvalues --  -10.22086 -10.21725 -10.20578 -10.20237 -10.20207
 Alpha  occ. eigenvalues --   -1.18486  -1.16597  -1.13089  -1.12432  -1.09964
 Alpha  occ. eigenvalues --   -1.09792  -1.09109  -1.08064  -1.07631  -1.07550
 Alpha  occ. eigenvalues --   -1.07502  -1.06774  -1.06503  -1.05218  -1.05048
 Alpha  occ. eigenvalues --   -1.00557  -0.98042  -0.97925  -0.97715  -0.96779
 Alpha  occ. eigenvalues --   -0.96635  -0.96165  -0.95489  -0.94949  -0.94511
 Alpha  occ. eigenvalues --   -0.93293  -0.90436  -0.89821  -0.89706  -0.86199
 Alpha  occ. eigenvalues --   -0.85690  -0.85566  -0.84325  -0.84116  -0.82682
 Alpha  occ. eigenvalues --   -0.81718  -0.81107  -0.80977  -0.80790  -0.79957
 Alpha  occ. eigenvalues --   -0.79182  -0.79081  -0.79016  -0.77570  -0.77424
 Alpha  occ. eigenvalues --   -0.74780  -0.74683  -0.74332  -0.73255  -0.72711
 Alpha  occ. eigenvalues --   -0.72215  -0.71903  -0.71104  -0.70604  -0.69854
 Alpha  occ. eigenvalues --   -0.69134  -0.68830  -0.68424  -0.67294  -0.66676
 Alpha  occ. eigenvalues --   -0.66652  -0.66353  -0.65774  -0.65355  -0.65211
 Alpha  occ. eigenvalues --   -0.64868  -0.64297  -0.64161  -0.63921  -0.63570
 Alpha  occ. eigenvalues --   -0.63100  -0.62931  -0.62499  -0.61713  -0.61574
 Alpha  occ. eigenvalues --   -0.60986  -0.60714  -0.60007  -0.59717  -0.59201
 Alpha  occ. eigenvalues --   -0.58850  -0.58646  -0.58251  -0.57631  -0.56774
 Alpha  occ. eigenvalues --   -0.56467  -0.56123  -0.55953  -0.55860  -0.55295
 Alpha  occ. eigenvalues --   -0.55188  -0.54644  -0.54330  -0.54225  -0.54064
 Alpha  occ. eigenvalues --   -0.53469  -0.53230  -0.53046  -0.52735  -0.52668
 Alpha  occ. eigenvalues --   -0.52345  -0.52280  -0.51696  -0.51395  -0.51209
 Alpha  occ. eigenvalues --   -0.51192  -0.50948  -0.50515  -0.50443  -0.50399
 Alpha  occ. eigenvalues --   -0.50289  -0.50059  -0.49945  -0.49903  -0.49744
 Alpha  occ. eigenvalues --   -0.49557  -0.49528  -0.49288  -0.49143  -0.48829
 Alpha  occ. eigenvalues --   -0.48552  -0.48066  -0.47814  -0.47652  -0.47276
 Alpha  occ. eigenvalues --   -0.47217  -0.47006  -0.46805  -0.46695  -0.46610
 Alpha  occ. eigenvalues --   -0.46538  -0.46425  -0.46415  -0.46279  -0.45985
 Alpha  occ. eigenvalues --   -0.45780  -0.45685  -0.45523  -0.45367  -0.45105
 Alpha  occ. eigenvalues --   -0.44885  -0.44422  -0.44357  -0.44136  -0.43864
 Alpha  occ. eigenvalues --   -0.43716  -0.43676  -0.43464  -0.43400  -0.43371
 Alpha  occ. eigenvalues --   -0.42892  -0.42804  -0.42501  -0.42126  -0.41918
 Alpha  occ. eigenvalues --   -0.41598  -0.41578  -0.41354  -0.41179  -0.41099
 Alpha  occ. eigenvalues --   -0.41054  -0.40827  -0.40558  -0.40453  -0.40350
 Alpha  occ. eigenvalues --   -0.40059  -0.39750  -0.39648  -0.39631  -0.39486
 Alpha  occ. eigenvalues --   -0.39327  -0.38970  -0.38673  -0.38614  -0.37935
 Alpha  occ. eigenvalues --   -0.37722  -0.37501  -0.37475  -0.36849  -0.36630
 Alpha  occ. eigenvalues --   -0.36375  -0.35849  -0.35593  -0.34778  -0.33967
 Alpha  occ. eigenvalues --   -0.33921  -0.32377  -0.32163  -0.32143  -0.31882
 Alpha  occ. eigenvalues --   -0.31390  -0.31198  -0.31073  -0.30624  -0.30089
 Alpha  occ. eigenvalues --   -0.29973  -0.29626  -0.29513  -0.29457  -0.29394
 Alpha  occ. eigenvalues --   -0.29121  -0.28391  -0.28289  -0.27765  -0.27237
 Alpha  occ. eigenvalues --   -0.25979  -0.25945
 Alpha virt. eigenvalues --   -0.11565  -0.10643  -0.06625  -0.06259  -0.05124
 Alpha virt. eigenvalues --   -0.05040  -0.04889  -0.04809  -0.04127  -0.03609
 Alpha virt. eigenvalues --   -0.03420  -0.03415  -0.03142  -0.02308  -0.02188

 Mulliken charges:
               1
     1  N   -0.764230
     2  H    0.414470
     3  H    0.435951
     4  H    0.409554
     5  C   -0.103978
     6  H    0.209307
     7  C    0.652570
     8  C   -0.110752
     9  H    0.156710
    10  O   -0.552833
    11  C   -0.468998
    12  H    0.185809
    13  H    0.193778
    14  H    0.141096
    15  C   -0.479706
    16  H    0.191292
    17  H    0.165521
    18  H    0.188211
    19  N   -0.606629
    20  H    0.382445
    21  C   -0.080728
    22  H    0.193397
    23  C    0.632647
    24  C   -0.076049
    25  H    0.146639
    26  O   -0.564440
    27  C   -0.284495
    28  H    0.166771
    29  H    0.152742
    30  C   -0.462028
    31  H    0.167617
    32  H    0.134510
    33  H    0.164666
    34  C   -0.461276
    35  H    0.174119
    36  H    0.145634
    37  H    0.150683
    38  N   -0.617641
    39  H    0.384170
    40  C   -0.050146
    41  H    0.186343
    42  C    0.627959
    43  C   -0.381455
    44  H    0.176064
    45  H    0.165797
    46  O   -0.546365
    47  C    0.171452
    48  C   -0.178261
    49  H    0.100189
    50  C   -0.200373
    51  H    0.162786
    52  C   -0.126546
    53  H    0.123638
    54  C   -0.131849
    55  H    0.145367
    56  C   -0.127115
    57  H    0.137587
    58  N   -0.609789
    59  H    0.354225
    60  C   -0.077262
    61  H    0.183932
    62  C    0.624750
    63  C   -0.245333
    64  H    0.138678
    65  H    0.143732
    66  O   -0.559474
    67  C   -0.088343
    68  H    0.152689
    69  C   -0.449304
    70  H    0.134561
    71  H    0.135790
    72  H    0.172301
    73  C   -0.453150
    74  H    0.133008
    75  H    0.169296
    76  H    0.127464
    77  N   -0.611409
    78  H    0.364327
    79  C   -0.045572
    80  H    0.200203
    81  C    0.596057
    82  C   -0.254720
    83  H    0.137603
    84  H    0.159269
    85  O   -0.546989
    86  C   -0.365348
    87  H    0.161685
    88  H    0.164307
    89  C    0.619223
    90  O   -0.578874
    91  O   -0.624756
    92  N   -0.623507
    93  H    0.381456
    94  C   -0.082464
    95  H    0.205989
    96  C    0.649424
    97  C   -0.379823
    98  H    0.148954
    99  H    0.205181
   100  O   -0.556063
   101  C    0.617134
   102  N   -0.749364
   103  H    0.346603
   104  H    0.334373
   105  O   -0.500089
   106  N   -0.597676
   107  H    0.344344
   108  C   -0.027890
   109  H    0.168662
   110  C    0.641704
   111  C   -0.395968
   112  H    0.172119
   113  H    0.163448
   114  O   -0.547783
   115  C    0.155882
   116  C   -0.190500
   117  H    0.137694
   118  C   -0.202319
   119  H    0.133511
   120  C   -0.158270
   121  H    0.145866
   122  C   -0.183486
   123  H    0.128913
   124  O   -0.638344
   125  H    0.411992
   126  C    0.364242
   127  N   -0.606609
   128  H    0.356246
   129  C   -0.037733
   130  H    0.199638
   131  C    0.584842
   132  C   -0.271961
   133  H    0.148147
   134  H    0.163551
   135  O   -0.460536
   136  C   -0.289497
   137  H    0.151134
   138  H    0.193686
   139  C   -0.161196
   140  H    0.181002
   141  H    0.166314
   142  N   -0.598292
   143  H    0.332868
   144  N   -0.782365
   145  H    0.430259
   146  H    0.361993
   147  N   -0.792307
   148  H    0.422998
   149  H    0.331004
   150  C    0.769012
   151  O   -0.562506
   152  H    0.421985
 Sum of Mulliken charges =   1.00000

 Dipole moment (field-independent basis, Debye):
    X=            -23.1398    Y=             -1.5956    Z=             20.8236  Tot=             31.1708
 Quadrupole moment (field-independent basis, Debye-Ang):
   XX=             89.6627   YY=           -371.6396   ZZ=           -142.3088
   XY=            102.8558   XZ=           -392.6945   YZ=            -98.3814

 Normal termination of Gaussian 16 at Sat Aug 13 08:30:46 2022.
