 Gaussian 16, Revision C.01,
 Gaussian 16:  ES64L-G16RevC.01  3-Jul-2019

 -------------------------------------------------------------------
 # B3LYP/6-31G* guess=read geom=check nosymm integral(ultrafinegrid)
 -------------------------------------------------------------------

 ------------------------------------------------------
 Candidate Structure: Conf:885 Charge calc in gas phase
 ------------------------------------------------------
 Structure from the checkpoint file:  "conf-885.chk"
 Charge =  1 Multiplicity = 1

                          Input orientation:
 ---------------------------------------------------------------------
 Center     Atomic      Atomic             Coordinates (Angstroms)
 Number     Number       Type             X           Y           Z
 ---------------------------------------------------------------------
      1          7           0      -11.036098    0.803758    4.927048
      2          1           0      -11.417066    0.365441    4.088910
      3          1           0      -10.872032    0.061808    5.608056
      4          1           0      -11.718384    1.450102    5.317119
      5          6           0       -9.764045    1.482410    4.629818
      6          1           0       -9.888730    2.094265    3.724506
      7          6           0       -8.708175    0.413194    4.336932
      8          6           0       -9.318446    2.423422    5.765271
      9          1           0       -8.333758    2.799423    5.470083
     10          8           0       -8.899772   -0.771325    4.579327
     11          6           0      -10.251407    3.622796    5.902746
     12          1           0      -11.237779    3.321568    6.261611
     13          1           0       -9.845306    4.335341    6.624515
     14          1           0      -10.384004    4.145294    4.951811
     15          6           0       -9.178056    1.691167    7.094743
     16          1           0      -10.161573    1.405291    7.478286
     17          1           0       -8.575120    0.785171    6.998666
     18          1           0       -8.710080    2.339908    7.838909
     19          7           0       -7.535220    0.875189    3.840914
     20          1           0       -7.443573    1.837782    3.557426
     21          6           0       -6.476530   -0.034603    3.431636
     22          1           0       -6.410036   -0.807582    4.199450
     23          6           0       -5.179183    0.762884    3.402383
     24          6           0       -6.768965   -0.739934    2.083445
     25          1           0       -7.652815   -1.350775    2.280792
     26          8           0       -5.093045    1.846401    2.827906
     27          6           0       -5.620270   -1.660485    1.658956
     28          1           0       -4.727768   -1.046463    1.513100
     29          1           0       -5.872274   -2.061960    0.672725
     30          6           0       -7.072863    0.224755    0.940641
     31          1           0       -6.156504    0.720933    0.618829
     32          1           0       -7.790851    0.992381    1.229478
     33          1           0       -7.473508   -0.326780    0.088704
     34          6           0       -5.346464   -2.824142    2.600631
     35          1           0       -4.518206   -3.430329    2.230449
     36          1           0       -5.069053   -2.486322    3.607760
     37          1           0       -6.223987   -3.469598    2.696091
     38          7           0       -4.127278    0.215843    4.069045
     39          1           0       -4.107628   -0.779905    4.214024
     40          6           0       -2.829129    0.848145    3.955159
     41          1           0       -3.000149    1.922508    4.045951
     42          6           0       -2.244070    0.635063    2.547266
     43          6           0       -1.901378    0.393780    5.090400
     44          1           0       -2.219172    0.915903    5.995983
     45          1           0       -0.882078    0.718421    4.865295
     46          8           0       -2.398723   -0.409784    1.871985
     47          6           0       -1.950318   -1.091002    5.330321
     48          6           0       -2.628839   -1.611414    6.430815
     49          1           0       -3.097024   -0.930180    7.131260
     50          6           0       -1.344874   -1.970470    4.439772
     51          1           0       -0.866118   -1.556927    3.559069
     52          6           0       -2.725261   -2.987711    6.620494
     53          1           0       -3.264250   -3.375945    7.476540
     54          6           0       -1.434935   -3.346248    4.622691
     55          1           0       -0.945982   -4.007853    3.927610
     56          6           0       -2.125432   -3.860485    5.718714
     57          1           0       -2.193859   -4.931190    5.868492
     58          7           0       -1.517533    1.696786    2.109747
     59          1           0       -1.322400    2.446477    2.744192
     60          6           0       -0.987043    1.758292    0.760315
     61          1           0       -1.435489    0.925548    0.216880
     62          6           0        0.503812    1.474242    0.828517
     63          6           0       -1.358159    3.046387    0.057417
     64          1           0       -0.982850    3.001980   -0.967345
     65          1           0       -0.860160    3.893310    0.531055
     66          8           0        1.368997    2.334265    0.660533
     67          6           0       -2.874709    3.257565    0.041921
     68          1           0       -3.198038    3.448891    1.069568
     69          6           0       -3.217896    4.480286   -0.803082
     70          1           0       -2.935167    4.315152   -1.846332
     71          1           0       -2.694319    5.370570   -0.445316
     72          1           0       -4.290623    4.685439   -0.772467
     73          6           0       -3.620186    2.024115   -0.461832
     74          1           0       -3.272499    1.752455   -1.462726
     75          1           0       -4.692615    2.225130   -0.513191
     76          1           0       -3.485395    1.156876    0.189170
     77          7           0        0.804094    0.194119    1.139547
     78          1           0        0.044078   -0.464058    1.238862
     79          6           0        2.189027   -0.247445    1.225177
     80          1           0        2.731046    0.628383    1.596056
     81          6           0        2.758838   -0.569813   -0.162283
     82          6           0        2.377229   -1.387338    2.222194
     83          1           0        2.126205   -0.988535    3.209965
     84          1           0        3.440439   -1.642823    2.250840
     85          8           0        3.216004   -1.671622   -0.466740
     86          6           0        1.574802   -2.642548    1.927920
     87          1           0        0.501714   -2.500728    2.070822
     88          1           0        1.731410   -2.963221    0.896129
     89          6           0        2.037144   -3.828400    2.812378
     90          8           0        1.152694   -4.689491    3.016397
     91          8           0        3.224751   -3.865174    3.157912
     92          7           0        2.727787    0.446990   -1.047093
     93          1           0        2.454612    1.368923   -0.723224
     94          6           0        3.242273    0.260091   -2.392884
     95          1           0        3.063278   -0.787232   -2.652247
     96          6           0        4.755604    0.513354   -2.426954
     97          6           0        2.499451    1.136547   -3.388633
     98          1           0        1.431962    1.033875   -3.196186
     99          1           0        2.770455    2.187767   -3.272971
    100          8           0        5.262419    1.424140   -3.076310
    101          6           0        2.730097    0.667615   -4.814100
    102          7           0        2.639794    1.628336   -5.760069
    103          1           0        2.792198    1.348849   -6.718306
    104          1           0        2.460921    2.581639   -5.515635
    105          8           0        2.935952   -0.507799   -5.082135
    106          7           0        5.492093   -0.323695   -1.652696
    107          1           0        5.042829   -1.162054   -1.306207
    108          6           0        6.942492   -0.319305   -1.736823
    109          1           0        7.264599    0.722083   -1.807287
    110          6           0        7.370471   -1.089466   -2.981149
    111          6           0        7.545845   -1.000674   -0.500453
    112          1           0        7.125291   -0.522417    0.383551
    113          1           0        7.221730   -2.042853   -0.510218
    114          8           0        6.996447   -2.247054   -3.166555
    115          6           0        9.050061   -0.921237   -0.477447
    116          6           0        9.819289   -1.793099   -1.258817
    117          1           0        9.317818   -2.551474   -1.852808
    118          6           0        9.717483    0.046085    0.276244
    119          1           0        9.145756    0.726221    0.893907
    120          6           0       11.206434   -1.690978   -1.293384
    121          1           0       11.799675   -2.353345   -1.911744
    122          6           0       11.106131    0.152190    0.252692
    123          1           0       11.598438    0.912195    0.849644
    124          8           0       13.214160   -0.669500   -0.617864
    125          1           0       13.538533    0.037803   -0.054807
    126          6           0       11.850728   -0.717492   -0.537547
    127          7           0        8.186649   -0.421623   -3.831711
    128          1           0        8.544900    0.489403   -3.597052
    129          6           0        8.609280   -1.032015   -5.072108
    130          1           0        8.434843   -2.108314   -4.973211
    131          6           0       10.090690   -0.803018   -5.265018
    132          6           0        7.820910   -0.527255   -6.291710
    133          1           0        8.098868    0.509400   -6.499078
    134          1           0        8.125323   -1.131098   -7.144634
    135          8           0       10.760665   -0.009187   -4.659042
    136          6           0        6.324582   -0.640920   -6.046488
    137          1           0        6.104203   -1.616439   -5.607145
    138          1           0        6.018166    0.103358   -5.318674
    139          6           0        5.453710   -0.456942   -7.274525
    140          1           0        5.615693   -1.260278   -8.000797
    141          1           0        4.416077   -0.507642   -6.939714
    142          7           0        5.717026    0.863930   -7.889426
    143          1           0        6.698196    1.075371   -8.003597
    144          7           0        3.641290    0.938572   -8.944752
    145          1           0        3.168869    1.176194   -9.804530
    146          1           0        3.502772   -0.026057   -8.670501
    147          7           0        5.355936    2.429502   -9.574607
    148          1           0        4.651112    3.002059  -10.017041
    149          1           0        6.141937    2.959967   -9.216439
    150          6           0        4.917445    1.398632   -8.813499
    151          8           0       10.585339   -1.587891   -6.243159
    152          1           0       11.521963   -1.363510   -6.311479
 ---------------------------------------------------------------------

 SCF Done:  E(RB3LYP) =  -3586.47284319     A.U. after    3 cycles

 Alpha  occ. eigenvalues --  -19.25739 -19.25119 -19.20156 -19.20134 -19.19772
 Alpha  occ. eigenvalues --  -19.17925 -19.17718 -19.15875 -19.15692 -19.15614
 Alpha  occ. eigenvalues --  -19.13940 -19.00575 -19.00538 -14.63211 -14.51714
 Alpha  occ. eigenvalues --  -14.51664 -14.50883 -14.48093 -14.42926 -14.42724
 Alpha  occ. eigenvalues --  -14.42452 -14.41140 -14.39280 -14.38624 -14.38579
 Alpha  occ. eigenvalues --  -10.46637 -10.42432 -10.40887 -10.37996 -10.36539
 Alpha  occ. eigenvalues --  -10.35416 -10.34840 -10.34691 -10.32869 -10.32681
 Alpha  occ. eigenvalues --  -10.32467 -10.32225 -10.31800 -10.31452 -10.30827
 Alpha  occ. eigenvalues --  -10.30776 -10.29912 -10.29481 -10.27712 -10.27203
 Alpha  occ. eigenvalues --  -10.27152 -10.27015 -10.26546 -10.26297 -10.26113
 Alpha  occ. eigenvalues --  -10.24997 -10.24502 -10.24329 -10.24037 -10.23375
 Alpha  occ. eigenvalues --  -10.23270 -10.23138 -10.22358 -10.22030 -10.22024
 Alpha  occ. eigenvalues --  -10.21712 -10.21561 -10.21528 -10.21382 -10.21377
 Alpha  occ. eigenvalues --  -10.21319 -10.21171 -10.21057 -10.20716 -10.20334
 Alpha  occ. eigenvalues --  -10.20203 -10.19219 -10.18807 -10.16510 -10.13049
 Alpha  occ. eigenvalues --   -1.19672  -1.17235  -1.16303  -1.16075  -1.11857
 Alpha  occ. eigenvalues --   -1.10101  -1.08754  -1.08455  -1.08382  -1.07993
 Alpha  occ. eigenvalues --   -1.07800  -1.07287  -1.05993  -1.05248  -1.04914
 Alpha  occ. eigenvalues --   -1.04544  -0.99856  -0.98965  -0.98140  -0.97777
 Alpha  occ. eigenvalues --   -0.96636  -0.96211  -0.95863  -0.95092  -0.94378
 Alpha  occ. eigenvalues --   -0.89710  -0.89153  -0.88338  -0.88002  -0.87251
 Alpha  occ. eigenvalues --   -0.86677  -0.85428  -0.84456  -0.84156  -0.83401
 Alpha  occ. eigenvalues --   -0.82751  -0.81639  -0.81036  -0.80708  -0.78571
 Alpha  occ. eigenvalues --   -0.78539  -0.78194  -0.77247  -0.77124  -0.76908
 Alpha  occ. eigenvalues --   -0.76435  -0.76239  -0.76231  -0.75922  -0.73165
 Alpha  occ. eigenvalues --   -0.73145  -0.73127  -0.72855  -0.71963  -0.71386
 Alpha  occ. eigenvalues --   -0.70847  -0.70283  -0.69651  -0.69030  -0.68465
 Alpha  occ. eigenvalues --   -0.67632  -0.67445  -0.66554  -0.66043  -0.65162
 Alpha  occ. eigenvalues --   -0.65032  -0.64717  -0.64238  -0.64026  -0.63620
 Alpha  occ. eigenvalues --   -0.63459  -0.62973  -0.62934  -0.62705  -0.62300
 Alpha  occ. eigenvalues --   -0.61765  -0.61558  -0.61375  -0.60642  -0.60600
 Alpha  occ. eigenvalues --   -0.60258  -0.59615  -0.59455  -0.58984  -0.58498
 Alpha  occ. eigenvalues --   -0.58396  -0.57730  -0.57116  -0.56772  -0.56590
 Alpha  occ. eigenvalues --   -0.56178  -0.55656  -0.55093  -0.54888  -0.54763
 Alpha  occ. eigenvalues --   -0.54585  -0.54321  -0.53971  -0.53877  -0.53480
 Alpha  occ. eigenvalues --   -0.52937  -0.52596  -0.52509  -0.52256  -0.51869
 Alpha  occ. eigenvalues --   -0.51824  -0.51702  -0.51414  -0.51003  -0.50884
 Alpha  occ. eigenvalues --   -0.49870  -0.49686  -0.49600  -0.49463  -0.49328
 Alpha  occ. eigenvalues --   -0.49081  -0.48750  -0.48466  -0.48376  -0.48337
 Alpha  occ. eigenvalues --   -0.48045  -0.47869  -0.47678  -0.47637  -0.47512
 Alpha  occ. eigenvalues --   -0.47028  -0.46731  -0.46696  -0.46502  -0.46245
 Alpha  occ. eigenvalues --   -0.46036  -0.45946  -0.45530  -0.45273  -0.44949
 Alpha  occ. eigenvalues --   -0.44789  -0.44622  -0.44488  -0.44106  -0.44006
 Alpha  occ. eigenvalues --   -0.43923  -0.43807  -0.43738  -0.43698  -0.43416
 Alpha  occ. eigenvalues --   -0.43285  -0.43179  -0.43011  -0.42723  -0.42458
 Alpha  occ. eigenvalues --   -0.42402  -0.42275  -0.42066  -0.41971  -0.41910
 Alpha  occ. eigenvalues --   -0.41527  -0.41261  -0.41190  -0.40467  -0.40434
 Alpha  occ. eigenvalues --   -0.40233  -0.39976  -0.39743  -0.39690  -0.39491
 Alpha  occ. eigenvalues --   -0.39097  -0.39071  -0.38302  -0.38087  -0.38057
 Alpha  occ. eigenvalues --   -0.37859  -0.37501  -0.37342  -0.37250  -0.37040
 Alpha  occ. eigenvalues --   -0.36341  -0.36072  -0.35983  -0.35475  -0.35013
 Alpha  occ. eigenvalues --   -0.34618  -0.34120  -0.33848  -0.33813  -0.33790
 Alpha  occ. eigenvalues --   -0.33123  -0.32763  -0.32544  -0.31902  -0.31195
 Alpha  occ. eigenvalues --   -0.31035  -0.30894  -0.30789  -0.30334  -0.30119
 Alpha  occ. eigenvalues --   -0.28736  -0.28507  -0.28138  -0.27516  -0.27113
 Alpha  occ. eigenvalues --   -0.26833  -0.26725  -0.26057  -0.24188  -0.16328
 Alpha  occ. eigenvalues --   -0.15264  -0.14253
 Alpha virt. eigenvalues --   -0.13460  -0.12943  -0.11537  -0.08298  -0.07564
 Alpha virt. eigenvalues --   -0.06646  -0.06398  -0.05114  -0.04767  -0.03917
 Alpha virt. eigenvalues --   -0.03897  -0.03383  -0.03330  -0.02742  -0.02728

 Mulliken charges:
               1
     1  N   -0.715886
     2  H    0.434494
     3  H    0.431609
     4  H    0.420923
     5  C   -0.148017
     6  H    0.213179
     7  C    0.644853
     8  C   -0.114986
     9  H    0.193427
    10  O   -0.520919
    11  C   -0.468000
    12  H    0.136872
    13  H    0.205182
    14  H    0.172258
    15  C   -0.481375
    16  H    0.135007
    17  H    0.197560
    18  H    0.203625
    19  N   -0.617072
    20  H    0.350457
    21  C   -0.035528
    22  H    0.187858
    23  C    0.605494
    24  C   -0.086770
    25  H    0.141257
    26  O   -0.545795
    27  C   -0.296884
    28  H    0.194655
    29  H    0.146405
    30  C   -0.461941
    31  H    0.191167
    32  H    0.101140
    33  H    0.156334
    34  C   -0.459999
    35  H    0.189388
    36  H    0.134479
    37  H    0.146024
    38  N   -0.599046
    39  H    0.377506
    40  C   -0.071701
    41  H    0.166218
    42  C    0.657863
    43  C   -0.361634
    44  H    0.154886
    45  H    0.172653
    46  O   -0.556218
    47  C    0.126405
    48  C   -0.196982
    49  H    0.103546
    50  C   -0.170688
    51  H    0.143105
    52  C   -0.129815
    53  H    0.120418
    54  C   -0.141959
    55  H    0.215204
    56  C   -0.134856
    57  H    0.143157
    58  N   -0.583320
    59  H    0.339191
    60  C   -0.092538
    61  H    0.199733
    62  C    0.623373
    63  C   -0.262930
    64  H    0.137238
    65  H    0.150294
    66  O   -0.561838
    67  C   -0.069394
    68  H    0.137131
    69  C   -0.441345
    70  H    0.135773
    71  H    0.141688
    72  H    0.138360
    73  C   -0.476880
    74  H    0.132383
    75  H    0.141464
    76  H    0.180263
    77  N   -0.598044
    78  H    0.364024
    79  C   -0.084964
    80  H    0.173935
    81  C    0.632096
    82  C   -0.253697
    83  H    0.118550
    84  H    0.178298
    85  O   -0.526412
    86  C   -0.394199
    87  H    0.104168
    88  H    0.164525
    89  C    0.567595
    90  O   -0.592162
    91  O   -0.570578
    92  N   -0.630888
    93  H    0.366994
    94  C   -0.055464
    95  H    0.220077
    96  C    0.640766
    97  C   -0.384717
    98  H    0.182444
    99  H    0.165874
   100  O   -0.569174
   101  C    0.631459
   102  N   -0.768740
   103  H    0.340733
   104  H    0.343321
   105  O   -0.526777
   106  N   -0.608121
   107  H    0.385304
   108  C   -0.033935
   109  H    0.156194
   110  C    0.642495
   111  C   -0.385322
   112  H    0.167128
   113  H    0.192933
   114  O   -0.543630
   115  C    0.150621
   116  C   -0.194842
   117  H    0.151472
   118  C   -0.191892
   119  H    0.128756
   120  C   -0.154721
   121  H    0.135455
   122  C   -0.192072
   123  H    0.120231
   124  O   -0.642664
   125  H    0.407708
   126  C    0.354039
   127  N   -0.585211
   128  H    0.349904
   129  C   -0.054566
   130  H    0.220140
   131  C    0.579536
   132  C   -0.296292
   133  H    0.125769
   134  H    0.165308
   135  O   -0.448136
   136  C   -0.304061
   137  H    0.211569
   138  H    0.207717
   139  C   -0.212055
   140  H    0.176364
   141  H    0.208910
   142  N   -0.567319
   143  H    0.364082
   144  N   -0.751209
   145  H    0.372374
   146  H    0.394092
   147  N   -0.734284
   148  H    0.371616
   149  H    0.377377
   150  C    0.722866
   151  O   -0.566214
   152  H    0.420359
 Sum of Mulliken charges =   1.00000

 Dipole moment (field-independent basis, Debye):
    X=            -32.8291    Y=             29.0141    Z=            -18.9033  Tot=             47.7169
 Quadrupole moment (field-independent basis, Debye-Ang):
   XX=            135.9613   YY=           -480.9864   ZZ=            -38.7003
   XY=             11.6549   XZ=           -402.0036   YZ=             23.4962

 Normal termination of Gaussian 16 at Sat Aug 13 08:30:53 2022.
