 Gaussian 16, Revision C.01,
 Gaussian 16:  ES64L-G16RevC.01  3-Jul-2019

 -------------------------------------------------------------------
 # B3LYP/6-31G* guess=read geom=check nosymm integral(ultrafinegrid)
 -------------------------------------------------------------------

 ------------------------------------------------------
 Candidate Structure: Conf:549 Charge calc in gas phase
 ------------------------------------------------------
 Structure from the checkpoint file:  "conf-549.chk"
 Charge =  1 Multiplicity = 1

                          Input orientation:
 ---------------------------------------------------------------------
 Center     Atomic      Atomic             Coordinates (Angstroms)
 Number     Number       Type             X           Y           Z
 ---------------------------------------------------------------------
      1          7           0      -10.230682    2.378323    7.523068
      2          1           0      -11.239498    2.536570    7.473144
      3          1           0      -10.000910    1.358427    7.275872
      4          1           0       -9.911379    2.596477    8.470529
      5          6           0       -9.445490    3.113623    6.452921
      6          1           0      -10.160811    3.693680    5.863661
      7          6           0       -8.878320    1.940562    5.598752
      8          6           0       -8.374546    4.051365    7.055054
      9          1           0       -7.845879    4.464397    6.186367
     10          8           0       -9.092502    0.784025    6.006970
     11          6           0       -9.018116    5.226462    7.808661
     12          1           0       -9.550670    4.901251    8.713057
     13          1           0       -8.246338    5.929330    8.135590
     14          1           0       -9.725028    5.776975    7.178087
     15          6           0       -7.343752    3.304672    7.917892
     16          1           0       -7.779797    2.897084    8.840904
     17          1           0       -6.867598    2.481119    7.376786
     18          1           0       -6.556842    3.996919    8.230298
     19          7           0       -8.214108    2.273367    4.506005
     20          1           0       -8.010948    3.244803    4.248449
     21          6           0       -7.532995    1.340109    3.601180
     22          1           0       -7.029791    0.582643    4.209072
     23          6           0       -6.490361    2.239052    2.891197
     24          6           0       -8.543351    0.638897    2.640712
     25          1           0       -9.323168    0.243786    3.306596
     26          8           0       -6.612669    3.470966    2.948760
     27          6           0       -7.946813   -0.571021    1.888830
     28          1           0       -7.179583   -0.239473    1.178095
     29          1           0       -8.755992   -0.983345    1.272782
     30          6           0       -9.192620    1.631024    1.664802
     31          1           0       -8.465125    2.022741    0.945012
     32          1           0       -9.641434    2.485640    2.183013
     33          1           0       -9.985398    1.134265    1.096085
     34          6           0       -7.389840   -1.691476    2.776511
     35          1           0       -7.118451   -2.559187    2.167354
     36          1           0       -6.484464   -1.394874    3.320399
     37          1           0       -8.128888   -2.019041    3.517582
     38          7           0       -5.506961    1.608975    2.241878
     39          1           0       -5.439101    0.593721    2.196699
     40          6           0       -4.485760    2.280237    1.443576
     41          1           0       -4.944229    3.133120    0.934383
     42          6           0       -4.026349    1.213645    0.427329
     43          6           0       -3.326240    2.790210    2.347337
     44          1           0       -2.852233    1.919982    2.815932
     45          1           0       -3.798875    3.375435    3.144986
     46          8           0       -4.177789    0.014234    0.693746
     47          6           0       -2.294286    3.632665    1.628493
     48          6           0       -1.001650    3.145966    1.393544
     49          1           0       -0.735833    2.148671    1.738249
     50          6           0       -2.617774    4.923501    1.183650
     51          1           0       -3.611890    5.324724    1.374360
     52          6           0       -0.053256    3.924703    0.727899
     53          1           0        0.946207    3.546791    0.537358
     54          6           0       -1.674530    5.702198    0.511460
     55          1           0       -1.942598    6.698935    0.171061
     56          6           0       -0.390817    5.203464    0.281102
     57          1           0        0.352434    5.795035   -0.244451
     58          7           0       -3.474602    1.670608   -0.705332
     59          1           0       -3.361789    2.665127   -0.883116
     60          6           0       -2.919987    0.799837   -1.742044
     61          1           0       -2.400065   -0.025871   -1.247549
     62          6           0       -1.940707    1.691350   -2.525902
     63          6           0       -4.043848    0.250924   -2.653973
     64          1           0       -4.520515    1.113591   -3.136769
     65          1           0       -4.791879   -0.210486   -1.996963
     66          8           0       -2.211193    2.879115   -2.712723
     67          6           0       -3.616084   -0.770963   -3.726257
     68          1           0       -2.825303   -0.318608   -4.340921
     69          6           0       -3.063758   -2.069362   -3.116406
     70          1           0       -3.807949   -2.542092   -2.462720
     71          1           0       -2.158734   -1.905482   -2.520125
     72          1           0       -2.804721   -2.786999   -3.902972
     73          6           0       -4.805608   -1.075818   -4.650093
     74          1           0       -5.632988   -1.529519   -4.088876
     75          1           0       -4.518647   -1.776725   -5.442237
     76          1           0       -5.185032   -0.165195   -5.128171
     77          7           0       -0.823238    1.094394   -2.986536
     78          1           0       -0.593858    0.131580   -2.761333
     79          6           0        0.228345    1.815221   -3.695683
     80          1           0       -0.237156    2.461574   -4.448015
     81          6           0        1.097353    0.736345   -4.356852
     82          6           0        1.054276    2.679956   -2.707771
     83          1           0        1.566026    2.010382   -2.007547
     84          1           0        0.340285    3.271479   -2.129306
     85          8           0        1.195660   -0.385796   -3.857695
     86          6           0        2.069385    3.602904   -3.377630
     87          1           0        2.795891    3.036821   -3.967997
     88          1           0        1.581131    4.301696   -4.071062
     89          6           0        2.876730    4.423101   -2.385625
     90          8           0        3.809886    5.132679   -3.022406
     91          8           0        2.715086    4.430341   -1.176779
     92          7           0        1.750562    1.093106   -5.490183
     93          1           0        1.738587    2.054657   -5.825787
     94          6           0        2.818558    0.261296   -6.004589
     95          1           0        2.440742   -0.759954   -6.126912
     96          6           0        4.023540    0.237421   -5.036245
     97          6           0        3.298206    0.794705   -7.377559
     98          1           0        4.102417    0.155894   -7.753717
     99          1           0        2.464329    0.747996   -8.084656
    100          8           0        4.248249    1.134918   -4.232408
    101          6           0        3.735036    2.257736   -7.286789
    102          7           0        5.063804    2.500207   -7.410505
    103          1           0        5.351852    3.453554   -7.227596
    104          1           0        5.756965    1.775812   -7.230634
    105          8           0        2.896729    3.145479   -7.120970
    106          7           0        4.876115   -0.807628   -5.209995
    107          1           0        4.673071   -1.511538   -5.906355
    108          6           0        6.170698   -0.844390   -4.549400
    109          1           0        6.011801   -0.849937   -3.464859
    110          6           0        7.012939    0.390670   -4.940889
    111          6           0        6.911617   -2.135537   -4.973297
    112          1           0        6.255376   -2.983955   -4.740167
    113          1           0        7.035885   -2.103409   -6.062748
    114          8           0        7.143978    0.729795   -6.121934
    115          6           0        8.256972   -2.319209   -4.306427
    116          6           0        9.439499   -1.910550   -4.941574
    117          1           0        9.386889   -1.474954   -5.936613
    118          6           0        8.357720   -2.881094   -3.028509
    119          1           0        7.459965   -3.218778   -2.514835
    120          6           0       10.679258   -2.049451   -4.325293
    121          1           0       11.593849   -1.740906   -4.821790
    122          6           0        9.592122   -3.026498   -2.396662
    123          1           0        9.647993   -3.469460   -1.404041
    124          8           0       11.999429   -2.721427   -2.485018
    125          1           0       11.919370   -3.135669   -1.611623
    126          6           0       10.759174   -2.608311   -3.044603
    127          7           0        7.634427    0.995456   -3.910954
    128          1           0        7.473687    0.673668   -2.962831
    129          6           0        8.648450    2.029119   -4.043555
    130          1           0        9.453068    1.662675   -4.695604
    131          6           0        9.247789    2.216037   -2.653090
    132          6           0        8.144744    3.370387   -4.630033
    133          1           0        8.984781    4.073297   -4.565010
    134          1           0        7.951690    3.204867   -5.694403
    135          8           0        8.855936    1.661070   -1.649016
    136          6           0        6.889072    3.950067   -3.962229
    137          1           0        6.012841    3.362106   -4.255599
    138          1           0        6.945284    3.878993   -2.868819
    139          6           0        6.663043    5.427699   -4.340887
    140          1           0        6.939185    5.600346   -5.389135
    141          1           0        5.609893    5.682793   -4.241568
    142          7           0        7.428936    6.381464   -3.537073
    143          1           0        8.433848    6.338056   -3.653856
    144          7           0        5.884981    6.397822   -1.777067
    145          1           0        5.717482    6.830327   -0.870475
    146          1           0        4.466502    5.582027   -2.400926
    147          7           0        8.009460    7.472678   -1.587026
    148          1           0        7.680252    7.912007   -0.736295
    149          1           0        8.523017    8.128960   -2.165674
    150          6           0        7.031913    6.739281   -2.267658
    151          8           0       10.278987    3.083236   -2.663321
    152          1           0       10.600806    3.143723   -1.743687
 ---------------------------------------------------------------------

 SCF Done:  E(RB3LYP) =  -3586.64181869     A.U. after    3 cycles

 Alpha  occ. eigenvalues --  -19.26319 -19.25844 -19.22062 -19.20734 -19.20321
 Alpha  occ. eigenvalues --  -19.18422 -19.17744 -19.16969 -19.16967 -19.16199
 Alpha  occ. eigenvalues --  -19.15878 -19.15785 -19.14616 -14.59101 -14.48495
 Alpha  occ. eigenvalues --  -14.44075 -14.41677 -14.41562 -14.41250 -14.40325
 Alpha  occ. eigenvalues --  -14.40166 -14.40089 -14.39780 -14.39314 -14.34463
 Alpha  occ. eigenvalues --  -10.42847 -10.40023 -10.38214 -10.37752 -10.34839
 Alpha  occ. eigenvalues --  -10.34224 -10.34050 -10.33917 -10.33811 -10.33519
 Alpha  occ. eigenvalues --  -10.33253 -10.33137 -10.33104 -10.32877 -10.30603
 Alpha  occ. eigenvalues --  -10.30505 -10.30313 -10.29579 -10.29306 -10.29220
 Alpha  occ. eigenvalues --  -10.29001 -10.28204 -10.28156 -10.27403 -10.25721
 Alpha  occ. eigenvalues --  -10.25499 -10.25391 -10.25352 -10.25275 -10.25078
 Alpha  occ. eigenvalues --  -10.24554 -10.24022 -10.23837 -10.23786 -10.23726
 Alpha  occ. eigenvalues --  -10.23433 -10.23409 -10.23209 -10.22999 -10.22925
 Alpha  occ. eigenvalues --  -10.22813 -10.22750 -10.22746 -10.22125 -10.22045
 Alpha  occ. eigenvalues --  -10.22024 -10.21662 -10.21436 -10.21308 -10.21205
 Alpha  occ. eigenvalues --   -1.18635  -1.16873  -1.13137  -1.12510  -1.10126
 Alpha  occ. eigenvalues --   -1.09995  -1.09622  -1.09470  -1.08539  -1.08113
 Alpha  occ. eigenvalues --   -1.07797  -1.07507  -1.07365  -1.05197  -1.02959
 Alpha  occ. eigenvalues --   -1.01407  -1.00649  -0.98082  -0.97991  -0.97969
 Alpha  occ. eigenvalues --   -0.97118  -0.96633  -0.94910  -0.94309  -0.93765
 Alpha  occ. eigenvalues --   -0.90154  -0.89904  -0.89599  -0.89466  -0.86138
 Alpha  occ. eigenvalues --   -0.85846  -0.85438  -0.84468  -0.84272  -0.83139
 Alpha  occ. eigenvalues --   -0.81946  -0.81893  -0.81553  -0.79928  -0.79523
 Alpha  occ. eigenvalues --   -0.79427  -0.79157  -0.78048  -0.77572  -0.77369
 Alpha  occ. eigenvalues --   -0.75886  -0.73751  -0.73393  -0.72655  -0.72596
 Alpha  occ. eigenvalues --   -0.72492  -0.72231  -0.71875  -0.70799  -0.70690
 Alpha  occ. eigenvalues --   -0.70360  -0.69291  -0.68140  -0.67432  -0.66777
 Alpha  occ. eigenvalues --   -0.66609  -0.66172  -0.65596  -0.65001  -0.64837
 Alpha  occ. eigenvalues --   -0.64319  -0.64032  -0.63623  -0.63551  -0.62983
 Alpha  occ. eigenvalues --   -0.62392  -0.62179  -0.62066  -0.61661  -0.61428
 Alpha  occ. eigenvalues --   -0.60713  -0.60153  -0.60009  -0.59225  -0.59001
 Alpha  occ. eigenvalues --   -0.58809  -0.58623  -0.57828  -0.57736  -0.57702
 Alpha  occ. eigenvalues --   -0.57020  -0.56735  -0.56278  -0.55665  -0.55322
 Alpha  occ. eigenvalues --   -0.55027  -0.54735  -0.54482  -0.53914  -0.53797
 Alpha  occ. eigenvalues --   -0.53700  -0.53297  -0.52809  -0.52636  -0.52473
 Alpha  occ. eigenvalues --   -0.52162  -0.52025  -0.51866  -0.51438  -0.51117
 Alpha  occ. eigenvalues --   -0.50890  -0.50708  -0.50642  -0.50610  -0.50551
 Alpha  occ. eigenvalues --   -0.50334  -0.50167  -0.49979  -0.49843  -0.49493
 Alpha  occ. eigenvalues --   -0.49201  -0.49193  -0.48933  -0.48744  -0.48479
 Alpha  occ. eigenvalues --   -0.48308  -0.48155  -0.47980  -0.47937  -0.47520
 Alpha  occ. eigenvalues --   -0.47441  -0.47337  -0.47109  -0.46994  -0.46796
 Alpha  occ. eigenvalues --   -0.46575  -0.46519  -0.46343  -0.46063  -0.46004
 Alpha  occ. eigenvalues --   -0.45716  -0.45646  -0.45412  -0.45341  -0.45038
 Alpha  occ. eigenvalues --   -0.44767  -0.44658  -0.44581  -0.44304  -0.44198
 Alpha  occ. eigenvalues --   -0.44174  -0.43778  -0.43757  -0.43573  -0.43281
 Alpha  occ. eigenvalues --   -0.42980  -0.42634  -0.42409  -0.42218  -0.42113
 Alpha  occ. eigenvalues --   -0.41945  -0.41866  -0.41733  -0.41370  -0.41329
 Alpha  occ. eigenvalues --   -0.40882  -0.40668  -0.40550  -0.40289  -0.40019
 Alpha  occ. eigenvalues --   -0.39878  -0.39675  -0.39533  -0.39461  -0.39269
 Alpha  occ. eigenvalues --   -0.38750  -0.38177  -0.38048  -0.38031  -0.37880
 Alpha  occ. eigenvalues --   -0.37690  -0.37631  -0.37566  -0.37507  -0.36998
 Alpha  occ. eigenvalues --   -0.36857  -0.36728  -0.36600  -0.34907  -0.33901
 Alpha  occ. eigenvalues --   -0.33800  -0.32582  -0.32204  -0.32059  -0.31939
 Alpha  occ. eigenvalues --   -0.31889  -0.31238  -0.31145  -0.30951  -0.30720
 Alpha  occ. eigenvalues --   -0.30420  -0.30123  -0.29585  -0.29559  -0.29430
 Alpha  occ. eigenvalues --   -0.29234  -0.29074  -0.28679  -0.28208  -0.27924
 Alpha  occ. eigenvalues --   -0.27840  -0.26162
 Alpha virt. eigenvalues --   -0.11758  -0.10772  -0.06657  -0.06297  -0.05350
 Alpha virt. eigenvalues --   -0.04775  -0.04260  -0.03994  -0.03814  -0.03740
 Alpha virt. eigenvalues --   -0.03528  -0.03473  -0.02760  -0.02437  -0.02118

 Mulliken charges:
               1
     1  N   -0.765540
     2  H    0.414118
     3  H    0.436106
     4  H    0.407970
     5  C   -0.099245
     6  H    0.213942
     7  C    0.654778
     8  C   -0.125669
     9  H    0.193264
    10  O   -0.554742
    11  C   -0.461570
    12  H    0.138506
    13  H    0.198471
    14  H    0.172302
    15  C   -0.477245
    16  H    0.141386
    17  H    0.187324
    18  H    0.199615
    19  N   -0.612932
    20  H    0.378523
    21  C   -0.071247
    22  H    0.188856
    23  C    0.635262
    24  C   -0.078856
    25  H    0.150409
    26  O   -0.563623
    27  C   -0.280572
    28  H    0.159553
    29  H    0.154104
    30  C   -0.462298
    31  H    0.168663
    32  H    0.135696
    33  H    0.164365
    34  C   -0.460555
    35  H    0.172585
    36  H    0.143172
    37  H    0.153309
    38  N   -0.624756
    39  H    0.375322
    40  C   -0.054297
    41  H    0.182239
    42  C    0.631556
    43  C   -0.348730
    44  H    0.155477
    45  H    0.167367
    46  O   -0.562780
    47  C    0.155818
    48  C   -0.188644
    49  H    0.125224
    50  C   -0.199722
    51  H    0.126214
    52  C   -0.136884
    53  H    0.175767
    54  C   -0.121310
    55  H    0.133499
    56  C   -0.132730
    57  H    0.154636
    58  N   -0.617676
    59  H    0.366355
    60  C   -0.037074
    61  H    0.168344
    62  C    0.622696
    63  C   -0.256482
    64  H    0.147896
    65  H    0.152650
    66  O   -0.547233
    67  C   -0.084850
    68  H    0.137160
    69  C   -0.447880
    70  H    0.146458
    71  H    0.140136
    72  H    0.150359
    73  C   -0.443659
    74  H    0.138688
    75  H    0.147265
    76  H    0.146087
    77  N   -0.627089
    78  H    0.356572
    79  C   -0.046502
    80  H    0.173477
    81  C    0.629769
    82  C   -0.266106
    83  H    0.158432
    84  H    0.188777
    85  O   -0.551897
    86  C   -0.398806
    87  H    0.212094
    88  H    0.171946
    89  C    0.594448
    90  O   -0.618438
    91  O   -0.497103
    92  N   -0.619489
    93  H    0.379116
    94  C   -0.072320
    95  H    0.174443
    96  C    0.658457
    97  C   -0.372759
    98  H    0.161436
    99  H    0.195698
   100  O   -0.522386
   101  C    0.588053
   102  N   -0.758664
   103  H    0.340274
   104  H    0.391515
   105  O   -0.522596
   106  N   -0.615184
   107  H    0.335946
   108  C   -0.006475
   109  H    0.167044
   110  C    0.664066
   111  C   -0.405943
   112  H    0.162956
   113  H    0.168171
   114  O   -0.579906
   115  C    0.158140
   116  C   -0.191224
   117  H    0.145468
   118  C   -0.191452
   119  H    0.132388
   120  C   -0.163166
   121  H    0.147627
   122  C   -0.188851
   123  H    0.127825
   124  O   -0.637628
   125  H    0.411308
   126  C    0.353343
   127  N   -0.606436
   128  H    0.366460
   129  C   -0.016324
   130  H    0.192376
   131  C    0.588197
   132  C   -0.288599
   133  H    0.145792
   134  H    0.166190
   135  O   -0.465135
   136  C   -0.285993
   137  H    0.186610
   138  H    0.161090
   139  C   -0.166711
   140  H    0.138472
   141  H    0.211164
   142  N   -0.592016
   143  H    0.323776
   144  N   -0.707797
   145  H    0.291057
   146  H    0.462565
   147  N   -0.763055
   148  H    0.330055
   149  H    0.331759
   150  C    0.654875
   151  O   -0.566895
   152  H    0.423032
 Sum of Mulliken charges =   1.00000

 Dipole moment (field-independent basis, Debye):
    X=            -23.1183    Y=             12.1385    Z=             22.0644  Tot=             34.1853
 Quadrupole moment (field-independent basis, Debye-Ang):
   XX=             69.5250   YY=           -353.5657   ZZ=           -211.3665
   XY=            -56.6988   XZ=           -295.7024   YZ=             90.0297

 Normal termination of Gaussian 16 at Sat Aug 13 08:30:48 2022.
