 Gaussian 16, Revision C.01,
 Gaussian 16:  ES64L-G16RevC.01  3-Jul-2019

 -------------------------------------------------------------------
 # B3LYP/6-31G* guess=read geom=check nosymm integral(ultrafinegrid)
 -------------------------------------------------------------------

 ------------------------------------------------------
 Candidate Structure: Conf:876 Charge calc in gas phase
 ------------------------------------------------------
 Structure from the checkpoint file:  "conf-876.chk"
 Charge =  1 Multiplicity = 1

                          Input orientation:
 ---------------------------------------------------------------------
 Center     Atomic      Atomic             Coordinates (Angstroms)
 Number     Number       Type             X           Y           Z
 ---------------------------------------------------------------------
      1          7           0      -10.473173    4.139736    6.720519
      2          1           0      -11.342227    4.222221    6.185431
      3          1           0      -10.264593    3.105888    6.874310
      4          1           0      -10.585005    4.643824    7.603546
      5          6           0       -9.245309    4.574323    5.937360
      6          1           0       -9.571488    5.230804    5.126007
      7          6           0       -8.729959    3.205349    5.401867
      8          6           0       -8.255753    5.319201    6.870990
      9          1           0       -7.997050    4.625342    7.684399
     10          8           0       -9.108284    2.188047    6.010234
     11          6           0       -6.961893    5.695489    6.128698
     12          1           0       -7.170005    6.333534    5.260679
     13          1           0       -6.313537    6.264379    6.800858
     14          1           0       -6.390936    4.828675    5.790811
     15          6           0       -8.898758    6.583465    7.471677
     16          1           0       -9.188578    7.291469    6.686311
     17          1           0       -9.783612    6.390854    8.094361
     18          1           0       -8.177820    7.086674    8.122192
     19          7           0       -7.944580    3.226046    4.337029
     20          1           0       -7.602697    4.096154    3.920287
     21          6           0       -7.264494    2.054841    3.770867
     22          1           0       -6.970691    1.402997    4.597873
     23          6           0       -6.012855    2.663439    3.095172
     24          6           0       -8.205781    1.268345    2.805813
     25          1           0       -9.117355    1.098976    3.396166
     26          8           0       -5.990230    3.872108    2.841345
     27          6           0       -7.666077   -0.122782    2.407853
     28          1           0       -6.773746   -0.023473    1.777061
     29          1           0       -8.428168   -0.578298    1.762832
     30          6           0       -8.575794    2.092100    1.563718
     31          1           0       -7.707023    2.259241    0.917171
     32          1           0       -8.987803    3.072588    1.826671
     33          1           0       -9.330322    1.562312    0.973154
     34          6           0       -7.381692   -1.079044    3.573578
     35          1           0       -7.136466   -2.076318    3.195509
     36          1           0       -6.533246   -0.759518    4.191804
     37          1           0       -8.251613   -1.174795    4.234392
     38          7           0       -5.004170    1.813514    2.837996
     39          1           0       -5.137041    0.809477    2.922047
     40          6           0       -3.814425    2.178494    2.082466
     41          1           0       -4.023044    3.115824    1.559634
     42          6           0       -3.562345    1.027469    1.086740
     43          6           0       -2.568562    2.353311    2.999331
     44          1           0       -1.709616    2.588503    2.359065
     45          1           0       -2.355275    1.384189    3.465789
     46          8           0       -4.050518   -0.086332    1.294295
     47          6           0       -2.730349    3.415579    4.064568
     48          6           0       -2.560322    4.772174    3.756187
     49          1           0       -2.302691    5.063868    2.740405
     50          6           0       -3.046634    3.064287    5.382954
     51          1           0       -3.161332    2.014467    5.643007
     52          6           0       -2.700643    5.752048    4.737870
     53          1           0       -2.551169    6.797397    4.481577
     54          6           0       -3.186083    4.041682    6.371027
     55          1           0       -3.406501    3.746808    7.394033
     56          6           0       -3.012797    5.389358    6.050545
     57          1           0       -3.098073    6.150963    6.821505
     58          7           0       -2.769243    1.336485    0.040993
     59          1           0       -2.271671    2.224708    0.033758
     60          6           0       -2.131330    0.343389   -0.817888
     61          1           0       -2.218991   -0.630624   -0.328346
     62          6           0       -0.649170    0.766095   -0.907615
     63          6           0       -2.752195    0.292907   -2.233314
     64          1           0       -2.144284   -0.382281   -2.852333
     65          1           0       -2.649737    1.293121   -2.675522
     66          8           0       -0.315102    1.924843   -0.654477
     67          6           0       -4.225961   -0.152082   -2.302440
     68          1           0       -4.805596    0.502502   -1.636105
     69          6           0       -4.755362    0.041335   -3.731999
     70          1           0       -4.208094   -0.590291   -4.443618
     71          1           0       -4.653668    1.081760   -4.063021
     72          1           0       -5.815055   -0.230475   -3.797664
     73          6           0       -4.424332   -1.602013   -1.835443
     74          1           0       -3.812308   -2.294028   -2.429339
     75          1           0       -5.471022   -1.904331   -1.957542
     76          1           0       -4.170074   -1.726803   -0.778574
     77          7           0        0.209701   -0.204832   -1.288645
     78          1           0       -0.151484   -1.090959   -1.624807
     79          6           0        1.605056    0.047556   -1.618697
     80          1           0        1.701558    1.121146   -1.818817
     81          6           0        1.917394   -0.728986   -2.907211
     82          6           0        2.580820   -0.345192   -0.483384
     83          1           0        3.604879   -0.325085   -0.875877
     84          1           0        2.403356   -1.383559   -0.184886
     85          8           0        1.135611   -1.567550   -3.368958
     86          6           0        2.508748    0.565492    0.748206
     87          1           0        2.536498    1.621985    0.461165
     88          1           0        1.559775    0.412596    1.278130
     89          6           0        3.671476    0.259176    1.714374
     90          8           0        4.212239    1.286868    2.285822
     91          8           0        4.030293   -0.916356    1.866407
     92          7           0        3.103318   -0.420747   -3.492252
     93          1           0        3.764395    0.119498   -2.943002
     94          6           0        3.752386   -1.287252   -4.467946
     95          1           0        3.158822   -2.204993   -4.538871
     96          6           0        5.139610   -1.651461   -3.887879
     97          6           0        3.873972   -0.627252   -5.855254
     98          1           0        4.408641    0.323804   -5.767134
     99          1           0        4.485416   -1.255766   -6.515142
    100          8           0        5.566349   -1.079133   -2.877512
    101          6           0        2.586113   -0.331234   -6.642644
    102          7           0        1.451388   -0.992918   -6.274469
    103          1           0        0.621969   -0.736289   -6.794699
    104          1           0        1.307439   -1.377788   -5.343288
    105          8           0        2.643217    0.408945   -7.613410
    106          7           0        5.828446   -2.615005   -4.535183
    107          1           0        5.421368   -3.040705   -5.358111
    108          6           0        7.049419   -3.240534   -3.991453
    109          1           0        6.902866   -3.321932   -2.908980
    110          6           0        8.295711   -2.348543   -4.240382
    111          6           0        7.228332   -4.644804   -4.598737
    112          1           0        6.233570   -5.102260   -4.675233
    113          1           0        7.626583   -4.531217   -5.612572
    114          8           0        9.146294   -2.606518   -5.084346
    115          6           0        8.122914   -5.553023   -3.777370
    116          6           0        9.512307   -5.591202   -3.971052
    117          1           0        9.959871   -4.948467   -4.722075
    118          6           0        7.572406   -6.381363   -2.792373
    119          1           0        6.496816   -6.381699   -2.626062
    120          6           0       10.323087   -6.426137   -3.209257
    121          1           0       11.397294   -6.456756   -3.361277
    122          6           0        8.372991   -7.221958   -2.019829
    123          1           0        7.922575   -7.862392   -1.263427
    124          8           0       10.598689   -8.047975   -1.511041
    125          1           0       10.079686   -8.567955   -0.877939
    126          6           0        9.755490   -7.246066   -2.228102
    127          7           0        8.369821   -1.267838   -3.421403
    128          1           0        7.564663   -1.065187   -2.837105
    129          6           0        9.506106   -0.372552   -3.455170
    130          1           0        9.663566    0.000597   -4.472768
    131          6           0       10.786634   -1.114570   -3.048484
    132          6           0        9.286402    0.830259   -2.508024
    133          1           0       10.206684    1.427434   -2.519822
    134          1           0        8.496623    1.463392   -2.932240
    135          8           0       10.857931   -2.011712   -2.241234
    136          6           0        8.919637    0.439884   -1.064718
    137          1           0        7.892247    0.058107   -1.025125
    138          1           0        9.571823   -0.370634   -0.718399
    139          6           0        9.020180    1.626789   -0.096006
    140          1           0       10.057262    1.964248    0.002925
    141          1           0        8.453480    2.480716   -0.476755
    142          7           0        8.532168    1.302073    1.250406
    143          1           0        9.095721    0.640125    1.769457
    144          7           0        6.379574    2.209079    1.034111
    145          1           0        5.390527    2.139494    1.362872
    146          1           0        6.729980    3.061833    0.625083
    147          7           0        6.752325    0.562914    2.585020
    148          1           0        5.706675    0.653524    2.742373
    149          1           0        7.181224   -0.338420    2.747527
    150          6           0        7.223810    1.346630    1.617077
    151          8           0       11.863458   -0.572177   -3.659500
    152          1           0       12.642988   -1.064604   -3.339040
 ---------------------------------------------------------------------

 SCF Done:  E(RB3LYP) =  -3586.62035309     A.U. after    2 cycles

 Alpha  occ. eigenvalues --  -19.26173 -19.24400 -19.21078 -19.20874 -19.19861
 Alpha  occ. eigenvalues --  -19.19351 -19.19218 -19.18612 -19.17897 -19.16560
 Alpha  occ. eigenvalues --  -19.14600 -19.11328 -19.09979 -14.59471 -14.48661
 Alpha  occ. eigenvalues --  -14.44693 -14.44647 -14.43844 -14.42748 -14.42689
 Alpha  occ. eigenvalues --  -14.41928 -14.41912 -14.41015 -14.40432 -14.38763
 Alpha  occ. eigenvalues --  -10.42919 -10.40216 -10.39233 -10.38184 -10.36650
 Alpha  occ. eigenvalues --  -10.36613 -10.36176 -10.35905 -10.34911 -10.34222
 Alpha  occ. eigenvalues --  -10.33470 -10.33441 -10.32969 -10.31276 -10.31050
 Alpha  occ. eigenvalues --  -10.30842 -10.30586 -10.29529 -10.29352 -10.29219
 Alpha  occ. eigenvalues --  -10.29171 -10.28994 -10.28641 -10.28508 -10.27965
 Alpha  occ. eigenvalues --  -10.26588 -10.26342 -10.26171 -10.25924 -10.25681
 Alpha  occ. eigenvalues --  -10.25662 -10.25614 -10.25507 -10.25390 -10.25331
 Alpha  occ. eigenvalues --  -10.25275 -10.25153 -10.24898 -10.24487 -10.24129
 Alpha  occ. eigenvalues --  -10.24082 -10.22775 -10.22531 -10.22465 -10.22179
 Alpha  occ. eigenvalues --  -10.22135 -10.21758 -10.21666 -10.21288 -10.20478
 Alpha  occ. eigenvalues --   -1.18646  -1.15242  -1.13483  -1.12910  -1.11729
 Alpha  occ. eigenvalues --   -1.11021  -1.10757  -1.09524  -1.08896  -1.08373
 Alpha  occ. eigenvalues --   -1.07975  -1.06652  -1.06225  -1.05279  -1.03778
 Alpha  occ. eigenvalues --   -1.01311  -0.99914  -0.99531  -0.99436  -0.98477
 Alpha  occ. eigenvalues --   -0.98196  -0.97535  -0.94799  -0.94783  -0.94660
 Alpha  occ. eigenvalues --   -0.93653  -0.91956  -0.90285  -0.88621  -0.87149
 Alpha  occ. eigenvalues --   -0.86797  -0.86183  -0.85818  -0.85569  -0.83680
 Alpha  occ. eigenvalues --   -0.82419  -0.82289  -0.81194  -0.81174  -0.80988
 Alpha  occ. eigenvalues --   -0.80675  -0.79968  -0.78783  -0.77751  -0.77105
 Alpha  occ. eigenvalues --   -0.76171  -0.74662  -0.74630  -0.73622  -0.73297
 Alpha  occ. eigenvalues --   -0.73235  -0.72878  -0.72317  -0.71188  -0.70491
 Alpha  occ. eigenvalues --   -0.69911  -0.69790  -0.69700  -0.68104  -0.67899
 Alpha  occ. eigenvalues --   -0.67341  -0.66873  -0.66273  -0.65825  -0.65603
 Alpha  occ. eigenvalues --   -0.65458  -0.65326  -0.65139  -0.64817  -0.64646
 Alpha  occ. eigenvalues --   -0.64382  -0.63781  -0.63070  -0.62994  -0.62607
 Alpha  occ. eigenvalues --   -0.62252  -0.61915  -0.60875  -0.60449  -0.60034
 Alpha  occ. eigenvalues --   -0.58676  -0.58249  -0.57812  -0.57595  -0.57361
 Alpha  occ. eigenvalues --   -0.57224  -0.56886  -0.56631  -0.56427  -0.56153
 Alpha  occ. eigenvalues --   -0.55854  -0.55684  -0.55387  -0.54976  -0.54653
 Alpha  occ. eigenvalues --   -0.54312  -0.54026  -0.53885  -0.53699  -0.53425
 Alpha  occ. eigenvalues --   -0.53071  -0.52892  -0.52746  -0.52338  -0.52239
 Alpha  occ. eigenvalues --   -0.52117  -0.51828  -0.51665  -0.51476  -0.51261
 Alpha  occ. eigenvalues --   -0.51177  -0.51000  -0.50635  -0.50536  -0.50234
 Alpha  occ. eigenvalues --   -0.50162  -0.49901  -0.49649  -0.49512  -0.49374
 Alpha  occ. eigenvalues --   -0.49283  -0.48848  -0.48769  -0.48406  -0.48298
 Alpha  occ. eigenvalues --   -0.48107  -0.47990  -0.47720  -0.47273  -0.47215
 Alpha  occ. eigenvalues --   -0.46927  -0.46844  -0.46780  -0.46669  -0.46604
 Alpha  occ. eigenvalues --   -0.46550  -0.46402  -0.46181  -0.46086  -0.45727
 Alpha  occ. eigenvalues --   -0.45550  -0.44930  -0.44867  -0.44820  -0.44657
 Alpha  occ. eigenvalues --   -0.44269  -0.44042  -0.43993  -0.43881  -0.43594
 Alpha  occ. eigenvalues --   -0.43460  -0.43386  -0.43080  -0.43012  -0.42951
 Alpha  occ. eigenvalues --   -0.42645  -0.42224  -0.42141  -0.41928  -0.41888
 Alpha  occ. eigenvalues --   -0.41835  -0.41454  -0.41192  -0.41129  -0.41064
 Alpha  occ. eigenvalues --   -0.40872  -0.40691  -0.40591  -0.40531  -0.40404
 Alpha  occ. eigenvalues --   -0.40275  -0.40227  -0.40036  -0.38748  -0.38100
 Alpha  occ. eigenvalues --   -0.37876  -0.37785  -0.37575  -0.37504  -0.36640
 Alpha  occ. eigenvalues --   -0.36501  -0.36375  -0.35833  -0.35317  -0.34774
 Alpha  occ. eigenvalues --   -0.34640  -0.33923  -0.33818  -0.33440  -0.33259
 Alpha  occ. eigenvalues --   -0.33085  -0.32985  -0.32640  -0.32454  -0.31487
 Alpha  occ. eigenvalues --   -0.31272  -0.31130  -0.30543  -0.30309  -0.30252
 Alpha  occ. eigenvalues --   -0.29630  -0.28288  -0.28103  -0.26658  -0.26215
 Alpha  occ. eigenvalues --   -0.24882  -0.24107
 Alpha virt. eigenvalues --   -0.12011  -0.10700  -0.07239  -0.06690  -0.06411
 Alpha virt. eigenvalues --   -0.06172  -0.05486  -0.04965  -0.04683  -0.04611
 Alpha virt. eigenvalues --   -0.04086  -0.03985  -0.03465  -0.03370  -0.02724

 Mulliken charges:
               1
     1  N   -0.760023
     2  H    0.414349
     3  H    0.432384
     4  H    0.407954
     5  C   -0.102509
     6  H    0.203924
     7  C    0.650065
     8  C   -0.109842
     9  H    0.168066
    10  O   -0.550660
    11  C   -0.475672
    12  H    0.166339
    13  H    0.184089
    14  H    0.196029
    15  C   -0.472729
    16  H    0.176623
    17  H    0.136764
    18  H    0.200577
    19  N   -0.605205
    20  H    0.380126
    21  C   -0.077758
    22  H    0.192347
    23  C    0.639201
    24  C   -0.077118
    25  H    0.146934
    26  O   -0.550280
    27  C   -0.288284
    28  H    0.167662
    29  H    0.153978
    30  C   -0.461296
    31  H    0.167516
    32  H    0.135570
    33  H    0.163982
    34  C   -0.460845
    35  H    0.173401
    36  H    0.138511
    37  H    0.154537
    38  N   -0.610770
    39  H    0.370133
    40  C   -0.075880
    41  H    0.191442
    42  C    0.627185
    43  C   -0.374486
    44  H    0.181514
    45  H    0.166784
    46  O   -0.540215
    47  C    0.189865
    48  C   -0.164394
    49  H    0.133835
    50  C   -0.188790
    51  H    0.127569
    52  C   -0.128589
    53  H    0.139344
    54  C   -0.137490
    55  H    0.130061
    56  C   -0.136620
    57  H    0.130234
    58  N   -0.594989
    59  H    0.356776
    60  C   -0.085457
    61  H    0.185699
    62  C    0.625957
    63  C   -0.256429
    64  H    0.144580
    65  H    0.145820
    66  O   -0.543542
    67  C   -0.065823
    68  H    0.128330
    69  C   -0.444762
    70  H    0.145092
    71  H    0.142962
    72  H    0.145640
    73  C   -0.464100
    74  H    0.137536
    75  H    0.143120
    76  H    0.171825
    77  N   -0.596787
    78  H    0.351761
    79  C   -0.073571
    80  H    0.188129
    81  C    0.615227
    82  C   -0.267720
    83  H    0.151498
    84  H    0.168647
    85  O   -0.551036
    86  C   -0.336195
    87  H    0.139449
    88  H    0.151149
    89  C    0.588027
    90  O   -0.659608
    91  O   -0.556939
    92  N   -0.574197
    93  H    0.356073
    94  C   -0.107495
    95  H    0.191440
    96  C    0.638266
    97  C   -0.354313
    98  H    0.183893
    99  H    0.176231
   100  O   -0.551994
   101  C    0.584292
   102  N   -0.780650
   103  H    0.337655
   104  H    0.381273
   105  O   -0.500814
   106  N   -0.609517
   107  H    0.347031
   108  C   -0.051599
   109  H    0.188217
   110  C    0.650092
   111  C   -0.391874
   112  H    0.141674
   113  H    0.182399
   114  O   -0.520483
   115  C    0.147589
   116  C   -0.181258
   117  H    0.164768
   118  C   -0.187586
   119  H    0.121205
   120  C   -0.156079
   121  H    0.144176
   122  C   -0.192711
   123  H    0.120727
   124  O   -0.639620
   125  H    0.408175
   126  C    0.352556
   127  N   -0.639170
   128  H    0.385647
   129  C   -0.003338
   130  H    0.188105
   131  C    0.601729
   132  C   -0.320501
   133  H    0.168502
   134  H    0.162889
   135  O   -0.460512
   136  C   -0.289176
   137  H    0.171255
   138  H    0.177229
   139  C   -0.156202
   140  H    0.175811
   141  H    0.157645
   142  N   -0.595470
   143  H    0.344002
   144  N   -0.777335
   145  H    0.413395
   146  H    0.345647
   147  N   -0.754430
   148  H    0.418933
   149  H    0.344021
   150  C    0.754526
   151  O   -0.567396
   152  H    0.416950
 Sum of Mulliken charges =   1.00000

 Dipole moment (field-independent basis, Debye):
    X=            -27.6374    Y=             17.8318    Z=             23.3954  Tot=             40.3626
 Quadrupole moment (field-independent basis, Debye-Ang):
   XX=             51.5352   YY=           -331.9333   ZZ=           -313.3221
   XY=           -146.7778   XZ=           -224.4546   YZ=            124.1003

 Normal termination of Gaussian 16 at Sat Aug 13 08:29:48 2022.
