 Gaussian 16, Revision C.01,
 Gaussian 16:  ES64L-G16RevC.01  3-Jul-2019

 -------------------------------------------------------------------
 # B3LYP/6-31G* guess=read geom=check nosymm integral(ultrafinegrid)
 -------------------------------------------------------------------

 ------------------------------------------------------
 Candidate Structure: Conf:961 Charge calc in gas phase
 ------------------------------------------------------
 Structure from the checkpoint file:  "conf-961.chk"
 Charge =  1 Multiplicity = 1

                          Input orientation:
 ---------------------------------------------------------------------
 Center     Atomic      Atomic             Coordinates (Angstroms)
 Number     Number       Type             X           Y           Z
 ---------------------------------------------------------------------
      1          7           0       -5.446455   -4.732474    5.532501
      2          1           0       -6.239528   -5.276059    5.183448
      3          1           0       -4.627095   -4.808129    4.828712
      4          1           0       -5.195371   -5.075586    6.461687
      5          6           0       -5.677674   -3.233688    5.485531
      6          1           0       -6.752993   -3.049756    5.409152
      7          6           0       -4.930383   -2.868302    4.163481
      8          6           0       -5.102673   -2.566667    6.761467
      9          1           0       -4.032132   -2.816111    6.799243
     10          8           0       -4.104028   -3.707810    3.754849
     11          6           0       -5.234873   -1.035496    6.703883
     12          1           0       -6.283933   -0.728561    6.607574
     13          1           0       -4.852570   -0.605263    7.634224
     14          1           0       -4.669891   -0.595646    5.879975
     15          6           0       -5.790857   -3.100347    8.031868
     16          1           0       -6.865692   -2.883441    8.019621
     17          1           0       -5.668771   -4.180529    8.191432
     18          1           0       -5.363850   -2.613656    8.913559
     19          7           0       -5.232328   -1.722811    3.584713
     20          1           0       -5.927936   -1.079583    3.968231
     21          6           0       -4.564695   -1.158462    2.398929
     22          1           0       -3.492927   -1.369512    2.456319
     23          6           0       -4.819395    0.355156    2.542330
     24          6           0       -5.167052   -1.763513    1.088945
     25          1           0       -5.124713   -2.851369    1.243833
     26          8           0       -5.839397    0.749544    3.137135
     27          6           0       -4.322816   -1.448402   -0.165454
     28          1           0       -4.143501   -0.368175   -0.234487
     29          1           0       -4.940253   -1.706474   -1.036900
     30          6           0       -6.637776   -1.366183    0.883815
     31          1           0       -6.738761   -0.301743    0.646789
     32          1           0       -7.252582   -1.564323    1.769394
     33          1           0       -7.062226   -1.934908    0.049399
     34          6           0       -2.996702   -2.213666   -0.252522
     35          1           0       -2.501461   -2.000454   -1.207184
     36          1           0       -2.299199   -1.939818    0.543431
     37          1           0       -3.164245   -3.297489   -0.204544
     38          7           0       -3.906133    1.151524    1.978957
     39          1           0       -2.975018    0.743963    1.757976
     40          6           0       -4.058003    2.597112    1.991897
     41          1           0       -5.128384    2.808184    1.885608
     42          6           0       -3.357144    3.133503    0.723084
     43          6           0       -3.581928    3.185382    3.353333
     44          1           0       -2.488662    3.132019    3.410703
     45          1           0       -3.972012    2.501312    4.114565
     46          8           0       -3.226025    2.411193   -0.269113
     47          6           0       -4.065149    4.586234    3.675541
     48          6           0       -3.161467    5.632942    3.910020
     49          1           0       -2.091672    5.437628    3.863199
     50          6           0       -5.439988    4.855767    3.772735
     51          1           0       -6.153479    4.048827    3.620407
     52          6           0       -3.616428    6.918470    4.219039
     53          1           0       -2.899299    7.714693    4.399248
     54          6           0       -5.895088    6.136504    4.081105
     55          1           0       -6.962724    6.326057    4.153632
     56          6           0       -4.984489    7.174001    4.301769
     57          1           0       -5.341006    8.171796    4.541669
     58          7           0       -2.909136    4.411790    0.751730
     59          1           0       -3.026615    4.969362    1.589204
     60          6           0       -2.216900    5.031893   -0.389949
     61          1           0       -2.682726    4.621652   -1.290878
     62          6           0       -0.726188    4.597313   -0.363824
     63          6           0       -2.376354    6.553362   -0.333506
     64          1           0       -1.822506    6.920920    0.538959
     65          1           0       -3.439424    6.777936   -0.169138
     66          8           0        0.181302    5.344182   -0.008048
     67          6           0       -1.886410    7.311427   -1.584542
     68          1           0       -0.840791    7.026453   -1.755378
     69          6           0       -2.700104    6.966744   -2.841684
     70          1           0       -3.761721    7.210915   -2.702879
     71          1           0       -2.632344    5.906010   -3.107959
     72          1           0       -2.339592    7.539846   -3.703785
     73          6           0       -1.922111    8.823855   -1.318048
     74          1           0       -2.946423    9.166277   -1.119644
     75          1           0       -1.547936    9.384480   -2.182510
     76          1           0       -1.305348    9.090680   -0.451959
     77          7           0       -0.543881    3.298591   -0.722965
     78          1           0       -1.375487    2.750167   -0.933305
     79          6           0        0.721823    2.616266   -0.592668
     80          1           0        1.358157    3.261893    0.027367
     81          6           0        1.421383    2.507904   -1.963979
     82          6           0        0.528904    1.250461    0.105220
     83          1           0        1.429219    0.634031    0.009732
     84          1           0       -0.269595    0.707605   -0.417345
     85          8           0        0.929355    2.877375   -3.015065
     86          6           0        0.164754    1.382850    1.596582
     87          1           0        1.043285    1.710488    2.163972
     88          1           0       -0.625717    2.130712    1.716597
     89          6           0       -0.317421    0.017527    2.121185
     90          8           0       -1.554432   -0.226996    2.042456
     91          8           0        0.577283   -0.779834    2.517358
     92          7           0        2.704617    1.971549   -1.913977
     93          1           0        3.121774    1.875418   -0.994772
     94          6           0        3.620463    2.205981   -3.021811
     95          1           0        3.006068    2.188317   -3.928234
     96          6           0        4.679850    1.098016   -3.129968
     97          6           0        4.280268    3.593353   -2.914348
     98          1           0        3.470575    4.332156   -2.868604
     99          1           0        4.849304    3.665808   -1.981104
    100          8           0        5.849785    1.363342   -3.422040
    101          6           0        5.153089    3.971571   -4.094914
    102          7           0        6.246378    4.708193   -3.803555
    103          1           0        6.875227    4.984132   -4.544953
    104          1           0        6.558950    4.836965   -2.852773
    105          8           0        4.831128    3.712935   -5.267371
    106          7           0        4.246295   -0.165846   -2.928483
    107          1           0        3.301347   -0.325958   -2.596813
    108          6           0        5.159349   -1.293287   -2.951707
    109          1           0        5.894672   -1.176561   -2.143351
    110          6           0        5.902038   -1.362582   -4.295763
    111          6           0        4.397791   -2.636309   -2.788063
    112          1           0        3.922120   -2.867044   -3.748485
    113          1           0        5.163944   -3.409217   -2.629871
    114          8           0        5.330104   -1.110493   -5.361245
    115          6           0        3.341698   -2.683716   -1.701096
    116          6           0        2.165267   -3.416658   -1.924591
    117          1           0        2.018588   -3.907513   -2.885165
    118          6           0        3.491071   -2.062680   -0.451565
    119          1           0        4.394751   -1.496368   -0.229583
    120          6           0        1.182040   -3.532281   -0.950056
    121          1           0        0.272563   -4.095102   -1.136425
    122          6           0        2.504290   -2.146229    0.528354
    123          1           0        2.612103   -1.627855    1.474950
    124          8           0        0.340304   -3.004240    1.190516
    125          1           0        0.388962   -2.247046    1.860361
    126          6           0        1.326376   -2.884350    0.289933
    127          7           0        7.171650   -1.826814   -4.233225
    128          1           0        7.563364   -2.057180   -3.329583
    129          6           0        7.923567   -2.267559   -5.410057
    130          1           0        7.328841   -3.041013   -5.920800
    131          6           0        9.205414   -2.989688   -4.986580
    132          6           0        8.236627   -1.142858   -6.437782
    133          1           0        8.100426   -0.181356   -5.933086
    134          1           0        9.289715   -1.216340   -6.725412
    135          8           0       10.129404   -3.210482   -5.730891
    136          6           0        7.350762   -1.239473   -7.688653
    137          1           0        7.609927   -2.147739   -8.248480
    138          1           0        6.309453   -1.361295   -7.384822
    139          6           0        7.484239   -0.075909   -8.682659
    140          1           0        8.422970   -0.166683   -9.235750
    141          1           0        6.670565   -0.129841   -9.415932
    142          7           0        7.530250    1.284833   -8.112161
    143          1           0        8.314472    1.854059   -8.397181
    144          7           0        5.587912    1.326089   -6.784047
    145          1           0        4.977947    1.927464   -6.230861
    146          1           0        5.639983    0.357666   -6.454954
    147          7           0        6.687485    3.283962   -7.309319
    148          1           0        6.020323    3.747967   -6.680214
    149          1           0        7.092837    3.811470   -8.069182
    150          6           0        6.590802    1.940760   -7.404743
    151          8           0        9.176921   -3.399906   -3.696574
    152          1           0       10.014949   -3.872597   -3.529269
 ---------------------------------------------------------------------

 SCF Done:  E(RB3LYP) =  -3586.63536060     A.U. after    1 cycles

 Alpha  occ. eigenvalues --  -19.28848 -19.22792 -19.22650 -19.21358 -19.20177
 Alpha  occ. eigenvalues --  -19.19263 -19.17601 -19.16695 -19.16415 -19.16198
 Alpha  occ. eigenvalues --  -19.15071 -19.11220 -19.10810 -14.56047 -14.48096
 Alpha  occ. eigenvalues --  -14.46228 -14.45336 -14.45122 -14.45025 -14.44866
 Alpha  occ. eigenvalues --  -14.43123 -14.42540 -14.40898 -14.39188 -14.38835
 Alpha  occ. eigenvalues --  -10.43248 -10.41096 -10.39414 -10.38822 -10.37355
 Alpha  occ. eigenvalues --  -10.37222 -10.36107 -10.34311 -10.33678 -10.33252
 Alpha  occ. eigenvalues --  -10.33232 -10.32758 -10.32053 -10.31660 -10.31075
 Alpha  occ. eigenvalues --  -10.30868 -10.29101 -10.28765 -10.28252 -10.28191
 Alpha  occ. eigenvalues --  -10.27728 -10.27711 -10.27397 -10.27210 -10.27153
 Alpha  occ. eigenvalues --  -10.27036 -10.26732 -10.25832 -10.24650 -10.24167
 Alpha  occ. eigenvalues --  -10.23844 -10.23722 -10.23669 -10.23645 -10.23472
 Alpha  occ. eigenvalues --  -10.23437 -10.23008 -10.22817 -10.22581 -10.22228
 Alpha  occ. eigenvalues --  -10.22108 -10.22086 -10.21602 -10.20796 -10.20762
 Alpha  occ. eigenvalues --  -10.20646 -10.20643 -10.20495 -10.20416 -10.18524
 Alpha  occ. eigenvalues --   -1.19583  -1.15387  -1.12748  -1.12232  -1.11623
 Alpha  occ. eigenvalues --   -1.10707  -1.10536  -1.09841  -1.09549  -1.08661
 Alpha  occ. eigenvalues --   -1.08017  -1.06633  -1.05287  -1.03764  -1.01662
 Alpha  occ. eigenvalues --   -1.01614  -1.01282  -1.00174  -0.99794  -0.98991
 Alpha  occ. eigenvalues --   -0.98547  -0.97103  -0.96714  -0.95898  -0.95153
 Alpha  occ. eigenvalues --   -0.92052  -0.90235  -0.89149  -0.88391  -0.86057
 Alpha  occ. eigenvalues --   -0.85905  -0.85084  -0.84687  -0.83235  -0.83212
 Alpha  occ. eigenvalues --   -0.82779  -0.82421  -0.79266  -0.78990  -0.78787
 Alpha  occ. eigenvalues --   -0.78720  -0.77996  -0.77710  -0.77389  -0.76414
 Alpha  occ. eigenvalues --   -0.76057  -0.74799  -0.74125  -0.73856  -0.71776
 Alpha  occ. eigenvalues --   -0.71333  -0.70910  -0.70832  -0.70579  -0.70206
 Alpha  occ. eigenvalues --   -0.68945  -0.68622  -0.68496  -0.68152  -0.67560
 Alpha  occ. eigenvalues --   -0.66925  -0.66763  -0.65835  -0.65525  -0.65371
 Alpha  occ. eigenvalues --   -0.65137  -0.64731  -0.64539  -0.64412  -0.63769
 Alpha  occ. eigenvalues --   -0.63027  -0.62851  -0.62404  -0.61927  -0.61730
 Alpha  occ. eigenvalues --   -0.61539  -0.61374  -0.60864  -0.60851  -0.60179
 Alpha  occ. eigenvalues --   -0.59686  -0.59604  -0.58991  -0.58014  -0.57764
 Alpha  occ. eigenvalues --   -0.57335  -0.56848  -0.56220  -0.56138  -0.55940
 Alpha  occ. eigenvalues --   -0.55801  -0.55482  -0.55401  -0.54993  -0.54959
 Alpha  occ. eigenvalues --   -0.54346  -0.54117  -0.53534  -0.53042  -0.52970
 Alpha  occ. eigenvalues --   -0.52899  -0.52436  -0.52159  -0.51837  -0.51748
 Alpha  occ. eigenvalues --   -0.51349  -0.51251  -0.50819  -0.50658  -0.50524
 Alpha  occ. eigenvalues --   -0.50220  -0.49863  -0.49694  -0.49588  -0.49464
 Alpha  occ. eigenvalues --   -0.49394  -0.49092  -0.49023  -0.48937  -0.48791
 Alpha  occ. eigenvalues --   -0.48433  -0.48185  -0.48026  -0.47682  -0.47481
 Alpha  occ. eigenvalues --   -0.47184  -0.47032  -0.46692  -0.46587  -0.46504
 Alpha  occ. eigenvalues --   -0.46468  -0.46252  -0.46044  -0.45845  -0.45516
 Alpha  occ. eigenvalues --   -0.45349  -0.45175  -0.45042  -0.44893  -0.44714
 Alpha  occ. eigenvalues --   -0.44607  -0.44513  -0.44455  -0.44202  -0.44125
 Alpha  occ. eigenvalues --   -0.44003  -0.43874  -0.43629  -0.43360  -0.43040
 Alpha  occ. eigenvalues --   -0.42886  -0.42651  -0.42445  -0.42359  -0.42036
 Alpha  occ. eigenvalues --   -0.41900  -0.41611  -0.41499  -0.41157  -0.40570
 Alpha  occ. eigenvalues --   -0.40507  -0.40317  -0.40081  -0.39629  -0.39431
 Alpha  occ. eigenvalues --   -0.39399  -0.39285  -0.38829  -0.38636  -0.38390
 Alpha  occ. eigenvalues --   -0.38199  -0.38018  -0.37794  -0.37631  -0.37242
 Alpha  occ. eigenvalues --   -0.36836  -0.36426  -0.36287  -0.36277  -0.36211
 Alpha  occ. eigenvalues --   -0.36082  -0.35743  -0.35681  -0.35519  -0.35384
 Alpha  occ. eigenvalues --   -0.35176  -0.34401  -0.34379  -0.33784  -0.33678
 Alpha  occ. eigenvalues --   -0.33285  -0.32638  -0.32091  -0.31831  -0.30939
 Alpha  occ. eigenvalues --   -0.30843  -0.30582  -0.29932  -0.29476  -0.28851
 Alpha  occ. eigenvalues --   -0.28601  -0.28088  -0.27734  -0.26618  -0.25636
 Alpha  occ. eigenvalues --   -0.25183  -0.23484
 Alpha virt. eigenvalues --   -0.08580  -0.08449  -0.07952  -0.07861  -0.06832
 Alpha virt. eigenvalues --   -0.06358  -0.05432  -0.05405  -0.04974  -0.04027
 Alpha virt. eigenvalues --   -0.03600  -0.03536  -0.03072  -0.02973  -0.02375

 Mulliken charges:
               1
     1  N   -0.765893
     2  H    0.407430
     3  H    0.435931
     4  H    0.401910
     5  C   -0.100198
     6  H    0.197136
     7  C    0.657931
     8  C   -0.106649
     9  H    0.171803
    10  O   -0.547704
    11  C   -0.473222
    12  H    0.163654
    13  H    0.179930
    14  H    0.193468
    15  C   -0.468935
    16  H    0.171563
    17  H    0.133462
    18  H    0.194691
    19  N   -0.604926
    20  H    0.368178
    21  C   -0.089604
    22  H    0.240891
    23  C    0.618399
    24  C   -0.071659
    25  H    0.135413
    26  O   -0.591336
    27  C   -0.275611
    28  H    0.172004
    29  H    0.128084
    30  C   -0.457850
    31  H    0.166881
    32  H    0.121409
    33  H    0.148881
    34  C   -0.475026
    35  H    0.135819
    36  H    0.210154
    37  H    0.126957
    38  N   -0.609001
    39  H    0.402758
    40  C   -0.057890
    41  H    0.195833
    42  C    0.619525
    43  C   -0.369079
    44  H    0.166184
    45  H    0.179178
    46  O   -0.537682
    47  C    0.134697
    48  C   -0.216934
    49  H    0.142429
    50  C   -0.183827
    51  H    0.152164
    52  C   -0.122582
    53  H    0.141690
    54  C   -0.127422
    55  H    0.140039
    56  C   -0.129551
    57  H    0.140380
    58  N   -0.636152
    59  H    0.359658
    60  C   -0.060621
    61  H    0.181951
    62  C    0.623306
    63  C   -0.277556
    64  H    0.151699
    65  H    0.136660
    66  O   -0.538383
    67  C   -0.078550
    68  H    0.151344
    69  C   -0.451831
    70  H    0.139672
    71  H    0.149811
    72  H    0.144668
    73  C   -0.445419
    74  H    0.138397
    75  H    0.141816
    76  H    0.145452
    77  N   -0.596939
    78  H    0.378582
    79  C   -0.080866
    80  H    0.176802
    81  C    0.619489
    82  C   -0.302661
    83  H    0.155571
    84  H    0.172554
    85  O   -0.490990
    86  C   -0.321690
    87  H    0.135797
    88  H    0.132130
    89  C    0.577652
    90  O   -0.575050
    91  O   -0.600469
    92  N   -0.632177
    93  H    0.332703
    94  C   -0.061842
    95  H    0.223155
    96  C    0.621370
    97  C   -0.362757
    98  H    0.219295
    99  H    0.150841
   100  O   -0.560151
   101  C    0.672649
   102  N   -0.733996
   103  H    0.347374
   104  H    0.359989
   105  O   -0.576125
   106  N   -0.598216
   107  H    0.366220
   108  C   -0.032804
   109  H    0.155648
   110  C    0.665840
   111  C   -0.376792
   112  H    0.171726
   113  H    0.158807
   114  O   -0.568224
   115  C    0.131445
   116  C   -0.193654
   117  H    0.118183
   118  C   -0.203717
   119  H    0.106024
   120  C   -0.166720
   121  H    0.135880
   122  C   -0.194035
   123  H    0.162380
   124  O   -0.681906
   125  H    0.451233
   126  C    0.362317
   127  N   -0.629196
   128  H    0.365323
   129  C   -0.014853
   130  H    0.205712
   131  C    0.573392
   132  C   -0.281316
   133  H    0.167639
   134  H    0.182798
   135  O   -0.440392
   136  C   -0.325685
   137  H    0.169034
   138  H    0.196637
   139  C   -0.145337
   140  H    0.174095
   141  H    0.188989
   142  N   -0.608891
   143  H    0.354044
   144  N   -0.793170
   145  H    0.402269
   146  H    0.438477
   147  N   -0.797909
   148  H    0.402217
   149  H    0.353250
   150  C    0.769044
   151  O   -0.578735
   152  H    0.432491
 Sum of Mulliken charges =   1.00000

 Dipole moment (field-independent basis, Debye):
    X=              8.8642    Y=             -3.4655    Z=             -2.1235  Tot=              9.7515
 Quadrupole moment (field-independent basis, Debye-Ang):
   XX=           -123.8217   YY=           -327.9302   ZZ=           -175.0005
   XY=            105.1794   XZ=           -274.9692   YZ=            -97.4296

 Normal termination of Gaussian 16 at Sat Aug 13 08:29:21 2022.
