 Gaussian 16, Revision C.01,
 Gaussian 16:  ES64L-G16RevC.01  3-Jul-2019

 -------------------------------------------------------------------
 # B3LYP/6-31G* guess=read geom=check nosymm integral(ultrafinegrid)
 -------------------------------------------------------------------

 ------------------------------------------------------
 Candidate Structure: Conf:137 Charge calc in gas phase
 ------------------------------------------------------
 Structure from the checkpoint file:  "conf-137.chk"
 Charge =  1 Multiplicity = 1

                          Input orientation:
 ---------------------------------------------------------------------
 Center     Atomic      Atomic             Coordinates (Angstroms)
 Number     Number       Type             X           Y           Z
 ---------------------------------------------------------------------
      1          7           0      -11.535702    4.285092    4.869069
      2          1           0      -12.350548    4.235682    4.253550
      3          1           0      -11.386301    3.344016    5.365193
      4          1           0      -11.687320    5.029808    5.554377
      5          6           0      -10.219985    4.426608    4.126561
      6          1           0      -10.451283    4.476661    3.059112
      7          6           0       -9.512248    3.078276    4.455441
      8          6           0       -9.439497    5.689139    4.557411
      9          1           0       -8.495304    5.636264    4.000268
     10          8           0      -10.084884    2.315217    5.255301
     11          6           0      -10.164885    6.972339    4.121263
     12          1           0      -11.115666    7.115901    4.652961
     13          1           0       -9.546374    7.846499    4.344497
     14          1           0      -10.373528    6.977279    3.045695
     15          6           0       -9.097793    5.697636    6.056635
     16          1           0       -9.988222    5.798078    6.693204
     17          1           0       -8.561216    4.795239    6.365633
     18          1           0       -8.460935    6.557511    6.282609
     19          7           0       -8.356051    2.855866    3.855666
     20          1           0       -7.907493    3.539568    3.239624
     21          6           0       -7.498806    1.682449    4.060351
     22          1           0       -7.507778    1.438769    5.126724
     23          6           0       -6.103764    2.184792    3.628705
     24          6           0       -8.013553    0.454233    3.244085
     25          1           0       -9.058432    0.335925    3.564760
     26          8           0       -6.011416    3.182656    2.906878
     27          6           0       -7.278225   -0.860659    3.581979
     28          1           0       -6.246736   -0.806001    3.212967
     29          1           0       -7.757608   -1.645673    2.983785
     30          6           0       -7.981146    0.711394    1.729755
     31          1           0       -6.952327    0.772612    1.360749
     32          1           0       -8.501981    1.636321    1.456860
     33          1           0       -8.476552   -0.111912    1.204339
     34          6           0       -7.319021   -1.288025    5.055676
     35          1           0       -6.898299   -2.291907    5.174600
     36          1           0       -6.746581   -0.624369    5.718152
     37          1           0       -8.347109   -1.312678    5.436698
     38          7           0       -5.043894    1.499056    4.092908
     39          1           0       -5.206728    0.649621    4.616149
     40          6           0       -3.702958    1.723598    3.572854
     41          1           0       -3.507614    2.799696    3.613365
     42          6           0       -3.619793    1.239582    2.103687
     43          6           0       -2.662427    0.964509    4.431731
     44          1           0       -1.673059    1.170774    4.007420
     45          1           0       -2.833859   -0.112443    4.306644
     46          8           0       -4.366716    0.358178    1.679890
     47          6           0       -2.697684    1.331198    5.900855
     48          6           0       -2.213897    2.571407    6.340885
     49          1           0       -1.784378    3.267099    5.622953
     50          6           0       -3.222329    0.443530    6.848646
     51          1           0       -3.573662   -0.536395    6.529663
     52          6           0       -2.260981    2.916961    7.690727
     53          1           0       -1.871683    3.878237    8.015033
     54          6           0       -3.271571    0.785857    8.202111
     55          1           0       -3.672658    0.079182    8.923677
     56          6           0       -2.792984    2.025415    8.626016
     57          1           0       -2.821796    2.291588    9.678936
     58          7           0       -2.649357    1.842694    1.385641
     59          1           0       -1.965207    2.431824    1.857433
     60          6           0       -2.148425    1.355655    0.106102
     61          1           0       -2.493759    0.326042   -0.024716
     62          6           0       -0.606892    1.391708    0.227198
     63          6           0       -2.610568    2.233108   -1.080207
     64          1           0       -2.118759    1.867888   -1.992838
     65          1           0       -2.228838    3.248672   -0.908008
     66          8           0       -0.071950    2.078091    1.105072
     67          6           0       -4.132308    2.291436   -1.316192
     68          1           0       -4.606986    2.597803   -0.373474
     69          6           0       -4.449072    3.359768   -2.374436
     70          1           0       -3.991632    3.107102   -3.339852
     71          1           0       -4.073760    4.346127   -2.076288
     72          1           0       -5.530350    3.445511   -2.534633
     73          6           0       -4.713903    0.929027   -1.723018
     74          1           0       -4.226799    0.547940   -2.630673
     75          1           0       -5.785611    1.017344   -1.938913
     76          1           0       -4.600652    0.188010   -0.926238
     77          7           0        0.068737    0.658986   -0.673006
     78          1           0       -0.403274    0.203779   -1.451620
     79          6           0        1.519188    0.706818   -0.821871
     80          1           0        1.838458    1.755874   -0.842832
     81          6           0        1.801578    0.128984   -2.228694
     82          6           0        2.284155   -0.005271    0.339176
     83          1           0        2.894046   -0.821957   -0.063374
     84          1           0        1.530384   -0.472196    0.981538
     85          8           0        0.885855   -0.219733   -2.981478
     86          6           0        3.160481    0.919504    1.204614
     87          1           0        2.573819    1.804807    1.482891
     88          1           0        3.421817    0.411984    2.138417
     89          6           0        4.473331    1.389113    0.558137
     90          8           0        5.461076    1.562813    1.305267
     91          8           0        4.462373    1.591148   -0.709095
     92          7           0        3.113677    0.084197   -2.535107
     93          1           0        3.760033    0.510383   -1.846951
     94          6           0        3.612116   -0.178032   -3.862027
     95          1           0        2.782246   -0.590263   -4.442906
     96          6           0        4.760384   -1.211243   -3.798644
     97          6           0        4.078838    1.185895   -4.509073
     98          1           0        3.229640    1.625309   -5.043380
     99          1           0        4.343830    1.864159   -3.695813
    100          8           0        5.514019   -1.298980   -2.838006
    101          6           0        5.303982    1.055149   -5.398013
    102          7           0        5.092353    0.838980   -6.720525
    103          1           0        5.850277    0.408153   -7.241908
    104          1           0        4.155794    0.717437   -7.078210
    105          8           0        6.441792    1.101643   -4.919038
    106          7           0        4.869481   -2.000408   -4.910099
    107          1           0        4.278418   -1.807090   -5.706591
    108          6           0        5.996296   -2.894800   -5.134104
    109          1           0        6.342383   -3.198396   -4.142710
    110          6           0        7.112956   -2.143764   -5.890475
    111          6           0        5.568647   -4.135765   -5.953012
    112          1           0        5.238498   -3.792551   -6.941328
    113          1           0        6.468840   -4.739957   -6.125480
    114          8           0        6.881385   -1.544615   -6.942364
    115          6           0        4.493686   -4.968559   -5.291071
    116          6           0        4.793898   -5.798334   -4.199761
    117          1           0        5.817758   -5.858489   -3.836149
    118          6           0        3.169122   -4.930353   -5.736509
    119          1           0        2.905421   -4.309823   -6.590496
    120          6           0        3.813259   -6.555997   -3.570138
    121          1           0        4.050307   -7.199287   -2.728804
    122          6           0        2.171534   -5.685101   -5.118399
    123          1           0        1.147820   -5.641878   -5.485814
    124          8           0        1.567224   -7.265637   -3.376994
    125          1           0        0.700879   -7.142015   -3.795050
    126          6           0        2.491726   -6.499783   -4.029133
    127          7           0        8.343600   -2.212952   -5.329590
    128          1           0        8.495101   -2.751239   -4.485590
    129          6           0        9.506678   -1.536500   -5.887211
    130          1           0        9.479723   -1.653500   -6.975441
    131          6           0       10.744247   -2.232190   -5.346998
    132          6           0        9.535941   -0.010755   -5.586977
    133          1           0       10.276945    0.439687   -6.256978
    134          1           0        8.554926    0.377478   -5.872704
    135          8           0       10.754546   -2.973717   -4.385051
    136          6           0        9.850733    0.430876   -4.144230
    137          1           0       10.909770    0.251027   -3.910819
    138          1           0        9.708318    1.516879   -4.102365
    139          6           0        8.973657   -0.214933   -3.056881
    140          1           0        7.936378   -0.287952   -3.382421
    141          1           0        9.312440   -1.237359   -2.856863
    142          7           0        8.993317    0.508562   -1.782096
    143          1           0        9.778327    0.343214   -1.167717
    144          7           0        6.894190    1.534197   -1.951715
    145          1           0        5.980069    1.687707   -1.463485
    146          1           0        6.867273    1.389789   -2.959974
    147          7           0        7.919130    1.355935    0.105157
    148          1           0        7.002051    1.609188    0.552463
    149          1           0        8.501536    0.756600    0.674785
    150          6           0        7.916044    1.114867   -1.220295
    151          8           0       11.849301   -1.892435   -6.034059
    152          1           0       12.601572   -2.346155   -5.607496
 ---------------------------------------------------------------------

 SCF Done:  E(RB3LYP) =  -3586.65385678     A.U. after    1 cycles

 Alpha  occ. eigenvalues --  -19.26349 -19.26166 -19.21738 -19.20993 -19.20707
 Alpha  occ. eigenvalues --  -19.17798 -19.17685 -19.17083 -19.16503 -19.16326
 Alpha  occ. eigenvalues --  -19.15634 -19.12215 -19.11346 -14.59139 -14.48633
 Alpha  occ. eigenvalues --  -14.44737 -14.41985 -14.41887 -14.41453 -14.41289
 Alpha  occ. eigenvalues --  -14.41239 -14.39835 -14.38757 -14.38358 -14.38089
 Alpha  occ. eigenvalues --  -10.42899 -10.40070 -10.38591 -10.37885 -10.36490
 Alpha  occ. eigenvalues --  -10.35070 -10.34716 -10.34275 -10.34219 -10.33792
 Alpha  occ. eigenvalues --  -10.33270 -10.33207 -10.32456 -10.30789 -10.30652
 Alpha  occ. eigenvalues --  -10.30540 -10.29673 -10.29544 -10.28984 -10.28907
 Alpha  occ. eigenvalues --  -10.28745 -10.28211 -10.27924 -10.27242 -10.26643
 Alpha  occ. eigenvalues --  -10.26599 -10.26021 -10.25432 -10.25379 -10.25098
 Alpha  occ. eigenvalues --  -10.25094 -10.24958 -10.24912 -10.24851 -10.24748
 Alpha  occ. eigenvalues --  -10.24567 -10.24363 -10.23904 -10.23765 -10.23419
 Alpha  occ. eigenvalues --  -10.23416 -10.23346 -10.23256 -10.23135 -10.23035
 Alpha  occ. eigenvalues --  -10.22469 -10.21678 -10.21612 -10.21108 -10.19708
 Alpha  occ. eigenvalues --   -1.18680  -1.17197  -1.13282  -1.12758  -1.09783
 Alpha  occ. eigenvalues --   -1.09428  -1.09397  -1.08917  -1.08353  -1.08125
 Alpha  occ. eigenvalues --   -1.08017  -1.07028  -1.05317  -1.05283  -1.04542
 Alpha  occ. eigenvalues --   -1.01264  -0.98359  -0.98012  -0.97785  -0.96692
 Alpha  occ. eigenvalues --   -0.96398  -0.96146  -0.95547  -0.95081  -0.94956
 Alpha  occ. eigenvalues --   -0.91979  -0.91669  -0.89904  -0.89470  -0.86393
 Alpha  occ. eigenvalues --   -0.86132  -0.85547  -0.85154  -0.84136  -0.82756
 Alpha  occ. eigenvalues --   -0.82185  -0.81655  -0.81318  -0.80433  -0.80319
 Alpha  occ. eigenvalues --   -0.80267  -0.79216  -0.78828  -0.78129  -0.77415
 Alpha  occ. eigenvalues --   -0.74987  -0.73801  -0.73702  -0.73424  -0.72755
 Alpha  occ. eigenvalues --   -0.72486  -0.72407  -0.72244  -0.70669  -0.70568
 Alpha  occ. eigenvalues --   -0.70304  -0.69335  -0.68284  -0.67903  -0.67115
 Alpha  occ. eigenvalues --   -0.66448  -0.66275  -0.65949  -0.65618  -0.65361
 Alpha  occ. eigenvalues --   -0.64887  -0.64484  -0.64117  -0.63808  -0.63604
 Alpha  occ. eigenvalues --   -0.63096  -0.62800  -0.62270  -0.62184  -0.61697
 Alpha  occ. eigenvalues --   -0.61406  -0.60808  -0.59975  -0.59590  -0.59270
 Alpha  occ. eigenvalues --   -0.58858  -0.58461  -0.58395  -0.58054  -0.57859
 Alpha  occ. eigenvalues --   -0.57405  -0.56760  -0.56285  -0.55948  -0.55364
 Alpha  occ. eigenvalues --   -0.55156  -0.54840  -0.54766  -0.54242  -0.54114
 Alpha  occ. eigenvalues --   -0.53843  -0.53414  -0.52898  -0.52759  -0.52416
 Alpha  occ. eigenvalues --   -0.52406  -0.51987  -0.51916  -0.51597  -0.51545
 Alpha  occ. eigenvalues --   -0.51535  -0.51328  -0.51138  -0.50826  -0.50754
 Alpha  occ. eigenvalues --   -0.50664  -0.50441  -0.50134  -0.49943  -0.49759
 Alpha  occ. eigenvalues --   -0.49515  -0.49229  -0.49125  -0.48938  -0.48846
 Alpha  occ. eigenvalues --   -0.48263  -0.48148  -0.48004  -0.47902  -0.47845
 Alpha  occ. eigenvalues --   -0.47614  -0.47388  -0.47357  -0.47145  -0.47123
 Alpha  occ. eigenvalues --   -0.46946  -0.46838  -0.46594  -0.46349  -0.46309
 Alpha  occ. eigenvalues --   -0.45977  -0.45785  -0.45643  -0.45545  -0.45320
 Alpha  occ. eigenvalues --   -0.45107  -0.44738  -0.44693  -0.44379  -0.44210
 Alpha  occ. eigenvalues --   -0.44142  -0.43962  -0.43796  -0.43714  -0.43462
 Alpha  occ. eigenvalues --   -0.43058  -0.42903  -0.42816  -0.42659  -0.42387
 Alpha  occ. eigenvalues --   -0.42268  -0.42109  -0.41972  -0.41900  -0.41405
 Alpha  occ. eigenvalues --   -0.41243  -0.40928  -0.40643  -0.40557  -0.40526
 Alpha  occ. eigenvalues --   -0.40336  -0.40016  -0.39962  -0.39843  -0.39664
 Alpha  occ. eigenvalues --   -0.39340  -0.39144  -0.38807  -0.38745  -0.38144
 Alpha  occ. eigenvalues --   -0.37748  -0.37652  -0.37453  -0.37175  -0.36766
 Alpha  occ. eigenvalues --   -0.36672  -0.36649  -0.35867  -0.34988  -0.34645
 Alpha  occ. eigenvalues --   -0.34301  -0.33174  -0.32464  -0.31881  -0.31630
 Alpha  occ. eigenvalues --   -0.31536  -0.31222  -0.30959  -0.30909  -0.30502
 Alpha  occ. eigenvalues --   -0.30335  -0.30308  -0.29985  -0.29784  -0.29554
 Alpha  occ. eigenvalues --   -0.29328  -0.29001  -0.28346  -0.27371  -0.26933
 Alpha  occ. eigenvalues --   -0.25746  -0.25483
 Alpha virt. eigenvalues --   -0.11780  -0.10813  -0.06982  -0.06511  -0.06312
 Alpha virt. eigenvalues --   -0.06181  -0.05582  -0.04460  -0.04372  -0.04003
 Alpha virt. eigenvalues --   -0.03730  -0.03379  -0.03180  -0.02153  -0.01974

 Mulliken charges:
               1
     1  N   -0.765554
     2  H    0.414246
     3  H    0.436164
     4  H    0.407923
     5  C   -0.099791
     6  H    0.214459
     7  C    0.656905
     8  C   -0.125052
     9  H    0.192390
    10  O   -0.555058
    11  C   -0.461556
    12  H    0.138560
    13  H    0.198339
    14  H    0.172411
    15  C   -0.477314
    16  H    0.141221
    17  H    0.188255
    18  H    0.199238
    19  N   -0.611037
    20  H    0.377749
    21  C   -0.081031
    22  H    0.188108
    23  C    0.652499
    24  C   -0.075326
    25  H    0.146187
    26  O   -0.555090
    27  C   -0.290294
    28  H    0.176941
    29  H    0.155752
    30  C   -0.479083
    31  H    0.208086
    32  H    0.123204
    33  H    0.158728
    34  C   -0.471131
    35  H    0.168505
    36  H    0.132279
    37  H    0.158480
    38  N   -0.600365
    39  H    0.352914
    40  C   -0.050898
    41  H    0.181609
    42  C    0.637202
    43  C   -0.415721
    44  H    0.192955
    45  H    0.166975
    46  O   -0.536930
    47  C    0.192732
    48  C   -0.181061
    49  H    0.135458
    50  C   -0.206005
    51  H    0.126366
    52  C   -0.128608
    53  H    0.142109
    54  C   -0.127980
    55  H    0.139487
    56  C   -0.130240
    57  H    0.140923
    58  N   -0.592573
    59  H    0.353369
    60  C   -0.083059
    61  H    0.180473
    62  C    0.622534
    63  C   -0.254294
    64  H    0.144558
    65  H    0.142732
    66  O   -0.549718
    67  C   -0.069986
    68  H    0.139956
    69  C   -0.443570
    70  H    0.144125
    71  H    0.140588
    72  H    0.136955
    73  C   -0.462999
    74  H    0.136239
    75  H    0.134790
    76  H    0.173290
    77  N   -0.628503
    78  H    0.355814
    79  C   -0.019585
    80  H    0.197883
    81  C    0.572021
    82  C   -0.285424
    83  H    0.163386
    84  H    0.149441
    85  O   -0.558068
    86  C   -0.354439
    87  H    0.182622
    88  H    0.149364
    89  C    0.606775
    90  O   -0.573854
    91  O   -0.628605
    92  N   -0.618292
    93  H    0.415794
    94  C   -0.065419
    95  H    0.175290
    96  C    0.624530
    97  C   -0.367003
    98  H    0.167214
    99  H    0.201798
   100  O   -0.524240
   101  C    0.593294
   102  N   -0.734636
   103  H    0.383299
   104  H    0.336173
   105  O   -0.524375
   106  N   -0.582589
   107  H    0.325080
   108  C   -0.057077
   109  H    0.176669
   110  C    0.662446
   111  C   -0.394056
   112  H    0.162592
   113  H    0.164155
   114  O   -0.570598
   115  C    0.197823
   116  C   -0.185281
   117  H    0.127084
   118  C   -0.196087
   119  H    0.118816
   120  C   -0.153949
   121  H    0.147156
   122  C   -0.189253
   123  H    0.123404
   124  O   -0.638709
   125  H    0.409396
   126  C    0.351728
   127  N   -0.612699
   128  H    0.356505
   129  C   -0.037506
   130  H    0.200226
   131  C    0.591252
   132  C   -0.294105
   133  H    0.160718
   134  H    0.206972
   135  O   -0.475102
   136  C   -0.272399
   137  H    0.137056
   138  H    0.166854
   139  C   -0.181481
   140  H    0.212754
   141  H    0.160247
   142  N   -0.608004
   143  H    0.333954
   144  N   -0.818491
   145  H    0.419033
   146  H    0.397954
   147  N   -0.783502
   148  H    0.415417
   149  H    0.327917
   150  C    0.758068
   151  O   -0.558878
   152  H    0.422590
 Sum of Mulliken charges =   1.00000

 Dipole moment (field-independent basis, Debye):
    X=            -31.0512    Y=             13.1911    Z=             10.1948  Tot=             35.2436
 Quadrupole moment (field-independent basis, Debye-Ang):
   XX=            143.0275   YY=           -349.4557   ZZ=           -279.1853
   XY=           -212.0433   XZ=           -251.2355   YZ=             95.8473

 Normal termination of Gaussian 16 at Sat Aug 13 08:29:40 2022.
