 Gaussian 16, Revision C.01,
 Gaussian 16:  ES64L-G16RevC.01  3-Jul-2019

 -------------------------------------------------------------------
 # B3LYP/6-31G* guess=read geom=check nosymm integral(ultrafinegrid)
 -------------------------------------------------------------------

 ------------------------------------------------------
 Candidate Structure: Conf:727 Charge calc in gas phase
 ------------------------------------------------------
 Structure from the checkpoint file:  "conf-727.chk"
 Charge =  1 Multiplicity = 1

                          Input orientation:
 ---------------------------------------------------------------------
 Center     Atomic      Atomic             Coordinates (Angstroms)
 Number     Number       Type             X           Y           Z
 ---------------------------------------------------------------------
      1          7           0       -6.129638    0.267174   10.167722
      2          1           0       -6.975804    0.020248   10.686350
      3          1           0       -5.629212   -0.621915    9.841887
      4          1           0       -5.521505    0.819495   10.778036
      5          6           0       -6.409641    0.947436    8.840466
      6          1           0       -7.489107    1.106686    8.773640
      7          6           0       -5.957250   -0.132084    7.813889
      8          6           0       -5.665607    2.297397    8.711234
      9          1           0       -5.882304    2.638943    7.690777
     10          8           0       -5.383253   -1.139535    8.260698
     11          6           0       -6.231245    3.344347    9.684104
     12          1           0       -6.034978    3.088392   10.734567
     13          1           0       -5.759011    4.314684    9.505384
     14          1           0       -7.312554    3.471963    9.562499
     15          6           0       -4.139867    2.152815    8.839179
     16          1           0       -3.825225    1.867241    9.852810
     17          1           0       -3.730901    1.417018    8.139603
     18          1           0       -3.661951    3.113621    8.628706
     19          7           0       -6.231172    0.120280    6.542197
     20          1           0       -6.585927    1.032932    6.247097
     21          6           0       -5.729038   -0.636713    5.386295
     22          1           0       -4.877843   -1.239795    5.717099
     23          6           0       -5.285049    0.487344    4.415477
     24          6           0       -6.822165   -1.562300    4.766502
     25          1           0       -7.610347   -0.900899    4.376851
     26          8           0       -5.853721    1.585777    4.477503
     27          6           0       -7.450241   -2.475597    5.841633
     28          1           0       -7.803539   -1.854521    6.673582
     29          1           0       -6.672935   -3.132644    6.255409
     30          6           0       -6.245996   -2.380038    3.598673
     31          1           0       -5.454436   -3.057085    3.945907
     32          1           0       -5.830103   -1.754009    2.805621
     33          1           0       -7.026404   -2.995353    3.143993
     34          6           0       -8.630004   -3.317757    5.339985
     35          1           0       -9.093614   -3.857918    6.172367
     36          1           0       -9.402347   -2.688160    4.881480
     37          1           0       -8.323671   -4.063735    4.600571
     38          7           0       -4.287830    0.203914    3.568788
     39          1           0       -3.904963   -0.735526    3.478444
     40          6           0       -3.856987    1.104941    2.507617
     41          1           0       -4.743623    1.607843    2.104355
     42          6           0       -3.251090    0.193032    1.416596
     43          6           0       -2.886196    2.208448    3.019536
     44          1           0       -3.432430    2.758897    3.793348
     45          1           0       -2.713592    2.917313    2.201274
     46          8           0       -3.118093   -1.015764    1.621705
     47          6           0       -1.560935    1.705058    3.550913
     48          6           0       -1.439703    1.245677    4.870058
     49          1           0       -2.306669    1.275424    5.526921
     50          6           0       -0.424134    1.688042    2.730293
     51          1           0       -0.493159    2.061886    1.711644
     52          6           0       -0.222063    0.765723    5.353073
     53          1           0       -0.145447    0.416137    6.379662
     54          6           0        0.795705    1.209837    3.211574
     55          1           0        1.666843    1.208066    2.561918
     56          6           0        0.899959    0.743434    4.522648
     57          1           0        1.850556    0.374726    4.897766
     58          7           0       -2.929755    0.811248    0.262171
     59          1           0       -2.878434    1.826934    0.233644
     60          6           0       -2.145562    0.187313   -0.798469
     61          1           0       -1.683460   -0.714938   -0.388243
     62          6           0       -1.052357    1.212675   -1.175909
     63          6           0       -3.004541   -0.161201   -2.037302
     64          1           0       -2.337946   -0.509864   -2.838739
     65          1           0       -3.457932    0.771493   -2.399476
     66          8           0       -1.152269    2.391449   -0.819747
     67          6           0       -4.107341   -1.214183   -1.813172
     68          1           0       -4.729892   -0.875970   -0.972828
     69          6           0       -5.001980   -1.296170   -3.059903
     70          1           0       -4.428457   -1.626225   -3.935671
     71          1           0       -5.448074   -0.324007   -3.301079
     72          1           0       -5.817910   -2.012444   -2.910487
     73          6           0       -3.536437   -2.594895   -1.456326
     74          1           0       -2.856796   -2.953486   -2.241172
     75          1           0       -4.343538   -3.330672   -1.361355
     76          1           0       -2.997003   -2.577832   -0.504564
     77          7           0       -0.027449    0.729239   -1.906242
     78          1           0       -0.109785   -0.187592   -2.336842
     79          6           0        0.969027    1.586479   -2.550796
     80          1           0        0.435437    2.412822   -3.043180
     81          6           0        1.579249    0.723713   -3.676941
     82          6           0        1.962003    2.225203   -1.552178
     83          1           0        1.340398    2.698709   -0.787999
     84          1           0        2.486093    3.037954   -2.064928
     85          8           0        0.976122   -0.279732   -4.090249
     86          6           0        3.010087    1.295463   -0.908577
     87          1           0        3.049870    1.448161    0.175534
     88          1           0        2.745172    0.236623   -1.035565
     89          6           0        4.461014    1.469090   -1.423324
     90          8           0        5.356520    0.873967   -0.782607
     91          8           0        4.633416    2.195223   -2.460370
     92          7           0        2.751764    1.150052   -4.187864
     93          1           0        3.363761    1.745895   -3.596315
     94          6           0        3.453748    0.338457   -5.186284
     95          1           0        2.718268    0.026102   -5.933175
     96          6           0        4.041937   -0.916979   -4.504389
     97          6           0        4.551393    1.209803   -5.830142
     98          1           0        4.093243    1.832159   -6.608649
     99          1           0        4.939274    1.890775   -5.074514
    100          8           0        5.111476   -0.895007   -3.903364
    101          6           0        5.779913    0.540408   -6.447656
    102          7           0        5.628797   -0.650941   -7.080638
    103          1           0        6.490147   -1.100115   -7.367813
    104          1           0        4.902848   -1.306311   -6.815767
    105          8           0        6.862140    1.140260   -6.446523
    106          7           0        3.294440   -2.041199   -4.687864
    107          1           0        2.315361   -1.892922   -4.914257
    108          6           0        3.680644   -3.342816   -4.158281
    109          1           0        3.511700   -3.379918   -3.072579
    110          6           0        5.177371   -3.566669   -4.452251
    111          6           0        2.825042   -4.431402   -4.849813
    112          1           0        1.767968   -4.171425   -4.703348
    113          1           0        3.029199   -4.372216   -5.924469
    114          8           0        5.645548   -3.388461   -5.575485
    115          6           0        3.088695   -5.829925   -4.337144
    116          6           0        4.010839   -6.670709   -4.979044
    117          1           0        4.528540   -6.313758   -5.866030
    118          6           0        2.438145   -6.318009   -3.198102
    119          1           0        1.708035   -5.695027   -2.685042
    120          6           0        4.278660   -7.950308   -4.504423
    121          1           0        4.987424   -8.601145   -5.006485
    122          6           0        2.696724   -7.597752   -2.707855
    123          1           0        2.175787   -7.959511   -1.823155
    124          8           0        3.919694   -9.682730   -2.938864
    125          1           0        3.400401   -9.884905   -2.145107
    126          6           0        3.621253   -8.418978   -3.361426
    127          7           0        5.905182   -4.002494   -3.397393
    128          1           0        5.466917   -4.185884   -2.504378
    129          6           0        7.348248   -4.113121   -3.451697
    130          1           0        7.628473   -4.474559   -4.445371
    131          6           0        7.784186   -5.129700   -2.409058
    132          6           0        8.040876   -2.740024   -3.220505
    133          1           0        9.113349   -2.864746   -3.424813
    134          1           0        7.619492   -2.068903   -3.975081
    135          8           0        7.093268   -5.521152   -1.493666
    136          6           0        7.834701   -2.158330   -1.814337
    137          1           0        6.764125   -2.075017   -1.597308
    138          1           0        8.265146   -2.838810   -1.067308
    139          6           0        8.469993   -0.771232   -1.588812
    140          1           0        8.542953   -0.593552   -0.511123
    141          1           0        9.497511   -0.736424   -1.972080
    142          7           0        7.706619    0.347576   -2.128685
    143          1           0        6.857108    0.638772   -1.586121
    144          7           0        8.810452    0.490854   -4.209179
    145          1           0        8.617098    0.739575   -5.176125
    146          1           0        9.156578   -0.450376   -4.096855
    147          7           0        7.140679    1.992701   -3.643495
    148          1           0        7.084423    2.189284   -4.639808
    149          1           0        6.272015    2.174084   -3.098925
    150          6           0        7.861779    0.911790   -3.322157
    151          8           0        9.064124   -5.511594   -2.593516
    152          1           0        9.279964   -6.132377   -1.871373
 ---------------------------------------------------------------------

 SCF Done:  E(RB3LYP) =  -3586.65930604     A.U. after    3 cycles

 Alpha  occ. eigenvalues --  -19.26815 -19.25732 -19.22097 -19.21343 -19.20144
 Alpha  occ. eigenvalues --  -19.19317 -19.18057 -19.18054 -19.17430 -19.17186
 Alpha  occ. eigenvalues --  -19.16579 -19.13374 -19.12327 -14.59670 -14.49138
 Alpha  occ. eigenvalues --  -14.44833 -14.42667 -14.41586 -14.41541 -14.41183
 Alpha  occ. eigenvalues --  -14.41130 -14.40652 -14.40357 -14.40006 -14.38288
 Alpha  occ. eigenvalues --  -10.43391 -10.40489 -10.38386 -10.38060 -10.36591
 Alpha  occ. eigenvalues --  -10.36299 -10.34887 -10.34850 -10.34606 -10.34605
 Alpha  occ. eigenvalues --  -10.34134 -10.34003 -10.33909 -10.31470 -10.30938
 Alpha  occ. eigenvalues --  -10.30846 -10.30751 -10.29487 -10.29485 -10.29341
 Alpha  occ. eigenvalues --  -10.29310 -10.29118 -10.28793 -10.28734 -10.27846
 Alpha  occ. eigenvalues --  -10.26655 -10.26547 -10.25668 -10.25519 -10.25104
 Alpha  occ. eigenvalues --  -10.25030 -10.25027 -10.24880 -10.24866 -10.24726
 Alpha  occ. eigenvalues --  -10.24505 -10.24495 -10.24382 -10.24252 -10.24145
 Alpha  occ. eigenvalues --  -10.23874 -10.23843 -10.23723 -10.23479 -10.23361
 Alpha  occ. eigenvalues --  -10.22751 -10.22414 -10.22145 -10.21869 -10.21750
 Alpha  occ. eigenvalues --   -1.19154  -1.16681  -1.13724  -1.13160  -1.11120
 Alpha  occ. eigenvalues --   -1.10158  -1.10110  -1.09641  -1.09078  -1.08576
 Alpha  occ. eigenvalues --   -1.08125  -1.07639  -1.06001  -1.05827  -1.05121
 Alpha  occ. eigenvalues --   -1.01414  -0.99405  -0.98415  -0.98054  -0.98020
 Alpha  occ. eigenvalues --   -0.97880  -0.96876  -0.95366  -0.95325  -0.95025
 Alpha  occ. eigenvalues --   -0.93026  -0.91401  -0.90570  -0.89896  -0.87100
 Alpha  occ. eigenvalues --   -0.86630  -0.85751  -0.85582  -0.84765  -0.83554
 Alpha  occ. eigenvalues --   -0.82849  -0.82234  -0.81985  -0.80879  -0.80378
 Alpha  occ. eigenvalues --   -0.80020  -0.79474  -0.79171  -0.78719  -0.77763
 Alpha  occ. eigenvalues --   -0.75938  -0.74224  -0.73858  -0.73841  -0.73669
 Alpha  occ. eigenvalues --   -0.72957  -0.72836  -0.72832  -0.71711  -0.71089
 Alpha  occ. eigenvalues --   -0.70741  -0.69837  -0.68567  -0.68052  -0.67527
 Alpha  occ. eigenvalues --   -0.67057  -0.66653  -0.66582  -0.66221  -0.65966
 Alpha  occ. eigenvalues --   -0.65305  -0.64745  -0.64644  -0.63946  -0.63564
 Alpha  occ. eigenvalues --   -0.63508  -0.62878  -0.62674  -0.62501  -0.62119
 Alpha  occ. eigenvalues --   -0.61987  -0.61402  -0.60564  -0.59483  -0.59241
 Alpha  occ. eigenvalues --   -0.58908  -0.58742  -0.58614  -0.58405  -0.57838
 Alpha  occ. eigenvalues --   -0.57416  -0.57231  -0.56874  -0.56178  -0.55852
 Alpha  occ. eigenvalues --   -0.55459  -0.55139  -0.54879  -0.54712  -0.54506
 Alpha  occ. eigenvalues --   -0.54268  -0.54128  -0.53707  -0.53386  -0.53116
 Alpha  occ. eigenvalues --   -0.53104  -0.52837  -0.52523  -0.52331  -0.52150
 Alpha  occ. eigenvalues --   -0.51808  -0.51705  -0.51520  -0.51341  -0.51187
 Alpha  occ. eigenvalues --   -0.51098  -0.51061  -0.50714  -0.50605  -0.50474
 Alpha  occ. eigenvalues --   -0.50177  -0.49974  -0.49553  -0.49315  -0.49116
 Alpha  occ. eigenvalues --   -0.48867  -0.48651  -0.48512  -0.48330  -0.48231
 Alpha  occ. eigenvalues --   -0.48071  -0.47869  -0.47617  -0.47569  -0.47467
 Alpha  occ. eigenvalues --   -0.47383  -0.47268  -0.47030  -0.46754  -0.46694
 Alpha  occ. eigenvalues --   -0.46567  -0.46480  -0.46043  -0.45902  -0.45718
 Alpha  occ. eigenvalues --   -0.45493  -0.45383  -0.45300  -0.44937  -0.44817
 Alpha  occ. eigenvalues --   -0.44734  -0.44611  -0.44371  -0.44117  -0.44072
 Alpha  occ. eigenvalues --   -0.43931  -0.43792  -0.43390  -0.43217  -0.43058
 Alpha  occ. eigenvalues --   -0.42982  -0.42624  -0.42401  -0.42284  -0.41557
 Alpha  occ. eigenvalues --   -0.41508  -0.41406  -0.41386  -0.41280  -0.41222
 Alpha  occ. eigenvalues --   -0.40880  -0.40812  -0.40499  -0.40284  -0.40030
 Alpha  occ. eigenvalues --   -0.39709  -0.39654  -0.39535  -0.39115  -0.38573
 Alpha  occ. eigenvalues --   -0.38435  -0.38051  -0.38037  -0.37790  -0.37683
 Alpha  occ. eigenvalues --   -0.37560  -0.37426  -0.37043  -0.35393  -0.34795
 Alpha  occ. eigenvalues --   -0.33820  -0.33563  -0.33385  -0.32896  -0.32667
 Alpha  occ. eigenvalues --   -0.32481  -0.32201  -0.31532  -0.31395  -0.31201
 Alpha  occ. eigenvalues --   -0.30876  -0.30616  -0.30607  -0.30391  -0.30092
 Alpha  occ. eigenvalues --   -0.29884  -0.29516  -0.29221  -0.28302  -0.27914
 Alpha  occ. eigenvalues --   -0.26586  -0.26174
 Alpha virt. eigenvalues --   -0.12200  -0.11307  -0.07448  -0.06832  -0.06093
 Alpha virt. eigenvalues --   -0.06007  -0.05219  -0.05002  -0.04731  -0.04507
 Alpha virt. eigenvalues --   -0.04229  -0.04106  -0.03600  -0.03529  -0.02909

 Mulliken charges:
               1
     1  N   -0.763799
     2  H    0.415373
     3  H    0.435766
     4  H    0.409184
     5  C   -0.102109
     6  H    0.213538
     7  C    0.649989
     8  C   -0.127780
     9  H    0.195082
    10  O   -0.547418
    11  C   -0.461672
    12  H    0.138880
    13  H    0.199872
    14  H    0.172821
    15  C   -0.481551
    16  H    0.141978
    17  H    0.189365
    18  H    0.202260
    19  N   -0.597192
    20  H    0.373171
    21  C   -0.077977
    22  H    0.186395
    23  C    0.625726
    24  C   -0.073877
    25  H    0.143203
    26  O   -0.557916
    27  C   -0.251061
    28  H    0.116864
    29  H    0.149458
    30  C   -0.481937
    31  H    0.154890
    32  H    0.170834
    33  H    0.173309
    34  C   -0.453615
    35  H    0.154812
    36  H    0.151099
    37  H    0.163376
    38  N   -0.602914
    39  H    0.371351
    40  C   -0.054613
    41  H    0.190603
    42  C    0.629976
    43  C   -0.380786
    44  H    0.173602
    45  H    0.170351
    46  O   -0.541927
    47  C    0.170774
    48  C   -0.180713
    49  H    0.098617
    50  C   -0.203093
    51  H    0.162504
    52  C   -0.126519
    53  H    0.122229
    54  C   -0.135011
    55  H    0.152190
    56  C   -0.127815
    57  H    0.140752
    58  N   -0.603844
    59  H    0.357219
    60  C   -0.082475
    61  H    0.188754
    62  C    0.628303
    63  C   -0.259608
    64  H    0.146646
    65  H    0.145344
    66  O   -0.549047
    67  C   -0.065865
    68  H    0.129009
    69  C   -0.445306
    70  H    0.145966
    71  H    0.143692
    72  H    0.146084
    73  C   -0.463218
    74  H    0.133861
    75  H    0.143910
    76  H    0.171299
    77  N   -0.612454
    78  H    0.356549
    79  C   -0.037891
    80  H    0.189199
    81  C    0.593630
    82  C   -0.299389
    83  H    0.174509
    84  H    0.175942
    85  O   -0.572055
    86  C   -0.371485
    87  H    0.165293
    88  H    0.151343
    89  C    0.623303
    90  O   -0.581934
    91  O   -0.620211
    92  N   -0.634926
    93  H    0.412126
    94  C   -0.057846
    95  H    0.168006
    96  C    0.606458
    97  C   -0.381155
    98  H    0.193689
    99  H    0.192731
   100  O   -0.527980
   101  C    0.607880
   102  N   -0.720011
   103  H    0.347813
   104  H    0.361606
   105  O   -0.555776
   106  N   -0.621785
   107  H    0.362511
   108  C   -0.001716
   109  H    0.148978
   110  C    0.672331
   111  C   -0.390956
   112  H    0.152658
   113  H    0.175742
   114  O   -0.569469
   115  C    0.156282
   116  C   -0.187337
   117  H    0.146547
   118  C   -0.192544
   119  H    0.123786
   120  C   -0.158520
   121  H    0.147557
   122  C   -0.189059
   123  H    0.122710
   124  O   -0.637427
   125  H    0.409849
   126  C    0.354836
   127  N   -0.600888
   128  H    0.352321
   129  C   -0.041294
   130  H    0.199717
   131  C    0.590560
   132  C   -0.295519
   133  H    0.147349
   134  H    0.187276
   135  O   -0.467161
   136  C   -0.265433
   137  H    0.180158
   138  H    0.145750
   139  C   -0.177730
   140  H    0.179385
   141  H    0.154113
   142  N   -0.614312
   143  H    0.421247
   144  N   -0.767305
   145  H    0.377554
   146  H    0.347324
   147  N   -0.800275
   148  H    0.360824
   149  H    0.415052
   150  C    0.754391
   151  O   -0.565213
   152  H    0.420546
 Sum of Mulliken charges =   1.00000

 Dipole moment (field-independent basis, Debye):
    X=            -19.3502    Y=             -3.7881    Z=             31.6358  Tot=             37.2774
 Quadrupole moment (field-independent basis, Debye-Ang):
   XX=           -209.8012   YY=           -414.2959   ZZ=            -58.3071
   XY=            -53.6144   XZ=           -250.5759   YZ=             37.9125

 Normal termination of Gaussian 16 at Sat Aug 13 08:30:57 2022.
