 Gaussian 16, Revision C.01,
 Gaussian 16:  ES64L-G16RevC.01  3-Jul-2019

 -------------------------------------------------------------------
 # B3LYP/6-31G* guess=read geom=check nosymm integral(ultrafinegrid)
 -------------------------------------------------------------------

 ------------------------------------------------------
 Candidate Structure: Conf:156 Charge calc in gas phase
 ------------------------------------------------------
 Structure from the checkpoint file:  "conf-156.chk"
 Charge =  1 Multiplicity = 1

                          Input orientation:
 ---------------------------------------------------------------------
 Center     Atomic      Atomic             Coordinates (Angstroms)
 Number     Number       Type             X           Y           Z
 ---------------------------------------------------------------------
      1          7           0      -10.455108   -1.907565    7.605826
      2          1           0      -11.461253   -1.738730    7.542444
      3          1           0      -10.145839   -2.624967    6.868792
      4          1           0      -10.238453   -2.251692    8.545090
      5          6           0       -9.608266   -0.711404    7.211962
      6          1           0      -10.293467    0.090856    6.924581
      7          6           0       -8.855463   -1.242683    5.956071
      8          6           0       -8.692067   -0.238154    8.363312
      9          1           0       -8.100019    0.580478    7.934628
     10          8           0       -9.049970   -2.428781    5.632847
     11          6           0       -9.511538    0.340791    9.527777
     12          1           0      -10.115664   -0.424677   10.034192
     13          1           0       -8.841932    0.761949   10.283225
     14          1           0      -10.184403    1.139474    9.196087
     15          6           0       -7.708006   -1.323562    8.828541
     16          1           0       -8.209954   -2.169504    9.319821
     17          1           0       -7.102161   -1.713938    8.005403
     18          1           0       -7.019179   -0.899699    9.564040
     19          7           0       -8.067277   -0.382049    5.335521
     20          1           0       -7.877640    0.555209    5.702623
     21          6           0       -7.155110   -0.704824    4.231901
     22          1           0       -6.781765   -1.720093    4.390142
     23          6           0       -6.013050    0.323489    4.417028
     24          6           0       -7.878494   -0.631140    2.852375
     25          1           0       -8.762383   -1.273519    2.974005
     26          8           0       -6.222972    1.343517    5.082551
     27          6           0       -7.049934   -1.220338    1.689877
     28          1           0       -6.162352   -0.603566    1.499972
     29          1           0       -7.667873   -1.126569    0.787908
     30          6           0       -8.353329    0.792107    2.525077
     31          1           0       -7.509356    1.471047    2.359745
     32          1           0       -8.968955    1.215444    3.326273
     33          1           0       -8.956966    0.784933    1.611687
     34          6           0       -6.642238   -2.690989    1.848438
     35          1           0       -6.176066   -3.057132    0.928517
     36          1           0       -5.914283   -2.848903    2.654212
     37          1           0       -7.510541   -3.326269    2.060983
     38          7           0       -4.838373    0.018798    3.843189
     39          1           0       -4.764199   -0.745167    3.176622
     40          6           0       -3.695254    0.919357    3.819779
     41          1           0       -4.052676    1.924664    4.057946
     42          6           0       -3.117808    0.852543    2.390652
     43          6           0       -2.595242    0.494404    4.836726
     44          1           0       -1.766052    1.207415    4.752828
     45          1           0       -2.203872   -0.479566    4.519492
     46          8           0       -3.377317   -0.112983    1.667035
     47          6           0       -3.072067    0.412369    6.270674
     48          6           0       -3.226462    1.570419    7.045334
     49          1           0       -2.997701    2.541179    6.611643
     50          6           0       -3.357330   -0.826742    6.857918
     51          1           0       -3.222911   -1.736206    6.276678
     52          6           0       -3.651224    1.492967    8.370899
     53          1           0       -3.748551    2.401429    8.959176
     54          6           0       -3.778948   -0.910722    8.187013
     55          1           0       -3.964912   -1.884809    8.633110
     56          6           0       -3.927011    0.250401    8.947700
     57          1           0       -4.228178    0.187922    9.990656
     58          7           0       -2.314979    1.880464    2.053006
     59          1           0       -2.012118    2.530690    2.778093
     60          6           0       -1.356666    1.841054    0.951068
     61          1           0       -1.279209    0.805921    0.606758
     62          6           0       -0.014757    2.301075    1.572653
     63          6           0       -1.755609    2.768130   -0.218180
     64          1           0       -0.938686    2.763910   -0.953579
     65          1           0       -1.813062    3.792493    0.174435
     66          8           0       -0.011895    2.920192    2.641037
     67          6           0       -3.075742    2.416741   -0.931208
     68          1           0       -3.868163    2.381177   -0.170024
     69          6           0       -3.432728    3.526726   -1.932061
     70          1           0       -2.670465    3.608450   -2.717769
     71          1           0       -3.510550    4.503748   -1.440049
     72          1           0       -4.390966    3.319865   -2.422437
     73          6           0       -3.022433    1.047824   -1.626339
     74          1           0       -2.199431    1.006689   -2.352378
     75          1           0       -3.952840    0.859408   -2.175013
     76          1           0       -2.896578    0.232869   -0.907224
     77          7           0        1.089782    1.991498    0.872683
     78          1           0        1.028139    1.569962   -0.049898
     79          6           0        2.435544    2.430156    1.236153
     80          1           0        2.387624    3.475214    1.562644
     81          6           0        3.251763    2.385233   -0.075501
     82          6           0        2.978794    1.584773    2.422497
     83          1           0        2.978258    0.530094    2.119504
     84          1           0        2.230813    1.699558    3.213478
     85          8           0        2.757235    1.898224   -1.115110
     86          6           0        4.365263    1.944759    3.002237
     87          1           0        4.480417    1.386078    3.935964
     88          1           0        5.152203    1.611472    2.316236
     89          6           0        4.561019    3.449661    3.312938
     90          8           0        4.923597    4.144453    2.266492
     91          8           0        4.361678    3.886100    4.439739
     92          7           0        4.467689    2.931418    0.010997
     93          1           0        4.710887    3.376857    0.954444
     94          6           0        5.297566    3.350352   -1.113618
     95          1           0        4.655352    3.833990   -1.867610
     96          6           0        6.019990    2.215849   -1.891175
     97          6           0        6.326590    4.372829   -0.579300
     98          1           0        6.664991    4.057562    0.411072
     99          1           0        7.188129    4.375776   -1.248648
    100          8           0        7.215377    2.320397   -2.208262
    101          6           0        5.760599    5.779359   -0.528579
    102          7           0        5.310073    6.226861    0.639512
    103          1           0        4.879916    7.143277    0.658855
    104          1           0        5.190908    5.590083    1.463116
    105          8           0        5.731687    6.471649   -1.582565
    106          7           0        5.230388    1.199283   -2.280537
    107          1           0        4.234588    1.259111   -2.042791
    108          6           0        5.698268    0.115788   -3.151159
    109          1           0        6.723117   -0.122114   -2.845550
    110          6           0        5.723345    0.611052   -4.620263
    111          6           0        4.805606   -1.127874   -3.012238
    112          1           0        3.783067   -0.855404   -3.295488
    113          1           0        5.138901   -1.847330   -3.768011
    114          8           0        4.892473    0.278122   -5.455768
    115          6           0        4.833397   -1.757817   -1.636061
    116          6           0        3.801507   -1.540997   -0.712139
    117          1           0        2.967628   -0.898649   -0.984320
    118          6           0        5.894354   -2.584691   -1.246657
    119          1           0        6.705468   -2.783783   -1.944148
    120          6           0        3.822105   -2.123484    0.552858
    121          1           0        3.016421   -1.960748    1.262208
    122          6           0        5.933573   -3.171729    0.017205
    123          1           0        6.767180   -3.814509    0.295168
    124          8           0        4.863791   -3.494534    2.174568
    125          1           0        5.667801   -4.020762    2.305721
    126          6           0        4.893240   -2.942291    0.923301
    127          7           0        6.735251    1.488956   -4.884058
    128          1           0        7.362596    1.728578   -4.120581
    129          6           0        6.858890    2.129274   -6.170316
    130          1           0        5.851239    2.265644   -6.578925
    131          6           0        7.615680    1.237711   -7.165109
    132          6           0        7.561634    3.499802   -6.058692
    133          1           0        8.604070    3.344700   -5.746869
    134          1           0        7.593553    3.939173   -7.062270
    135          8           0        8.276016    0.266949   -6.889601
    136          6           0        6.871003    4.455215   -5.074154
    137          1           0        5.804331    4.543618   -5.315587
    138          1           0        6.943431    4.047621   -4.059986
    139          6           0        7.510262    5.846859   -5.102106
    140          1           0        8.597866    5.764814   -4.965770
    141          1           0        7.327944    6.312638   -6.079648
    142          7           0        6.942418    6.699822   -4.053494
    143          1           0        6.527113    6.270506   -3.209046
    144          7           0        7.677487    8.726090   -4.957695
    145          1           0        7.483209    9.707966   -5.088625
    146          1           0        8.131294    8.249913   -5.721809
    147          7           0        6.345409    8.693331   -3.053306
    148          1           0        6.627037    9.639028   -2.837684
    149          1           0        5.942363    8.125104   -2.295288
    150          6           0        6.994936    8.026517   -4.023583
    151          8           0        7.468167    1.706929   -8.430135
    152          1           0        7.970438    1.101499   -9.007916
 ---------------------------------------------------------------------

 SCF Done:  E(RB3LYP) =  -3586.63340434     A.U. after    3 cycles

 Alpha  occ. eigenvalues --  -19.25975 -19.24019 -19.20707 -19.20494 -19.18804
 Alpha  occ. eigenvalues --  -19.18342 -19.18221 -19.16698 -19.16679 -19.16193
 Alpha  occ. eigenvalues --  -19.15103 -19.10527 -19.08232 -14.58741 -14.48131
 Alpha  occ. eigenvalues --  -14.48100 -14.46275 -14.45671 -14.44075 -14.41588
 Alpha  occ. eigenvalues --  -14.39967 -14.39902 -14.39765 -14.39247 -14.38070
 Alpha  occ. eigenvalues --  -10.43233 -10.42487 -10.39627 -10.37583 -10.36117
 Alpha  occ. eigenvalues --  -10.35248 -10.35153 -10.33695 -10.33364 -10.33205
 Alpha  occ. eigenvalues --  -10.32917 -10.32874 -10.32128 -10.32068 -10.30508
 Alpha  occ. eigenvalues --  -10.30198 -10.29838 -10.28824 -10.28798 -10.28290
 Alpha  occ. eigenvalues --  -10.27937 -10.27748 -10.27198 -10.27068 -10.26708
 Alpha  occ. eigenvalues --  -10.26541 -10.26221 -10.25879 -10.25664 -10.25399
 Alpha  occ. eigenvalues --  -10.25109 -10.25062 -10.25001 -10.24870 -10.24823
 Alpha  occ. eigenvalues --  -10.24638 -10.24384 -10.23986 -10.23434 -10.23244
 Alpha  occ. eigenvalues --  -10.22236 -10.22023 -10.21908 -10.21873 -10.21761
 Alpha  occ. eigenvalues --  -10.21474 -10.21330 -10.21290 -10.20908 -10.18833
 Alpha  occ. eigenvalues --   -1.18286  -1.14761  -1.12852  -1.12311  -1.11909
 Alpha  occ. eigenvalues --   -1.10028  -1.09124  -1.08699  -1.08441  -1.08069
 Alpha  occ. eigenvalues --   -1.07377  -1.06884  -1.05816  -1.04892  -1.02287
 Alpha  occ. eigenvalues --   -1.01219  -1.00676  -0.99884  -0.98348  -0.96985
 Alpha  occ. eigenvalues --   -0.96612  -0.96410  -0.96027  -0.95190  -0.94446
 Alpha  occ. eigenvalues --   -0.93517  -0.91464  -0.89759  -0.88126  -0.87496
 Alpha  occ. eigenvalues --   -0.86207  -0.85748  -0.84928  -0.83711  -0.82460
 Alpha  occ. eigenvalues --   -0.81877  -0.81391  -0.81171  -0.81086  -0.80243
 Alpha  occ. eigenvalues --   -0.80180  -0.79127  -0.77942  -0.77556  -0.76844
 Alpha  occ. eigenvalues --   -0.75467  -0.74099  -0.73417  -0.73316  -0.73085
 Alpha  occ. eigenvalues --   -0.72797  -0.72133  -0.72059  -0.71953  -0.70351
 Alpha  occ. eigenvalues --   -0.70122  -0.69529  -0.69074  -0.68925  -0.67275
 Alpha  occ. eigenvalues --   -0.66971  -0.66285  -0.65827  -0.65604  -0.65517
 Alpha  occ. eigenvalues --   -0.65108  -0.64865  -0.64742  -0.64201  -0.63731
 Alpha  occ. eigenvalues --   -0.63698  -0.63048  -0.62159  -0.61752  -0.61390
 Alpha  occ. eigenvalues --   -0.61265  -0.61188  -0.60534  -0.60335  -0.59621
 Alpha  occ. eigenvalues --   -0.59537  -0.58803  -0.58124  -0.57671  -0.57575
 Alpha  occ. eigenvalues --   -0.57423  -0.57188  -0.57137  -0.56607  -0.56281
 Alpha  occ. eigenvalues --   -0.55718  -0.55671  -0.55269  -0.55055  -0.54755
 Alpha  occ. eigenvalues --   -0.54396  -0.53796  -0.53212  -0.53121  -0.53066
 Alpha  occ. eigenvalues --   -0.52522  -0.52249  -0.52134  -0.51840  -0.51574
 Alpha  occ. eigenvalues --   -0.51521  -0.51435  -0.51305  -0.50801  -0.50511
 Alpha  occ. eigenvalues --   -0.50440  -0.50307  -0.50219  -0.50011  -0.49698
 Alpha  occ. eigenvalues --   -0.49634  -0.49321  -0.49112  -0.48789  -0.48664
 Alpha  occ. eigenvalues --   -0.48222  -0.47963  -0.47826  -0.47554  -0.47505
 Alpha  occ. eigenvalues --   -0.47393  -0.47259  -0.47181  -0.46990  -0.46831
 Alpha  occ. eigenvalues --   -0.46636  -0.46483  -0.46436  -0.46136  -0.45956
 Alpha  occ. eigenvalues --   -0.45687  -0.45414  -0.45054  -0.44991  -0.44929
 Alpha  occ. eigenvalues --   -0.44624  -0.44456  -0.44172  -0.44061  -0.43824
 Alpha  occ. eigenvalues --   -0.43524  -0.43469  -0.43406  -0.43068  -0.42999
 Alpha  occ. eigenvalues --   -0.42793  -0.42636  -0.42337  -0.42186  -0.42088
 Alpha  occ. eigenvalues --   -0.41676  -0.41633  -0.41414  -0.41324  -0.41267
 Alpha  occ. eigenvalues --   -0.40971  -0.40766  -0.40763  -0.40431  -0.40170
 Alpha  occ. eigenvalues --   -0.40101  -0.39961  -0.39747  -0.39685  -0.39627
 Alpha  occ. eigenvalues --   -0.39456  -0.39220  -0.38654  -0.38072  -0.37662
 Alpha  occ. eigenvalues --   -0.37381  -0.37042  -0.36708  -0.36637  -0.36452
 Alpha  occ. eigenvalues --   -0.36298  -0.36095  -0.35798  -0.35373  -0.35050
 Alpha  occ. eigenvalues --   -0.34751  -0.33984  -0.33383  -0.32561  -0.32331
 Alpha  occ. eigenvalues --   -0.32274  -0.31923  -0.31869  -0.31548  -0.30810
 Alpha  occ. eigenvalues --   -0.30573  -0.30100  -0.29839  -0.29637  -0.29208
 Alpha  occ. eigenvalues --   -0.28119  -0.27992  -0.27588  -0.25474  -0.25246
 Alpha  occ. eigenvalues --   -0.24500  -0.22119
 Alpha virt. eigenvalues --   -0.11464  -0.10321  -0.07488  -0.06764  -0.06175
 Alpha virt. eigenvalues --   -0.05990  -0.05843  -0.04080  -0.03749  -0.03635
 Alpha virt. eigenvalues --   -0.03427  -0.03345  -0.03153  -0.02987  -0.02523

 Mulliken charges:
               1
     1  N   -0.765603
     2  H    0.413168
     3  H    0.435688
     4  H    0.407976
     5  C   -0.099881
     6  H    0.213541
     7  C    0.652430
     8  C   -0.128242
     9  H    0.197784
    10  O   -0.553889
    11  C   -0.461350
    12  H    0.137121
    13  H    0.197847
    14  H    0.170334
    15  C   -0.476296
    16  H    0.136100
    17  H    0.190155
    18  H    0.199542
    19  N   -0.608037
    20  H    0.380049
    21  C   -0.077374
    22  H    0.189756
    23  C    0.639660
    24  C   -0.075964
    25  H    0.147673
    26  O   -0.552182
    27  C   -0.286317
    28  H    0.166448
    29  H    0.153837
    30  C   -0.461534
    31  H    0.167954
    32  H    0.136648
    33  H    0.163403
    34  C   -0.460444
    35  H    0.173534
    36  H    0.138252
    37  H    0.153601
    38  N   -0.611165
    39  H    0.369743
    40  C   -0.075718
    41  H    0.191521
    42  C    0.623523
    43  C   -0.376650
    44  H    0.188301
    45  H    0.164184
    46  O   -0.542243
    47  C    0.188951
    48  C   -0.161612
    49  H    0.138834
    50  C   -0.190622
    51  H    0.127493
    52  C   -0.130119
    53  H    0.139650
    54  C   -0.137711
    55  H    0.128144
    56  C   -0.141213
    57  H    0.127388
    58  N   -0.592583
    59  H    0.358478
    60  C   -0.087130
    61  H    0.181885
    62  C    0.625404
    63  C   -0.254352
    64  H    0.144710
    65  H    0.143224
    66  O   -0.545882
    67  C   -0.064789
    68  H    0.128068
    69  C   -0.444392
    70  H    0.144006
    71  H    0.140354
    72  H    0.143398
    73  C   -0.464341
    74  H    0.138129
    75  H    0.140430
    76  H    0.172530
    77  N   -0.621438
    78  H    0.356361
    79  C   -0.059483
    80  H    0.199149
    81  C    0.613889
    82  C   -0.271524
    83  H    0.140569
    84  H    0.179708
    85  O   -0.596181
    86  C   -0.360446
    87  H    0.154051
    88  H    0.139217
    89  C    0.577794
    90  O   -0.657346
    91  O   -0.515209
    92  N   -0.659892
    93  H    0.447571
    94  C   -0.056975
    95  H    0.177662
    96  C    0.636695
    97  C   -0.392006
    98  H    0.207166
    99  H    0.188591
   100  O   -0.565401
   101  C    0.588675
   102  N   -0.727957
   103  H    0.329855
   104  H    0.418450
   105  O   -0.601016
   106  N   -0.622189
   107  H    0.399158
   108  C   -0.056136
   109  H    0.179690
   110  C    0.630761
   111  C   -0.390600
   112  H    0.170262
   113  H    0.172761
   114  O   -0.523369
   115  C    0.179315
   116  C   -0.199785
   117  H    0.134413
   118  C   -0.187017
   119  H    0.129958
   120  C   -0.163293
   121  H    0.137987
   122  C   -0.191686
   123  H    0.122230
   124  O   -0.643093
   125  H    0.408640
   126  C    0.351176
   127  N   -0.620027
   128  H    0.370560
   129  C   -0.024131
   130  H    0.192797
   131  C    0.589656
   132  C   -0.309550
   133  H    0.160292
   134  H    0.168048
   135  O   -0.447038
   136  C   -0.308851
   137  H    0.166637
   138  H    0.188277
   139  C   -0.138743
   140  H    0.178263
   141  H    0.156923
   142  N   -0.626348
   143  H    0.408165
   144  N   -0.764909
   145  H    0.371073
   146  H    0.377266
   147  N   -0.776962
   148  H    0.355537
   149  H    0.406680
   150  C    0.791160
   151  O   -0.573974
   152  H    0.416275
 Sum of Mulliken charges =   1.00000

 Dipole moment (field-independent basis, Debye):
    X=            -24.8141    Y=             12.5785    Z=             12.0253  Tot=             30.3079
 Quadrupole moment (field-independent basis, Debye-Ang):
   XX=             58.5784   YY=           -244.6518   ZZ=           -178.3838
   XY=            179.1631   XZ=           -406.4680   YZ=           -175.3428

 Normal termination of Gaussian 16 at Sat Aug 13 08:32:01 2022.
