 Gaussian 16, Revision C.01,
 Gaussian 16:  ES64L-G16RevC.01  3-Jul-2019

 -------------------------------------------------------------------
 # B3LYP/6-31G* guess=read geom=check nosymm integral(ultrafinegrid)
 -------------------------------------------------------------------

 ------------------------------------------------------
 Candidate Structure: Conf:448 Charge calc in gas phase
 ------------------------------------------------------
 Structure from the checkpoint file:  "conf-448.chk"
 Charge =  1 Multiplicity = 1

                          Input orientation:
 ---------------------------------------------------------------------
 Center     Atomic      Atomic             Coordinates (Angstroms)
 Number     Number       Type             X           Y           Z
 ---------------------------------------------------------------------
      1          7           0        1.002854    1.849273    3.975554
      2          1           0        1.094349    1.762364    2.878159
      3          1           0        0.639783    2.786089    4.211099
      4          1           0        1.923566    1.727252    4.401989
      5          6           0       -0.006014    0.872535    4.520600
      6          1           0        0.117276   -0.059411    3.961985
      7          6           0       -1.358621    1.562530    4.223660
      8          6           0        0.195050    0.625200    6.031892
      9          1           0        0.115988    1.603111    6.526228
     10          8           0       -1.482338    2.737866    4.574305
     11          6           0       -0.925651   -0.277279    6.574308
     12          1           0       -0.937107   -1.250485    6.068198
     13          1           0       -0.772473   -0.460763    7.642064
     14          1           0       -1.912318    0.179639    6.455282
     15          6           0        1.571426    0.011608    6.338997
     16          1           0        1.694211   -0.959292    5.843848
     17          1           0        2.416238    0.650187    6.046446
     18          1           0        1.673816   -0.151258    7.416261
     19          7           0       -2.242022    0.801208    3.569881
     20          1           0       -2.039357   -0.191837    3.440356
     21          6           0       -3.640754    1.078099    3.226549
     22          1           0       -4.102288    1.662207    4.032373
     23          6           0       -4.250022   -0.359480    3.194106
     24          6           0       -3.787110    1.836299    1.862699
     25          1           0       -3.359653    1.172359    1.104924
     26          8           0       -3.500209   -1.340674    3.199722
     27          6           0       -2.991834    3.163337    1.806398
     28          1           0       -3.009433    3.480559    0.754942
     29          1           0       -1.938299    2.973851    2.036458
     30          6           0       -5.258849    2.084640    1.483600
     31          1           0       -5.827804    2.555220    2.296291
     32          1           0       -5.770022    1.166051    1.188683
     33          1           0       -5.304034    2.763870    0.625889
     34          6           0       -3.513405    4.310946    2.679678
     35          1           0       -2.885997    5.199403    2.545866
     36          1           0       -4.537041    4.594946    2.411910
     37          1           0       -3.485927    4.057978    3.743254
     38          7           0       -5.593263   -0.501129    3.135943
     39          1           0       -6.186602    0.303193    3.302375
     40          6           0       -6.216632   -1.829428    3.216254
     41          1           0       -5.951497   -2.297260    4.169921
     42          6           0       -5.691298   -2.812719    2.144783
     43          6           0       -7.754488   -1.697114    3.114922
     44          1           0       -8.159681   -2.710963    3.204023
     45          1           0       -8.015745   -1.335814    2.113252
     46          8           0       -5.573816   -3.998954    2.417309
     47          6           0       -8.351447   -0.786770    4.168557
     48          6           0       -8.438181   -1.199655    5.506690
     49          1           0       -8.104372   -2.197573    5.782842
     50          6           0       -8.803377    0.497465    3.833978
     51          1           0       -8.771684    0.823546    2.795760
     52          6           0       -8.959880   -0.351203    6.481745
     53          1           0       -9.028511   -0.691100    7.511519
     54          6           0       -9.325034    1.351387    4.810282
     55          1           0       -9.679416    2.339497    4.529623
     56          6           0       -9.402729    0.929012    6.136750
     57          1           0       -9.813700    1.587398    6.896821
     58          7           0       -5.467979   -2.278080    0.906919
     59          1           0       -5.419400   -1.265321    0.850626
     60          6           0       -4.557676   -2.915654   -0.043618
     61          1           0       -4.218642   -3.849847    0.411576
     62          6           0       -3.377944   -1.938841   -0.206247
     63          6           0       -5.214577   -3.193146   -1.412540
     64          1           0       -4.451903   -3.626709   -2.076354
     65          1           0       -5.498870   -2.228336   -1.854224
     66          8           0       -3.564705   -0.722133   -0.099456
     67          6           0       -6.443321   -4.122043   -1.374479
     68          1           0       -7.183867   -3.659248   -0.707529
     69          6           0       -7.062679   -4.217504   -2.777171
     70          1           0       -6.364680   -4.681690   -3.486202
     71          1           0       -7.328598   -3.228521   -3.169778
     72          1           0       -7.972560   -4.828063   -2.762289
     73          6           0       -6.112980   -5.516470   -0.820436
     74          1           0       -5.315179   -5.994414   -1.405575
     75          1           0       -6.992857   -6.167924   -0.874505
     76          1           0       -5.800620   -5.474697    0.227813
     77          7           0       -2.159456   -2.464638   -0.462557
     78          1           0       -2.022023   -3.459087   -0.602781
     79          6           0       -0.972114   -1.627486   -0.547888
     80          1           0       -1.286200   -0.644585   -0.902062
     81          6           0       -0.012478   -2.265175   -1.565351
     82          6           0       -0.350319   -1.476602    0.867845
     83          1           0       -0.127479   -2.482936    1.243440
     84          1           0       -1.149817   -1.075922    1.499835
     85          8           0       -0.020151   -3.470166   -1.805198
     86          6           0        0.927826   -0.623582    1.026264
     87          1           0        1.229920   -0.652081    2.079606
     88          1           0        1.751640   -1.074253    0.458190
     89          6           0        0.868439    0.830611    0.549344
     90          8           0        1.158516    1.778342    1.363814
     91          8           0        0.616938    1.043872   -0.664670
     92          7           0        0.803364   -1.355841   -2.159310
     93          1           0        0.799542   -0.413208   -1.753253
     94          6           0        1.858044   -1.696565   -3.081722
     95          1           0        1.658240   -2.714625   -3.428405
     96          6           0        3.238370   -1.679972   -2.374708
     97          6           0        1.799832   -0.697738   -4.300018
     98          1           0        1.216102   -1.152783   -5.106465
     99          1           0        1.261269    0.196327   -3.977445
    100          8           0        3.467371   -0.983766   -1.389050
    101          6           0        3.167510   -0.236330   -4.781907
    102          7           0        3.702537   -0.881473   -5.841228
    103          1           0        4.712673   -0.833676   -5.944339
    104          1           0        3.239025   -1.684531   -6.242466
    105          8           0        3.771250    0.672406   -4.195138
    106          7           0        4.166906   -2.490178   -2.951760
    107          1           0        3.927358   -3.021852   -3.779455
    108          6           0        5.569432   -2.505004   -2.568929
    109          1           0        5.600813   -2.232416   -1.510504
    110          6           0        6.355716   -1.455893   -3.383328
    111          6           0        6.167382   -3.934520   -2.728810
    112          1           0        7.249685   -3.861742   -2.569162
    113          1           0        5.766838   -4.536134   -1.905233
    114          8           0        6.319997   -1.405927   -4.612762
    115          6           0        5.871247   -4.629483   -4.042837
    116          6           0        4.732712   -5.442819   -4.175278
    117          1           0        4.079106   -5.592962   -3.318295
    118          6           0        6.710746   -4.496158   -5.156877
    119          1           0        7.599074   -3.875424   -5.090777
    120          6           0        4.429775   -6.087734   -5.372158
    121          1           0        3.555437   -6.724057   -5.464353
    122          6           0        6.426561   -5.141471   -6.358055
    123          1           0        7.097701   -5.028524   -7.207416
    124          8           0        4.943695   -6.593148   -7.619668
    125          1           0        5.633120   -6.452038   -8.287484
    126          6           0        5.281143   -5.938857   -6.472249
    127          7           0        7.107406   -0.604199   -2.639577
    128          1           0        7.103037   -0.684468   -1.632962
    129          6           0        7.865894    0.484305   -3.243567
    130          1           0        8.311703    0.092480   -4.166393
    131          6           0        9.028051    0.925692   -2.358614
    132          6           0        6.982324    1.691889   -3.634311
    133          1           0        7.635195    2.448419   -4.082378
    134          1           0        6.280050    1.345990   -4.397467
    135          8           0        9.676795    1.925770   -2.555624
    136          6           0        6.197807    2.277864   -2.455383
    137          1           0        5.611123    1.482152   -1.981194
    138          1           0        6.887130    2.676535   -1.697569
    139          6           0        5.239667    3.395411   -2.894378
    140          1           0        5.790709    4.250848   -3.296888
    141          1           0        4.575445    3.043846   -3.688097
    142          7           0        4.414274    3.903530   -1.789165
    143          1           0        4.889547    4.503334   -1.127565
    144          7           0        2.792609    2.221522   -1.927011
    145          1           0        1.926987    1.824135   -1.533673
    146          1           0        3.249429    1.705607   -2.685146
    147          7           0        2.770557    3.697174   -0.157531
    148          1           0        2.034409    3.151416    0.310442
    149          1           0        2.960253    4.632141    0.169803
    150          6           0        3.328831    3.256184   -1.303031
    151          8           0        9.267083    0.081509   -1.325315
    152          1           0       10.036178    0.445367   -0.845472
 ---------------------------------------------------------------------

 SCF Done:  E(RB3LYP) =  -3586.68604109     A.U. after    3 cycles

 Alpha  occ. eigenvalues --  -19.28512 -19.23988 -19.22287 -19.21434 -19.21072
 Alpha  occ. eigenvalues --  -19.20784 -19.20474 -19.20014 -19.19943 -19.19326
 Alpha  occ. eigenvalues --  -19.18478 -19.18053 -19.16696 -14.52807 -14.47135
 Alpha  occ. eigenvalues --  -14.45517 -14.45115 -14.44872 -14.44466 -14.44298
 Alpha  occ. eigenvalues --  -14.44077 -14.44027 -14.42513 -14.42134 -14.40599
 Alpha  occ. eigenvalues --  -10.42353 -10.40668 -10.38753 -10.38287 -10.37689
 Alpha  occ. eigenvalues --  -10.37349 -10.37102 -10.37101 -10.35476 -10.35325
 Alpha  occ. eigenvalues --  -10.35018 -10.34060 -10.32450 -10.32245 -10.31910
 Alpha  occ. eigenvalues --  -10.31828 -10.31737 -10.31391 -10.30446 -10.30094
 Alpha  occ. eigenvalues --  -10.29706 -10.28812 -10.28601 -10.28163 -10.27361
 Alpha  occ. eigenvalues --  -10.27241 -10.26784 -10.26743 -10.26722 -10.26609
 Alpha  occ. eigenvalues --  -10.26161 -10.25958 -10.25953 -10.25891 -10.25753
 Alpha  occ. eigenvalues --  -10.25661 -10.25371 -10.25068 -10.24919 -10.24912
 Alpha  occ. eigenvalues --  -10.24841 -10.24769 -10.24671 -10.24096 -10.23955
 Alpha  occ. eigenvalues --  -10.23681 -10.23141 -10.22489 -10.21362 -10.20720
 Alpha  occ. eigenvalues --   -1.19207  -1.13743  -1.13022  -1.12566  -1.12425
 Alpha  occ. eigenvalues --   -1.12106  -1.11900  -1.11444  -1.10808  -1.10454
 Alpha  occ. eigenvalues --   -1.10115  -1.09748  -1.08422  -1.07793  -1.03871
 Alpha  occ. eigenvalues --   -1.01918  -1.01277  -1.00962  -1.00668  -1.00528
 Alpha  occ. eigenvalues --   -0.99650  -0.99117  -0.98870  -0.98070  -0.97301
 Alpha  occ. eigenvalues --   -0.91928  -0.91560  -0.91101  -0.88672  -0.87958
 Alpha  occ. eigenvalues --   -0.87559  -0.86380  -0.85704  -0.85058  -0.84926
 Alpha  occ. eigenvalues --   -0.83704  -0.82718  -0.81231  -0.81108  -0.80285
 Alpha  occ. eigenvalues --   -0.80234  -0.80093  -0.78985  -0.78220  -0.77890
 Alpha  occ. eigenvalues --   -0.77426  -0.76989  -0.75778  -0.73176  -0.72861
 Alpha  occ. eigenvalues --   -0.72135  -0.71921  -0.70987  -0.70833  -0.70481
 Alpha  occ. eigenvalues --   -0.70009  -0.69519  -0.68809  -0.68635  -0.68501
 Alpha  occ. eigenvalues --   -0.68297  -0.68062  -0.66975  -0.66736  -0.66571
 Alpha  occ. eigenvalues --   -0.66229  -0.66133  -0.65669  -0.65338  -0.65087
 Alpha  occ. eigenvalues --   -0.64769  -0.64462  -0.64277  -0.63224  -0.62961
 Alpha  occ. eigenvalues --   -0.62632  -0.61924  -0.61594  -0.61265  -0.60772
 Alpha  occ. eigenvalues --   -0.60728  -0.60123  -0.59331  -0.59188  -0.58696
 Alpha  occ. eigenvalues --   -0.58243  -0.57869  -0.57410  -0.57004  -0.56909
 Alpha  occ. eigenvalues --   -0.56768  -0.56236  -0.55957  -0.55720  -0.55633
 Alpha  occ. eigenvalues --   -0.55573  -0.55083  -0.54604  -0.54556  -0.54154
 Alpha  occ. eigenvalues --   -0.54034  -0.53726  -0.53589  -0.53431  -0.53099
 Alpha  occ. eigenvalues --   -0.53003  -0.52733  -0.52592  -0.52101  -0.51880
 Alpha  occ. eigenvalues --   -0.51609  -0.51403  -0.51212  -0.51132  -0.50893
 Alpha  occ. eigenvalues --   -0.50615  -0.50610  -0.50428  -0.50023  -0.49925
 Alpha  occ. eigenvalues --   -0.49674  -0.49492  -0.49123  -0.48930  -0.48892
 Alpha  occ. eigenvalues --   -0.48725  -0.48569  -0.48547  -0.48457  -0.48288
 Alpha  occ. eigenvalues --   -0.48231  -0.47973  -0.47810  -0.47795  -0.47496
 Alpha  occ. eigenvalues --   -0.47318  -0.47162  -0.46932  -0.46730  -0.46600
 Alpha  occ. eigenvalues --   -0.46589  -0.46303  -0.46153  -0.46092  -0.45769
 Alpha  occ. eigenvalues --   -0.45513  -0.45161  -0.44967  -0.44655  -0.44527
 Alpha  occ. eigenvalues --   -0.44354  -0.44246  -0.44123  -0.43848  -0.43818
 Alpha  occ. eigenvalues --   -0.43666  -0.43509  -0.43412  -0.43317  -0.43031
 Alpha  occ. eigenvalues --   -0.42980  -0.42482  -0.42195  -0.42154  -0.41981
 Alpha  occ. eigenvalues --   -0.41918  -0.41679  -0.41440  -0.41250  -0.40294
 Alpha  occ. eigenvalues --   -0.40272  -0.39969  -0.39824  -0.39509  -0.39301
 Alpha  occ. eigenvalues --   -0.39287  -0.38435  -0.38237  -0.37117  -0.36908
 Alpha  occ. eigenvalues --   -0.36572  -0.36558  -0.36453  -0.36164  -0.35766
 Alpha  occ. eigenvalues --   -0.35631  -0.35559  -0.35453  -0.35146  -0.35044
 Alpha  occ. eigenvalues --   -0.34961  -0.34331  -0.34063  -0.33810  -0.33798
 Alpha  occ. eigenvalues --   -0.33675  -0.33083  -0.32532  -0.32444  -0.31631
 Alpha  occ. eigenvalues --   -0.31562  -0.31522  -0.30984  -0.30672  -0.30394
 Alpha  occ. eigenvalues --   -0.29613  -0.28200
 Alpha virt. eigenvalues --   -0.08299  -0.07798  -0.07453  -0.07260  -0.06802
 Alpha virt. eigenvalues --   -0.06770  -0.06574  -0.06277  -0.06037  -0.05832
 Alpha virt. eigenvalues --   -0.05484  -0.05390  -0.05231  -0.04654  -0.03796

 Mulliken charges:
               1
     1  N   -0.792119
     2  H    0.457010
     3  H    0.396830
     4  H    0.380251
     5  C   -0.093628
     6  H    0.182875
     7  C    0.639534
     8  C   -0.091890
     9  H    0.165935
    10  O   -0.538656
    11  C   -0.465684
    12  H    0.163885
    13  H    0.174053
    14  H    0.173982
    15  C   -0.472053
    16  H    0.166347
    17  H    0.131974
    18  H    0.186630
    19  N   -0.625580
    20  H    0.386102
    21  C   -0.069953
    22  H    0.176588
    23  C    0.634569
    24  C   -0.084073
    25  H    0.193099
    26  O   -0.540198
    27  C   -0.260749
    28  H    0.142616
    29  H    0.132996
    30  C   -0.488555
    31  H    0.142827
    32  H    0.157055
    33  H    0.166090
    34  C   -0.454799
    35  H    0.143201
    36  H    0.143592
    37  H    0.165026
    38  N   -0.644153
    39  H    0.349716
    40  C   -0.015216
    41  H    0.185163
    42  C    0.621588
    43  C   -0.397767
    44  H    0.192444
    45  H    0.163005
    46  O   -0.514797
    47  C    0.158706
    48  C   -0.179309
    49  H    0.141389
    50  C   -0.211923
    51  H    0.133746
    52  C   -0.127346
    53  H    0.144672
    54  C   -0.126480
    55  H    0.142660
    56  C   -0.128971
    57  H    0.144243
    58  N   -0.602034
    59  H    0.357934
    60  C   -0.077837
    61  H    0.183012
    62  C    0.640903
    63  C   -0.255065
    64  H    0.134621
    65  H    0.141693
    66  O   -0.555986
    67  C   -0.064095
    68  H    0.135433
    69  C   -0.444166
    70  H    0.140328
    71  H    0.139205
    72  H    0.149003
    73  C   -0.470434
    74  H    0.130782
    75  H    0.146802
    76  H    0.180022
    77  N   -0.608805
    78  H    0.352766
    79  C   -0.065114
    80  H    0.203706
    81  C    0.596555
    82  C   -0.275421
    83  H    0.157344
    84  H    0.166423
    85  O   -0.536443
    86  C   -0.390834
    87  H    0.117739
    88  H    0.209382
    89  C    0.652317
    90  O   -0.640608
    91  O   -0.574393
    92  N   -0.631500
    93  H    0.396640
    94  C   -0.065082
    95  H    0.188210
    96  C    0.621738
    97  C   -0.366567
    98  H    0.176416
    99  H    0.190679
   100  O   -0.541309
   101  C    0.598544
   102  N   -0.727520
   103  H    0.389191
   104  H    0.346238
   105  O   -0.540283
   106  N   -0.587128
   107  H    0.343256
   108  C   -0.060557
   109  H    0.166343
   110  C    0.662429
   111  C   -0.369024
   112  H    0.165796
   113  H    0.171447
   114  O   -0.557573
   115  C    0.144584
   116  C   -0.219935
   117  H    0.142548
   118  C   -0.160708
   119  H    0.139646
   120  C   -0.160372
   121  H    0.154736
   122  C   -0.198643
   123  H    0.132921
   124  O   -0.633350
   125  H    0.414391
   126  C    0.350824
   127  N   -0.607986
   128  H    0.351100
   129  C   -0.051395
   130  H    0.213617
   131  C    0.586127
   132  C   -0.276699
   133  H    0.171759
   134  H    0.188513
   135  O   -0.450400
   136  C   -0.280710
   137  H    0.165200
   138  H    0.140562
   139  C   -0.181697
   140  H    0.177685
   141  H    0.203092
   142  N   -0.598360
   143  H    0.340634
   144  N   -0.838293
   145  H    0.425485
   146  H    0.429320
   147  N   -0.815691
   148  H    0.410465
   149  H    0.348393
   150  C    0.792779
   151  O   -0.576139
   152  H    0.424381
 Sum of Mulliken charges =   1.00000

 Dipole moment (field-independent basis, Debye):
    X=             12.3998    Y=              5.4257    Z=              3.4739  Tot=             13.9736
 Quadrupole moment (field-independent basis, Debye-Ang):
   XX=           -288.6673   YY=           -413.7085   ZZ=           -314.9703
   XY=            -12.1202   XZ=            -49.7352   YZ=             37.9068

 Normal termination of Gaussian 16 at Sat Aug 13 08:31:22 2022.
